INSANE! Membrane UpperLeaflet>loPI:POPI:DPPI:PYPI:ERGO=20.0:5.0:3.0:2.0:10.0 LowerLeaflet>loPI:POPI:DPPI:PYPI:ERGO=20.0:5.0:3.0:2.0:10.0
48566
    1loPI    C1    1   3.378   7.227  11.799 -0.0454 -0.1596 -0.0053
    1loPI    C2    2   3.724   7.062  11.911 -0.0684  0.0099  0.3297
    1loPI    C3    3   3.583   7.381  12.105 -0.2213  0.1827 -0.0546
    1loPI   PO4    4   3.406   7.154  11.445 -0.0540  0.0900 -0.0773
    1loPI   GL1    5   3.260   7.128  11.039 -0.1045  0.0433 -0.1671
    1loPI   GL2    6   3.022   6.979  10.958 -0.2045 -0.2117  0.0997
    1loPI   C1A    7   3.295   7.478  10.772 -0.1279 -0.0787  0.0195
    1loPI   C2A    8   3.299   7.485  10.382  0.2866  0.4104  0.0081
    1loPI   C3A    9   3.205   7.369   9.960 -0.0390  0.0962  0.3489
    1loPI   C4A   10   3.137   7.438   9.458  0.0140  0.2391 -0.2302
    1loPI   C5A   11   3.041   7.488   9.121 -0.0286  0.1020  0.0126
    1loPI   C6A   12   2.984   7.543   8.741  0.1140  0.0733 -0.2424
    1loPI   C1B   13   3.066   7.013  10.580  0.0310 -0.0974  0.1959
    1loPI   C2B   14   2.933   7.033  10.186 -0.0089  0.0578  0.0176
    1loPI   C3B   15   2.752   7.031   9.830 -0.0020 -0.1872 -0.1287
    1loPI   C4B   16   2.709   7.104   9.450 -0.0012  0.3454  0.1084
    2loPI    C1   17   3.218   0.053  11.921  0.1170 -0.1670 -0.0367
    2loPI    C2   18   3.426   0.374  12.039  0.0652 -0.1557  0.0250
    2loPI    C3   19   3.229   0.154  12.308 -0.0588 -0.1267 -0.0413
    2loPI   PO4   20   3.415  -0.098  11.807 -0.0834  0.4242  0.2891
    2loPI   GL1   21   3.588  -0.045  11.473 -0.0040  0.0905 -0.0943
    2loPI   GL2   22   3.857  -0.228  11.271  0.1781  0.0323  0.0661
    2loPI   C1A   23   3.458   0.021  11.102 -0.0414 -0.1571  0.1299
    2loPI   C2A   24   3.430  -0.004  10.690 -0.1628 -0.0260  0.0224
    2loPI   C3A   25   3.386   0.030  10.196  0.1180  0.3291 -0.3072
    2loPI   C4A   26   3.417   0.117   9.765 -0.0454 -0.0189 -0.0452
    2loPI   C5A   27   3.402  -0.051   9.431 -0.1015 -0.3227  0.0846
    2loPI   C6A   28   3.249  -0.298   9.169 -0.0983  0.0335 -0.2271
    2loPI   C1B   29   3.899  -0.154  10.877  0.2256 -0.1051 -0.2470
    2loPI   C2B   30   3.842  -0.178  10.397 -0.1147  0.0994  0.1999
    2loPI   C3B   31   3.804  -0.134   9.882 -0.1349 -0.0951 -0.0079
    2loPI   C4B   32   3.892  -0.165   9.404 -0.0035 -0.1299  0.2531
    3loPI    C1   33  13.464   2.827  11.054  0.0427  0.4668  0.2049
    3loPI    C2   34  13.528   2.829  11.449  0.0896 -0.0464  0.2071
    3loPI    C3   35  13.191   2.671  11.302  0.1069  0.0740  0.0356
    3loPI   PO4   36  13.472   3.078  10.980 -0.1004  0.1863 -0.1974
    3loPI   GL1   37  13.915   3.259  10.730  0.2435  0.2864 -0.0906
    3loPI   GL2   38  13.638   3.370  10.542 -0.2056 -0.2095 -0.3241
    3loPI   C1A   39  14.037   3.025  10.404 -0.2893 -0.2109  0.0708
    3loPI   C2A   40  14.289   3.073  10.150  0.2621  0.0621  0.2386
    3loPI   C3A   41  14.456   3.067   9.747  0.3031 -0.2205 -0.1207
    3loPI   C4A   42  14.752   3.095   9.382  0.1798  0.1262 -0.1269
    3loPI   C5A   43  14.917   3.123   8.909  0.0293 -0.1123 -0.1758
    3loPI   C6A   44  15.239   3.318   8.678 -0.1016 -0.0801 -0.1878
    3loPI   C1B   45  13.669   3.225  10.142  0.1154  0.3022  0.0493
    3loPI   C2B   46  13.923   3.083   9.718 -0.3947 -0.0414 -0.1622
    3loPI   C3B   47  14.219   3.008   9.330  0.1072  0.1398  0.0368
    3loPI   C4B   48  14.335   3.097   8.848  0.0702 -0.2073 -0.2219
    4loPI    C1   49  16.420   6.081  11.565  0.0686 -0.2053 -0.0032
    4loPI    C2   50  16.401   5.795  11.844  0.0182 -0.0506  0.1538
    4loPI    C3   51  16.076   6.012  11.757 -0.0021 -0.1859 -0.1214
    4loPI   PO4   52  16.515   5.968  11.384 -0.2079  0.0530 -0.0808
    4loPI   GL1   53  16.525   5.830  10.929 -0.1682 -0.1201  0.1149
    4loPI   GL2   54  16.229   5.922  10.955  0.2250 -0.3509  0.1268
    4loPI   C1A   55  16.746   5.759  10.627  0.2152 -0.1061 -0.1558
    4loPI   C2A   56  16.586   5.545  10.306  0.0469 -0.0826  0.0884
    4loPI   C3A   57  16.458   5.632   9.926 -0.3758  0.1614 -0.2635
    4loPI   C4A   58  16.552   5.691   9.538 -0.0102  0.0311  0.0909
    4loPI   C5A   59  16.635   5.851   9.125  0.0473  0.1143 -0.2603
    4loPI   C6A   60  16.412   6.065   8.819  0.1255 -0.2872 -0.2528
    4loPI   C1B   61  16.253   6.021  10.534 -0.0124 -0.0541 -0.1699
    4loPI   C2B   62  16.375   6.100  10.126  0.1621  0.1106  0.2073
    4loPI   C3B   63  16.496   6.117   9.730 -0.1200 -0.1226  0.1762
    4loPI   C4B   64  16.501   6.298   9.320 -0.1751 -0.1698 -0.1348
    5loPI    C1   65   4.486   4.767  12.041 -0.1658 -0.1327  0.1672
    5loPI    C2   66   4.474   4.969  12.386 -0.0661 -0.0143  0.1021
    5loPI    C3   67   4.727   4.663  12.343 -0.0416  0.0040  0.1162
    5loPI   PO4   68   4.573   5.002  11.858  0.2845  0.2206  0.1090
    5loPI   GL1   69   4.617   4.915  11.436  0.0436 -0.2007 -0.3671
    5loPI   GL2   70   4.402   4.879  11.336 -0.1030 -0.3293  0.0128
    5loPI   C1A   71   4.794   4.981  11.049 -0.0228 -0.0201  0.0449
    5loPI   C2A   72   4.699   4.986  10.592 -0.0594  0.0959  0.1403
    5loPI   C3A   73   4.732   5.038  10.169  0.1131 -0.3593  0.1527
    5loPI   C4A   74   4.703   4.922   9.735 -0.1712  0.1663 -0.1082
    5loPI   C5A   75   4.735   5.222   9.370 -0.1725 -0.3919  0.1440
    5loPI   C6A   76   4.737   5.260   8.936  0.0078 -0.2372  0.0523
    5loPI   C1B   77   4.380   4.638  10.847 -0.2031 -0.1308  0.1949
    5loPI   C2B   78   4.407   4.638  10.439  0.1003  0.0117 -0.4432
    5loPI   C3B   79   4.281   4.716  10.091  0.1112 -0.0571  0.0434
    5loPI   C4B   80   4.303   4.653   9.653  0.1985  0.1625 -0.1320
    6loPI    C1   81  12.118  12.758  11.705  0.1529 -0.0448  0.1248
    6loPI    C2   82  12.151  12.582  12.063  0.0569 -0.0265  0.1431
    6loPI    C3   83  12.225  12.974  12.024 -0.0646 -0.0006  0.1693
    6loPI   PO4   84  12.135  12.615  11.524 -0.0918 -0.0414  0.0489
    6loPI   GL1   85  12.190  12.537  11.118 -0.0841  0.2971  0.1581
    6loPI   GL2   86  12.181  12.871  11.075  0.1613 -0.1531 -0.1091
    6loPI   C1A   87  12.149  12.425  10.642 -0.2656 -0.2265  0.1905
    6loPI   C2A   88  12.172  12.606  10.238 -0.2646  0.3545  0.2045
    6loPI   C3A   89  12.249  12.533   9.917 -0.0071 -0.1740  0.3876
    6loPI   C4A   90  12.245  12.564   9.448  0.0255  0.0455  0.1311
    6loPI   C5A   91  12.064  12.417   9.026  0.3802 -0.0893  0.0010
    6loPI   C6A   92  12.086  12.128   8.793 -0.0307  0.1298 -0.0041
    6loPI   C1B   93  12.105  12.934  10.594 -0.2018 -0.1890 -0.0160
    6loPI   C2B   94  12.115  13.080  10.165  0.0339  0.1730 -0.3231
    6loPI   C3B   95  12.199  13.083   9.769 -0.0861 -0.0460 -0.0476
    6loPI   C4B   96  12.158  13.048   9.315  0.2528 -0.0176  0.0816
    7loPI    C1   97   2.287  15.288  12.335  0.0218  0.0841  0.2834
    7loPI    C2   98   2.270  14.895  12.263  0.1097  0.1086  0.1261
    7loPI    C3   99   2.624  15.074  12.313  0.0770  0.1917  0.0623
    7loPI   PO4  100   2.090  15.395  12.062  0.0734 -0.0033 -0.0190
    7loPI   GL1  101   2.017  15.347  11.626 -0.1042  0.0028  0.0876
    7loPI   GL2  102   2.156  15.158  11.438  0.2035  0.2991 -0.2304
    7loPI   C1A  103   1.768  15.450  11.299  0.1846 -0.1495 -0.1827
    7loPI   C2A  104   1.840  15.485  10.850  0.1655  0.0176  0.3659
    7loPI   C3A  105   1.913  15.477  10.604 -0.2659  0.0269  0.4045
    7loPI   C4A  106   1.862  15.442  10.221  0.1970 -0.0413 -0.0909
    7loPI   C5A  107   1.881  15.473   9.759 -0.3114 -0.0625  0.1478
    7loPI   C6A  108   2.134  15.395   9.337 -0.0426  0.0314 -0.1775
    7loPI   C1B  109   2.334  15.222  11.112 -0.2920 -0.0330 -0.0957
    7loPI   C2B  110   2.355  15.251  10.721 -0.0813 -0.0909 -0.3184
    7loPI   C3B  111   2.280  15.237  10.300 -0.0386 -0.3699  0.1531
    7loPI   C4B  112   2.321  15.229   9.839 -0.1547  0.1716  0.1767
    8loPI    C1  113   7.059  14.812  11.625  0.2215 -0.0267  0.2403
    8loPI    C2  114   6.714  15.014  11.635  0.1932 -0.0647  0.0697
    8loPI    C3  115   6.819  14.782  11.943  0.0629 -0.0593  0.1189
    8loPI   PO4  116   7.084  14.712  11.380 -0.1178 -0.0286  0.0564
    8loPI   GL1  117   7.218  14.693  10.918 -0.0437  0.2164  0.0919
    8loPI   GL2  118   6.841  14.670  10.854 -0.1807  0.2069  0.2394
    8loPI   C1A  119   7.569  14.738  10.531  0.4112 -0.0125  0.0063
    8loPI   C2A  120   7.600  14.762  10.105  0.1248 -0.0553  0.0411
    8loPI   C3A  121   7.370  14.760   9.703  0.1152 -0.1679  0.1737
    8loPI   C4A  122   7.336  14.618   9.233  0.1474 -0.2488  0.0126
    8loPI   C5A  123   7.048  14.466   8.996  0.5265  0.4666  0.1441
    8loPI   C6A  124   6.700  14.325   9.073  0.3076  0.1505 -0.3693
    8loPI   C1B  125   7.010  14.681  10.419 -0.1858  0.0707  0.1746
    8loPI   C2B  126   6.976  14.816  10.120  0.1915 -0.1156 -0.0813
    8loPI   C3B  127   6.810  14.853   9.743 -0.3213 -0.1114  0.0507
    8loPI   C4B  128   6.890  14.810   9.305 -0.1154 -0.1181 -0.3243
    9loPI    C1  129   0.132  16.190  12.082 -0.0865  0.1001 -0.0380
    9loPI    C2  130  -0.126  16.391  11.852 -0.2874 -0.0083  0.0899
    9loPI    C3  131  -0.195  16.354  12.244 -0.1005 -0.0784  0.1172
    9loPI   PO4  132   0.387  16.122  11.935  0.0104 -0.0263  0.0154
    9loPI   GL1  133   0.440  16.250  11.458 -0.2171  0.3510  0.3699
    9loPI   GL2  134   0.166  16.170  11.462 -0.0946  0.1950 -0.1253
    9loPI   C1A  135   0.790  15.979  11.143  0.2052  0.1929 -0.0084
    9loPI   C2A  136   0.898  15.871  10.622 -0.1344  0.1118 -0.0003
    9loPI   C3A  137   0.902  15.891  10.232 -0.0449 -0.1019 -0.0210
    9loPI   C4A  138   1.032  15.842   9.776 -0.2841 -0.3706 -0.4418
    9loPI   C5A  139   0.847  15.760   9.349  0.0065  0.1124 -0.1725
    9loPI   C6A  140   1.138  15.741   9.011 -0.0895  0.1509 -0.1229
    9loPI   C1B  141   0.326  16.207  11.004 -0.3840 -0.0670  0.1275
    9loPI   C2B  142   0.417  16.018  10.480 -0.0798  0.1467  0.0725
    9loPI   C3B  143   0.423  16.065   9.996  0.2478 -0.1890 -0.4623
    9loPI   C4B  144   0.576  16.085   9.670 -0.0239  0.1084  0.0428
   10loPI    C1  145   0.938   1.961  12.000 -0.0312  0.1084 -0.3610
   10loPI    C2  146   0.647   1.906  12.269  0.0942  0.2786 -0.1875
   10loPI    C3  147   0.635   2.222  12.023 -0.0813  0.0600 -0.4659
   10loPI   PO4  148   0.939   1.782  11.744  0.0437 -0.0614 -0.0209
   10loPI   GL1  149   1.222   1.808  11.405 -0.2626  0.2133  0.0415
   10loPI   GL2  150   1.449   1.626  11.304 -0.2617 -0.0523  0.1143
   10loPI   C1A  151   1.245   1.867  10.892  0.1340  0.1522  0.0749
   10loPI   C2A  152   1.369   1.942  10.479  0.0974  0.0911 -0.0805
   10loPI   C3A  153   1.220   1.979  10.110  0.2166 -0.0535  0.0037
   10loPI   C4A  154   1.306   1.875   9.750 -0.0725  0.1125  0.0664
   10loPI   C5A  155   1.472   1.952   9.294 -0.3173 -0.0352  0.0784
   10loPI   C6A  156   1.677   2.084   8.865  0.3761 -0.0562 -0.2120
   10loPI   C1B  157   1.646   1.504  11.056 -0.4783 -0.1019 -0.0894
   10loPI   C2B  158   1.617   1.470  10.602 -0.1963  0.3627  0.0963
   10loPI   C3B  159   1.366   1.467  10.225  0.2740 -0.0702 -0.0716
   10loPI   C4B  160   1.353   1.400   9.777 -0.2865 -0.0020 -0.1956
   11loPI    C1  161   5.786   7.124  11.798 -0.1577  0.1944 -0.0236
   11loPI    C2  162   5.494   6.973  12.026 -0.0164  0.0083  0.0373
   11loPI    C3  163   5.824   7.123  12.196  0.0160  0.0240 -0.0388
   11loPI   PO4  164   5.701   6.971  11.548  0.0451 -0.3195 -0.1350
   11loPI   GL1  165   5.571   6.977  11.205 -0.2345 -0.0686  0.4072
   11loPI   GL2  166   5.173   6.956  11.110  0.0101  0.0291  0.3115
   11loPI   C1A  167   5.596   6.740  10.850 -0.3342  0.0396  0.0294
   11loPI   C2A  168   5.477   6.727  10.437 -0.1189 -0.0282  0.0154
   11loPI   C3A  169   5.479   6.783   9.977  0.2068  0.2744 -0.1172
   11loPI   C4A  170   5.501   6.879   9.501 -0.0625  0.2166 -0.1108
   11loPI   C5A  171   5.719   6.971   9.111  0.0438 -0.0865 -0.1810
   11loPI   C6A  172   5.986   7.029   8.767 -0.2786  0.0543  0.0345
   11loPI   C1B  173   5.097   6.960  10.714  0.1798 -0.0629  0.2472
   11loPI   C2B  174   5.050   6.929  10.329 -0.1434  0.0104 -0.0289
   11loPI   C3B  175   4.992   6.945   9.983 -0.1152 -0.0991  0.1392
   11loPI   C4B  176   4.937   7.032   9.602  0.0316  0.0000 -0.0607
   12loPI    C1  177   3.431   2.788  11.748  0.1061  0.2382  0.0677
   12loPI    C2  178   3.472   2.940  12.116  0.1289  0.0653  0.1375
   12loPI    C3  179   3.300   2.582  12.066  0.2550  0.0241 -0.0076
   12loPI   PO4  180   3.682   2.978  11.580  0.3581 -0.3166 -0.0662
   12loPI   GL1  181   4.084   3.010  11.448  0.0877  0.1548 -0.2947
   12loPI   GL2  182   3.968   2.771  11.278  0.0714  0.1067  0.1511
   12loPI   C1A  183   4.435   3.104  11.159 -0.0976 -0.0659  0.2715
   12loPI   C2A  184   4.385   3.085  10.745  0.0237 -0.2316 -0.0517
   12loPI   C3A  185   4.328   3.074  10.303  0.3635  0.1988  0.0328
   12loPI   C4A  186   4.423   3.113   9.926 -0.0654  0.3804 -0.0839
   12loPI   C5A  187   4.321   3.024   9.470  0.0631 -0.4165 -0.1485
   12loPI   C6A  188   4.611   2.771   9.101  0.1473  0.1450 -0.0547
   12loPI   C1B  189   4.115   2.750  10.915  0.1788 -0.0568 -0.1203
   12loPI   C2B  190   4.092   2.693  10.440 -0.0802 -0.0933 -0.0243
   12loPI   C3B  191   4.029   2.789  10.008 -0.5395 -0.0679 -0.0891
   12loPI   C4B  192   3.869   2.826   9.499  0.0049 -0.2796  0.2168
   13loPI    C1  193   8.521  16.978  11.374  0.1594  0.0135  0.2751
   13loPI    C2  194   8.491  17.373  11.430 -0.2699 -0.0057  0.2119
   13loPI    C3  195   8.196  17.131  11.551 -0.1043 -0.2875  0.0621
   13loPI   PO4  196   8.601  16.960  11.149  0.2230  0.5060  0.1065
   13loPI   GL1  197   8.545  17.051  10.786 -0.2622  0.2717  0.2978
   13loPI   GL2  198   8.541  16.719  10.682 -0.1669  0.0515 -0.1138
   13loPI   C1A  199   8.512  17.336  10.474  0.0750 -0.0961 -0.3084
   13loPI   C2A  200   8.318  17.426  10.122 -0.2197  0.0039  0.0182
   13loPI   C3A  201   8.235  17.434   9.746  0.0877  0.1162  0.3312
   13loPI   C4A  202   8.123  17.423   9.385  0.0034 -0.2303  0.1408
   13loPI   C5A  203   8.090  17.484   8.892  0.2182  0.0272  0.0119
   13loPI   C6A  204   7.944  17.814   8.606  0.0450  0.2305 -0.0822
   13loPI   C1B  205   8.489  16.865  10.299  0.1092 -0.2193 -0.0366
   13loPI   C2B  206   8.486  16.978   9.946 -0.0104 -0.0440  0.2128
   13loPI   C3B  207   8.753  16.908   9.568 -0.2197 -0.2757  0.0550
   13loPI   C4B  208   8.836  16.940   9.076 -0.0559  0.0040 -0.0880
   14loPI    C1  209  15.959   4.227  11.531  0.0627  0.0059  0.1343
   14loPI    C2  210  16.106   3.952  11.782  0.0384 -0.2372 -0.1128
   14loPI    C3  211  15.923   3.838  11.445 -0.0872  0.0808 -0.1562
   14loPI   PO4  212  16.116   4.431  11.468 -0.0021 -0.0741  0.1908
   14loPI   GL1  213  16.182   4.606  11.095 -0.0144  0.0429 -0.2661
   14loPI   GL2  214  16.006   4.649  10.882 -0.1876 -0.0291  0.1649
   14loPI   C1A  215  16.535   4.746  10.912 -0.2009 -0.0660  0.2932
   14loPI   C2A  216  16.856   4.730  10.523 -0.0459 -0.1437  0.1604
   14loPI   C3A  217  16.795   4.736  10.127 -0.1588  0.2561  0.0508
   14loPI   C4A  218  16.799   4.772   9.710 -0.0884  0.0685 -0.0189
   14loPI   C5A  219  16.836   4.933   9.304  0.0924 -0.1338 -0.3766
   14loPI   C6A  220  17.019   5.001   8.909 -0.1089  0.0735  0.0962
   14loPI   C1B  221  16.149   4.694  10.452 -0.2410  0.1603  0.0837
   14loPI   C2B  222  16.303   4.596  10.103 -0.1216  0.3596  0.0535
   14loPI   C3B  223  16.337   4.653   9.710 -0.0803 -0.1877 -0.0716
   14loPI   C4B  224  16.574   4.467   9.409 -0.1026  0.0714 -0.1977
   15loPI    C1  225  17.124  12.121  11.693 -0.0169 -0.0020  0.2400
   15loPI    C2  226  16.844  12.006  11.955 -0.0786 -0.0888  0.1371
   15loPI    C3  227  17.220  11.873  11.992 -0.0598 -0.0055  0.2509
   15loPI   PO4  228  17.084  12.032  11.457  0.0292  0.0872 -0.0349
   15loPI   GL1  229  17.237  12.353  11.137  0.4128  0.2005 -0.0818
   15loPI   GL2  230  16.854  12.424  11.176 -0.2002  0.0845  0.2147
   15loPI   C1A  231  17.389  12.547  10.698  0.1216 -0.7371 -0.1218
   15loPI   C2A  232  17.524  12.608  10.331 -0.1207 -0.1794  0.0931
   15loPI   C3A  233  17.504  12.669   9.887 -0.0683  0.0366  0.1968
   15loPI   C4A  234  17.426  12.976   9.495  0.1580  0.2456 -0.1898
   15loPI   C5A  235  17.220  13.324   9.335  0.1517 -0.3445  0.1154
   15loPI   C6A  236  17.227  13.715   9.025 -0.2258  0.2593 -0.3816
   15loPI   C1B  237  16.945  12.210  10.793  0.0817  0.1038  0.0315
   15loPI   C2B  238  17.049  12.250  10.375 -0.2493  0.0825  0.1287
   15loPI   C3B  239  17.086  12.430   9.939  0.0089 -0.3524 -0.1544
   15loPI   C4B  240  17.236  12.479   9.515 -0.0281 -0.3554  0.1215
   16loPI    C1  241  11.767  12.334  11.821 -0.0418  0.0770 -0.0306
   16loPI    C2  242  11.531  12.061  11.994  0.0027  0.0909  0.0525
   16loPI    C3  243  11.762  12.298  12.220  0.1629  0.0171 -0.0324
   16loPI   PO4  244  11.586  12.433  11.629 -0.1848  0.0010  0.0045
   16loPI   GL1  245  11.681  12.443  11.211 -0.0774 -0.0289  0.1022
   16loPI   GL2  246  11.735  12.064  11.000  0.1812 -0.2714  0.0386
   16loPI   C1A  247  11.714  12.574  10.857  0.0383 -0.0505 -0.1230
   16loPI   C2A  248  11.762  12.630  10.485  0.4924  0.2361 -0.0676
   16loPI   C3A  249  11.755  12.685  10.030 -0.1115 -0.1381 -0.4191
   16loPI   C4A  250  11.748  12.737   9.651 -0.1964  0.2507  0.1466
   16loPI   C5A  251  11.769  12.854   9.097  0.2515 -0.0567  0.1671
   16loPI   C6A  252  12.170  12.893   8.842 -0.1588  0.2239  0.2332
   16loPI   C1B  253  11.793  12.109  10.558 -0.3267 -0.0463 -0.1417
   16loPI   C2B  254  11.902  12.204  10.167 -0.1087 -0.1977 -0.1529
   16loPI   C3B  255  11.799  12.266   9.749 -0.1371  0.1908  0.1199
   16loPI   C4B  256  11.786  12.244   9.386  0.2670 -0.0037 -0.1425
   17loPI    C1  257   4.043  11.183  11.780  0.0925  0.1334  0.1788
   17loPI    C2  258   4.071  11.558  11.644 -0.1891  0.1005  0.0222
   17loPI    C3  259   3.859  11.480  11.975 -0.0804  0.0866  0.0890
   17loPI   PO4  260   4.347  11.137  11.669 -0.0916  0.0944  0.0772
   17loPI   GL1  261   4.523  11.206  11.272  0.2026  0.1534 -0.0826
   17loPI   GL2  262   4.216  11.299  11.227 -0.0932  0.2137  0.0061
   17loPI   C1A  263   4.691  11.157  10.824  0.0608 -0.2656 -0.1462
   17loPI   C2A  264   4.681  11.220  10.423 -0.1086 -0.0166  0.3015
   17loPI   C3A  265   4.566  11.232  10.038  0.4309  0.2377  0.1027
   17loPI   C4A  266   4.445  11.283   9.627  0.2358 -0.1436 -0.1318
   17loPI   C5A  267   4.526  11.283   9.240  0.1029 -0.0455  0.0098
   17loPI   C6A  268   4.368  11.722   9.023  0.0493  0.3154 -0.0907
   17loPI   C1B  269   4.196  11.396  10.719  0.0251  0.0041  0.2116
   17loPI   C2B  270   4.159  11.444  10.315  0.2196 -0.2268  0.0947
   17loPI   C3B  271   4.071  11.468   9.995  0.1453 -0.0246  0.2089
   17loPI   C4B  272   4.013  11.551   9.564  0.1364 -0.0861  0.0774
   18loPI    C1  273  14.439  14.053  11.818  0.0335  0.2006 -0.1421
   18loPI    C2  274  14.208  14.265  12.067  0.1117  0.1276 -0.0056
   18loPI    C3  275  14.057  13.947  11.876  0.1652 -0.0704  0.2765
   18loPI   PO4  276  14.589  14.235  11.611  0.3469  0.1575  0.0699
   18loPI   GL1  277  14.670  14.106  11.145 -0.0550  0.3569 -0.0475
   18loPI   GL2  278  14.961  14.134  11.294  0.2352 -0.1546 -0.0776
   18loPI   C1A  279  14.641  14.294  10.656  0.1644 -0.0311 -0.0099
   18loPI   C2A  280  14.681  14.402  10.253  0.0861 -0.1150 -0.1031
   18loPI   C3A  281  14.629  14.439   9.863  0.1322  0.2128 -0.2478
   18loPI   C4A  282  14.698  14.485   9.470 -0.1479  0.3034  0.1504
   18loPI   C5A  283  14.605  14.425   9.110  0.2083  0.1338  0.0808
   18loPI   C6A  284  14.361  14.232   8.824  0.0110  0.0978  0.0672
   18loPI   C1B  285  15.068  14.117  10.868 -0.0401  0.0721  0.3179
   18loPI   C2B  286  15.063  14.124  10.473  0.1528 -0.4214  0.0439
   18loPI   C3B  287  15.071  14.183   9.978  0.0612  0.0285  0.3025
   18loPI   C4B  288  15.062  14.189   9.614 -0.2918  0.2365  0.0831
   19loPI    C1  289  13.484   1.716  11.478  0.0259 -0.0148  0.0842
   19loPI    C2  290  13.684   1.791  11.817 -0.0463  0.1188  0.0978
   19loPI    C3  291  13.352   1.568  11.826  0.3573 -0.5109  0.0094
   19loPI   PO4  292  13.700   1.613  11.282  0.0929  0.0092 -0.1086
   19loPI   GL1  293  13.797   1.508  10.923  0.0896  0.0591 -0.0232
   19loPI   GL2  294  13.535   1.590  10.686 -0.0749 -0.0538  0.0487
   19loPI   C1A  295  13.891   1.177  10.555 -0.0040  0.1168 -0.0450
   19loPI   C2A  296  13.938   1.054  10.132 -0.0308 -0.1722 -0.2879
   19loPI   C3A  297  14.037   1.047   9.717 -0.2719 -0.1167 -0.3412
   19loPI   C4A  298  14.187   1.091   9.315  0.4970 -0.1370  0.2425
   19loPI   C5A  299  14.258   1.140   8.912 -0.1699 -0.1383 -0.2192
   19loPI   C6A  300  14.550   1.023   8.676  0.2147  0.0159  0.1765
   19loPI   C1B  301  13.435   1.372  10.261  0.0605  0.1619 -0.0909
   19loPI   C2B  302  13.577   1.248   9.782  0.0943 -0.3043  0.1303
   19loPI   C3B  303  13.717   1.242   9.368  0.2975 -0.1944  0.2909
   19loPI   C4B  304  13.737   1.276   8.870 -0.0858 -0.0308  0.1175
   20loPI    C1  305   8.812   3.773  11.464 -0.1416 -0.1546 -0.1025
   20loPI    C2  306   8.926   4.121  11.303 -0.1182 -0.0567  0.1215
   20loPI    C3  307   9.199   3.877  11.465 -0.1355 -0.1774 -0.0296
   20loPI   PO4  308   8.630   3.672  11.262 -0.1000  0.4672  0.4536
   20loPI   GL1  309   8.296   3.647  11.021 -0.0628  0.3526 -0.0851
   20loPI   GL2  310   8.143   3.433  10.998  0.0094  0.1678 -0.1337
   20loPI   C1A  311   8.294   3.966  10.645  0.0149  0.0317  0.0058
   20loPI   C2A  312   8.380   3.815  10.213 -0.1427  0.1477 -0.0494
   20loPI   C3A  313   8.447   3.853   9.757 -0.2560 -0.2100 -0.1699
   20loPI   C4A  314   8.363   3.941   9.411  0.2181 -0.0717  0.0881
   20loPI   C5A  315   8.412   4.124   9.003 -0.0015 -0.1133 -0.2542
   20loPI   C6A  316   8.548   4.558   8.871 -0.0193 -0.0327  0.0252
   20loPI   C1B  317   8.132   3.466  10.588 -0.0931 -0.3481 -0.1001
   20loPI   C2B  318   7.969   3.530  10.225 -0.1623 -0.2281  0.1517
   20loPI   C3B  319   8.033   3.575   9.762 -0.1749  0.3654 -0.2047
   20loPI   C4B  320   7.985   3.628   9.375 -0.3014 -0.3483  0.2402
   21loPI    C1  321   3.319  13.573  12.066  0.0868 -0.0479 -0.2280
   21loPI    C2  322   3.573  13.443  12.347  0.0561 -0.2555 -0.2946
   21loPI    C3  323   3.183  13.355  12.373 -0.1131  0.5148  0.1000
   21loPI   PO4  324   3.438  13.566  11.848 -0.2307  0.1113  0.0841
   21loPI   GL1  325   3.634  13.757  11.552 -0.0153 -0.2044  0.1336
   21loPI   GL2  326   3.823  13.885  11.400  0.1086 -0.2091  0.1713
   21loPI   C1A  327   3.439  13.705  11.239  0.3258  0.1682 -0.1460
   21loPI   C2A  328   3.391  13.759  10.780  0.3313 -0.0543  0.0140
   21loPI   C3A  329   3.347  13.729  10.355 -0.0102  0.2720 -0.2998
   21loPI   C4A  330   3.542  13.702   9.877  0.1247  0.1509 -0.3717
   21loPI   C5A  331   3.384  13.603   9.490 -0.1626 -0.2110  0.1735
   21loPI   C6A  332   3.232  13.278   9.491 -0.1637  0.1872 -0.0128
   21loPI   C1B  333   3.809  14.094  11.048  0.2938 -0.0652  0.0271
   21loPI   C2B  334   3.766  14.153  10.631 -0.1091 -0.0029 -0.0883
   21loPI   C3B  335   3.814  14.085  10.288  0.1958  0.1510 -0.1428
   21loPI   C4B  336   3.899  14.115   9.793  0.0285  0.1379  0.3794
   22loPI    C1  337   1.118   1.085  11.986  0.0813 -0.0788 -0.2307
   22loPI    C2  338   1.180   0.740  12.179  0.0715 -0.0173 -0.1170
   22loPI    C3  339   0.815   0.903  12.174  0.1112  0.0748 -0.0315
   22loPI   PO4  340   1.198   1.099  11.812 -0.0107  0.1816  0.1757
   22loPI   GL1  341   1.176   1.235  11.441 -0.1607 -0.0301  0.2610
   22loPI   GL2  342   0.859   1.087  11.360  0.2854  0.1575 -0.0256
   22loPI   C1A  343   1.182   1.310  11.055  0.2256 -0.1134  0.2504
   22loPI   C2A  344   1.138   1.356  10.690 -0.0929  0.0209  0.2807
   22loPI   C3A  345   0.978   1.168  10.401 -0.1496  0.0544 -0.0099
   22loPI   C4A  346   0.980   1.132   9.984  0.1185 -0.0998 -0.2663
   22loPI   C5A  347   0.927   1.157   9.617 -0.3030 -0.1824  0.2364
   22loPI   C6A  348   0.612   1.108   9.339 -0.0632  0.1595 -0.2414
   22loPI   C1B  349   0.869   0.954  10.953  0.0797  0.1007  0.0241
   22loPI   C2B  350   0.938   0.681  10.565 -0.2804  0.0228  0.1515
   22loPI   C3B  351   1.085   0.629  10.246 -0.1719 -0.0612 -0.1166
   22loPI   C4B  352   1.077   0.536   9.849 -0.1758  0.0179  0.0995
   23loPI    C1  353  10.495   7.545  10.981 -0.1796  0.0983  0.0436
   23loPI    C2  354  10.699   7.519  11.324  0.0662  0.1771 -0.0944
   23loPI    C3  355  10.467   7.216  11.207  0.1397  0.0667  0.0424
   23loPI   PO4  356  10.398   7.780  11.052  0.1317  0.1819  0.0700
   23loPI   GL1  357   9.990   7.933  10.906 -0.1428  0.0735 -0.2139
   23loPI   GL2  358  10.182   7.700  10.588 -0.3552 -0.2144 -0.0911
   23loPI   C1A  359  10.016   8.203  10.544 -0.2039 -0.0382 -0.0514
   23loPI   C2A  360   9.914   8.310  10.258 -0.1394 -0.0454 -0.0298
   23loPI   C3A  361   9.866   8.310   9.813  0.0853  0.0847 -0.0373
   23loPI   C4A  362  10.124   8.375   9.533  0.2684 -0.0269 -0.1449
   23loPI   C5A  363  10.071   8.465   9.140 -0.1567 -0.1336  0.0729
   23loPI   C6A  364  10.209   8.731   8.927  0.1521  0.1701  0.2693
   23loPI   C1B  365  10.002   7.763  10.161 -0.0142  0.1223  0.1536
   23loPI   C2B  366  10.002   7.822   9.728  0.3764  0.2134  0.1299
   23loPI   C3B  367   9.764   8.065   9.342 -0.3269  0.1231 -0.2338
   23loPI   C4B  368   9.778   8.097   8.972  0.0622  0.1805  0.0429
   24loPI    C1  369  15.258   7.317  11.849 -0.0211  0.0367  0.0643
   24loPI    C2  370  14.973   7.456  12.094 -0.1707 -0.1880  0.0206
   24loPI    C3  371  15.023   7.061  12.047  0.0643 -0.1492 -0.0716
   24loPI   PO4  372  15.257   7.529  11.648  0.0528 -0.1637 -0.1781
   24loPI   GL1  373  15.306   7.438  11.119 -0.2124 -0.3085 -0.1077
   24loPI   GL2  374  15.374   7.619  10.895  0.1625  0.1193  0.2608
   24loPI   C1A  375  15.316   7.199  10.711  0.0336 -0.1389 -0.0353
   24loPI   C2A  376  15.283   7.173  10.294  0.0174  0.2364 -0.1745
   24loPI   C3A  377  15.391   7.024   9.954 -0.0981  0.0341 -0.1303
   24loPI   C4A  378  15.405   6.929   9.505 -0.0427  0.0513  0.0747
   24loPI   C5A  379  15.351   6.991   9.188  0.2380  0.0941 -0.0249
   24loPI   C6A  380  15.366   6.730   8.821 -0.0756 -0.1747  0.1400
   24loPI   C1B  381  15.397   7.628  10.451 -0.2440  0.0436  0.2950
   24loPI   C2B  382  15.418   7.537   9.974 -0.0584 -0.4278  0.1726
   24loPI   C3B  383  15.345   7.535   9.588 -0.3053  0.1755  0.0093
   24loPI   C4B  384  15.348   7.477   9.229  0.0451  0.1544 -0.0411
   25loPI    C1  385  11.519   2.952  10.780  0.1186  0.0828  0.1561
   25loPI    C2  386  11.293   2.918  11.108  0.2348  0.1983  0.2491
   25loPI    C3  387  11.687   2.978  11.142  0.2721  0.0523  0.0878
   25loPI   PO4  388  11.563   2.697  10.633  0.0171 -0.2456  0.0894
   25loPI   GL1  389  11.348   2.497  10.330 -0.2671 -0.1034  0.1495
   25loPI   GL2  390  11.013   2.537  10.145 -0.1563 -0.1917 -0.2975
   25loPI   C1A  391  11.479   2.352   9.964 -0.3088 -0.1386 -0.2761
   25loPI   C2A  392  11.511   2.316   9.451  0.0343  0.0535 -0.0447
   25loPI   C3A  393  11.475   2.291   9.055  0.0533  0.0486  0.0257
   25loPI   C4A  394  11.237   2.491   8.677 -0.1646  0.2848 -0.0150
   25loPI   C5A  395  11.023   2.245   8.326 -0.0993 -0.0002 -0.2438
   25loPI   C6A  396  10.755   2.122   8.026 -0.2390  0.1747 -0.0015
   25loPI   C1B  397  11.017   2.600   9.779 -0.0198 -0.2544 -0.1281
   25loPI   C2B  398  11.031   2.663   9.310  0.2278  0.1746  0.1515
   25loPI   C3B  399  10.839   2.865   8.805 -0.2964  0.0734 -0.3786
   25loPI   C4B  400  11.106   3.024   8.374  0.1208 -0.0979 -0.2277
   26loPI    C1  401   8.725  15.448  11.447  0.0276 -0.3434 -0.0462
   26loPI    C2  402   8.546  15.690  11.710  0.1036 -0.1679 -0.1540
   26loPI    C3  403   8.779  15.392  11.840  0.1205 -0.0982 -0.0222
   26loPI   PO4  404   8.547  15.391  11.270 -0.0739  0.0988  0.0488
   26loPI   GL1  405   8.592  15.137  10.878 -0.1076  0.0406 -0.0870
   26loPI   GL2  406   8.873  15.243  10.913  0.4836 -0.0821  0.0222
   26loPI   C1A  407   8.392  15.177  10.553  0.1851 -0.0328  0.0770
   26loPI   C2A  408   8.584  15.227  10.161 -0.0890  0.1146  0.0499
   26loPI   C3A  409   8.555  15.289   9.749 -0.1932 -0.0301  0.1082
   26loPI   C4A  410   8.565  15.527   9.345  0.1960 -0.1388  0.0713
   26loPI   C5A  411   8.669  15.341   8.999 -0.0833 -0.1525 -0.0081
   26loPI   C6A  412   9.069  15.317   8.713  0.1126  0.0469 -0.1043
   26loPI   C1B  413   8.983  15.023  10.477 -0.1290  0.1279 -0.0468
   26loPI   C2B  414   9.066  15.056  10.052 -0.1215 -0.1197  0.2708
   26loPI   C3B  415   9.098  15.211   9.660  0.0319 -0.0530 -0.1259
   26loPI   C4B  416   9.090  15.340   9.224  0.1198  0.1282  0.1979
   27loPI    C1  417  15.581   8.229  11.420  0.2994 -0.0162 -0.1679
   27loPI    C2  418  15.500   8.424  11.760  0.0433 -0.1209 -0.1666
   27loPI    C3  419  15.490   8.024  11.752 -0.0827 -0.1159 -0.3279
   27loPI   PO4  420  15.748   8.315  11.345 -0.0521  0.1217  0.0286
   27loPI   GL1  421  15.997   8.225  11.033 -0.1767 -0.2481 -0.1321
   27loPI   GL2  422  15.789   7.895  10.941 -0.1929  0.3764 -0.4160
   27loPI   C1A  423  16.204   8.171  10.644  0.2275 -0.0025 -0.1504
   27loPI   C2A  424  16.267   8.299  10.322  0.1484  0.0646 -0.0873
   27loPI   C3A  425  16.196   8.171  10.021  0.0175 -0.1042  0.2919
   27loPI   C4A  426  16.245   8.260   9.575  0.1959  0.1690 -0.1381
   27loPI   C5A  427  16.185   8.153   9.173 -0.0604 -0.1145 -0.2652
   27loPI   C6A  428  16.287   8.423   8.734  0.0962 -0.1302 -0.0609
   27loPI   C1B  429  15.827   7.893  10.521 -0.0634 -0.2704  0.3030
   27loPI   C2B  430  15.819   7.810  10.099 -0.3511 -0.0322  0.3657
   27loPI   C3B  431  15.721   7.894   9.795  0.2902 -0.0019  0.0305
   27loPI   C4B  432  15.826   7.970   9.429  0.3757 -0.0320 -0.0432
   28loPI    C1  433  11.593   7.634  11.458  0.0581 -0.0241 -0.4096
   28loPI    C2  434  11.255   7.424  11.497  0.0777  0.0304  0.1355
   28loPI    C3  435  11.609   7.244  11.543  0.1353 -0.0409 -0.5000
   28loPI   PO4  436  11.556   7.801  11.148  0.2908  0.1768  0.1791
   28loPI   GL1  437  11.426   7.737  10.735 -0.1768  0.0941  0.0336
   28loPI   GL2  438  11.192   7.540  10.604  0.1241  0.0612  0.0153
   28loPI   C1A  439  11.566   8.042  10.460 -0.1780  0.1769 -0.4315
   28loPI   C2A  440  11.466   8.140  10.011  0.1144  0.0119  0.1736
   28loPI   C3A  441  11.253   8.100   9.567 -0.1184  0.0345  0.4410
   28loPI   C4A  442  11.177   8.317   9.251 -0.1403 -0.2367  0.0700
   28loPI   C5A  443  11.320   8.638   9.197  0.2121 -0.0877  0.1479
   28loPI   C6A  444  11.300   8.919   8.864  0.0443 -0.2551 -0.0091
   28loPI   C1B  445  11.395   7.584  10.233  0.0828  0.0430  0.0890
   28loPI   C2B  446  11.462   7.592   9.779 -0.1425  0.1660  0.0095
   28loPI   C3B  447  11.409   7.568   9.300 -0.2462  0.2036  0.2268
   28loPI   C4B  448  11.267   7.862   9.010  0.1760  0.2201 -0.0423
   29loPI    C1  449  14.700   8.256  11.569  0.4759 -0.1599 -0.1472
   29loPI    C2  450  14.522   8.083  11.256  0.1037 -0.1840  0.0714
   29loPI    C3  451  14.505   7.911  11.616  0.0103  0.1414  0.2260
   29loPI   PO4  452  15.005   8.306  11.494  0.0371  0.0832  0.1004
   29loPI   GL1  453  15.011   8.374  11.072  0.2166 -0.0139 -0.1859
   29loPI   GL2  454  15.366   8.246  10.932  0.0253  0.2718 -0.2552
   29loPI   C1A  455  14.720   8.405  10.822 -0.1018  0.1213 -0.0902
   29loPI   C2A  456  14.922   8.300  10.431  0.0158  0.1793  0.1853
   29loPI   C3A  457  14.883   8.236   9.994 -0.0406  0.1229 -0.1203
   29loPI   C4A  458  14.823   8.215   9.573  0.1494  0.0544  0.0098
   29loPI   C5A  459  14.761   8.073   9.098 -0.0632  0.3115  0.1701
   29loPI   C6A  460  14.479   8.131   8.780 -0.1572 -0.0573  0.0012
   29loPI   C1B  461  15.352   8.089  10.540  0.2618  0.0787 -0.0808
   29loPI   C2B  462  15.398   8.056  10.141 -0.2662  0.2227  0.1408
   29loPI   C3B  463  15.308   8.125   9.764  0.0631  0.1083  0.2107
   29loPI   C4B  464  15.285   7.951   9.286 -0.2136  0.0762  0.2143
   30loPI    C1  465   2.064  16.231  12.009 -0.1968 -0.0972  0.0052
   30loPI    C2  466   2.132  15.854  11.892 -0.0305 -0.0459 -0.0677
   30loPI    C3  467   2.226  15.969  12.264  0.0677 -0.0349 -0.0958
   30loPI   PO4  468   1.784  16.281  11.847 -0.1251  0.1041 -0.0531
   30loPI   GL1  469   1.730  16.417  11.391  0.3487  0.0285  0.2986
   30loPI   GL2  470   1.589  16.686  11.318 -0.0262 -0.0097 -0.1195
   30loPI   C1A  471   1.823  16.497  10.907 -0.2193 -0.0825  0.1388
   30loPI   C2A  472   1.694  16.460  10.483 -0.0380 -0.1118 -0.2765
   30loPI   C3A  473   1.722  16.508  10.055 -0.0761  0.2411  0.1884
   30loPI   C4A  474   1.590  16.589   9.577  0.0388 -0.2593 -0.2303
   30loPI   C5A  475   1.676  16.836   9.150 -0.1088 -0.1486 -0.2233
   30loPI   C6A  476   1.808  16.921   8.621  0.2266 -0.0855  0.2235
   30loPI   C1B  477   1.637  17.000  11.037 -0.3577  0.3807 -0.1669
   30loPI   C2B  478   1.703  16.980  10.647 -0.0072 -0.0494  0.1069
   30loPI   C3B  479   1.560  17.020  10.151 -0.2146 -0.2787 -0.0041
   30loPI   C4B  480   1.688  17.049   9.736  0.2554 -0.1458 -0.2826
   31loPI    C1  481   3.346  14.995  11.950 -0.1413  0.2025  0.1357
   31loPI    C2  482   3.422  15.060  12.338 -0.2443  0.0164  0.1884
   31loPI    C3  483   3.102  14.846  12.230 -0.1168 -0.0861  0.0067
   31loPI   PO4  484   3.538  15.198  11.838 -0.1393 -0.0233  0.1855
   31loPI   GL1  485   3.747  15.287  11.407 -0.1201 -0.2395  0.0505
   31loPI   GL2  486   3.802  15.617  11.372  0.0152  0.2843 -0.0205
   31loPI   C1A  487   3.831  15.082  10.924  0.1381  0.1124  0.0159
   31loPI   C2A  488   3.773  15.072  10.480 -0.3709  0.0789 -0.0127
   31loPI   C3A  489   3.677  15.131  10.083  0.0016 -0.0866  0.3583
   31loPI   C4A  490   3.687  15.029   9.655 -0.1628  0.0280 -0.1610
   31loPI   C5A  491   3.592  14.860   9.342 -0.2914 -0.1246  0.1636
   31loPI   C6A  492   3.266  14.525   9.350  0.2428  0.0632 -0.3254
   31loPI   C1B  493   3.796  15.668  10.978 -0.2948  0.3100 -0.0401
   31loPI   C2B  494   3.713  15.664  10.600  0.1056  0.0749 -0.0602
   31loPI   C3B  495   3.569  15.632  10.204  0.1305 -0.2159 -0.0859
   31loPI   C4B  496   3.511  15.652   9.767 -0.0981 -0.0674  0.0184
   32loPI    C1  497   3.830   8.335  11.806  0.0602  0.0881 -0.1805
   32loPI    C2  498   3.765   8.629  12.069  0.1702  0.0039 -0.0578
   32loPI    C3  499   3.558   8.288  12.096  0.0727  0.0528 -0.1744
   32loPI   PO4  500   3.829   8.478  11.540  0.1222 -0.0045 -0.0600
   32loPI   GL1  501   3.722   8.675  11.123  0.0591 -0.0164  0.0182
   32loPI   GL2  502   3.413   8.604  11.281 -0.2064 -0.1968 -0.0192
   32loPI   C1A  503   3.549   8.691  10.779  0.0348 -0.2284  0.0770
   32loPI   C2A  504   3.473   8.644  10.338  0.2319  0.0584  0.0270
   32loPI   C3A  505   3.487   8.859  10.004  0.0590  0.2057  0.2661
   32loPI   C4A  506   3.478   8.856   9.550 -0.2559  0.2559  0.0700
   32loPI   C5A  507   3.135   8.885   9.231  0.2602  0.1325  0.2917
   32loPI   C6A  508   2.781   8.997   9.012  0.0193  0.1948  0.0163
   32loPI   C1B  509   3.056   8.755  11.060  0.4003 -0.0743  0.0490
   32loPI   C2B  510   3.062   8.806  10.632 -0.3190 -0.1448 -0.0214
   32loPI   C3B  511   2.997   8.978  10.164  0.0025  0.0961 -0.0587
   32loPI   C4B  512   3.090   9.071   9.727  0.2055  0.3143 -0.1406
   33loPI    C1  513   2.860   8.052  11.866  0.0271 -0.0256  0.1745
   33loPI    C2  514   3.076   8.245  12.142  0.2299 -0.2293  0.1611
   33loPI    C3  515   2.834   7.944  12.250  0.1015 -0.1308  0.1505
   33loPI   PO4  516   2.663   8.217  11.639 -0.3165  0.2198  0.1720
   33loPI   GL1  517   2.981   8.242  11.273  0.1126 -0.1598  0.1165
   33loPI   GL2  518   2.717   8.409  11.183  0.3443  0.0267 -0.0499
   33loPI   C1A  519   3.138   8.320  10.817 -0.3039 -0.1387  0.1366
   33loPI   C2A  520   3.107   8.290  10.403 -0.0133 -0.3132 -0.0098
   33loPI   C3A  521   3.109   8.509  10.033  0.0657 -0.0440 -0.1056
   33loPI   C4A  522   3.043   8.485   9.540 -0.0962  0.0322  0.1967
   33loPI   C5A  523   2.749   8.301   9.307  0.0325 -0.0620 -0.1710
   33loPI   C6A  524   2.856   7.964   9.095 -0.1655 -0.0570  0.1900
   33loPI   C1B  525   2.604   8.585  10.817 -0.1416 -0.2173  0.1579
   33loPI   C2B  526   2.604   8.611  10.323 -0.0417 -0.1548  0.4103
   33loPI   C3B  527   2.660   8.649   9.913  0.2108  0.4607 -0.0684
   33loPI   C4B  528   2.669   8.810   9.476  0.1356 -0.1732  0.1371
   34loPI    C1  529  11.998  16.094  11.301 -0.0927 -0.1870  0.0742
   34loPI    C2  530  11.683  16.062  11.545  0.1184 -0.2233  0.3466
   34loPI    C3  531  11.737  15.795  11.252 -0.3344  0.0294  0.0210
   34loPI   PO4  532  11.982  16.333  11.179  0.1333  0.0948 -0.2289
   34loPI   GL1  533  12.024  16.558  10.881  0.2410  0.1274  0.4151
   34loPI   GL2  534  12.309  16.651  11.000 -0.0767 -0.1088 -0.1250
   34loPI   C1A  535  12.121  16.767  10.476  0.1305 -0.0943  0.1515
   34loPI   C2A  536  12.126  16.683   9.983  0.1278  0.2676 -0.2357
   34loPI   C3A  537  12.090  16.553   9.565 -0.1171  0.1113  0.1717
   34loPI   C4A  538  12.082  16.510   9.164 -0.0726  0.0529  0.2108
   34loPI   C5A  539  12.051  16.706   8.808 -0.2579 -0.0292 -0.2607
   34loPI   C6A  540  12.224  17.110   8.490  0.0694  0.2769 -0.1818
   34loPI   C1B  541  12.506  16.416  10.619 -0.2375  0.0418  0.0138
   34loPI   C2B  542  12.613  16.306  10.192  0.1247 -0.0092 -0.0578
   34loPI   C3B  543  12.668  16.246   9.773 -0.1179  0.1046 -0.0497
   34loPI   C4B  544  12.504  16.229   9.386 -0.3674  0.1172  0.2339
   35loPI    C1  545   2.400  11.618  11.967  0.1343 -0.1579 -0.0526
   35loPI    C2  546   2.421  11.622  12.367 -0.0666 -0.1506 -0.0413
   35loPI    C3  547   2.561  11.308  12.163 -0.0652 -0.2038  0.0409
   35loPI   PO4  548   2.523  11.771  11.892  0.0380  0.2658  0.0881
   35loPI   GL1  549   2.447  12.014  11.492 -0.0164 -0.0513 -0.0128
   35loPI   GL2  550   2.638  11.921  11.371  0.0617  0.1711  0.1195
   35loPI   C1A  551   2.298  12.127  11.060  0.1436 -0.2808  0.0141
   35loPI   C2A  552   2.130  12.156  10.631 -0.1213  0.0968 -0.2405
   35loPI   C3A  553   2.062  12.174  10.170 -0.2142 -0.1664 -0.0542
   35loPI   C4A  554   2.268  12.251   9.774 -0.2269  0.0158  0.1294
   35loPI   C5A  555   2.492  12.655   9.508  0.1081 -0.0894 -0.1622
   35loPI   C6A  556   2.535  12.761   9.121 -0.5258  0.0748 -0.2004
   35loPI   C1B  557   2.775  12.003  10.964 -0.2780  0.0035 -0.6131
   35loPI   C2B  558   2.616  12.009  10.552 -0.0158  0.2937  0.2493
   35loPI   C3B  559   2.672  12.075  10.091 -0.0327  0.2831 -0.1777
   35loPI   C4B  560   2.810  12.214   9.715  0.0046  0.0296 -0.2233
   36loPI    C1  561  12.528  15.369  11.655  0.0507 -0.0853 -0.1194
   36loPI    C2  562  12.640  15.579  11.977  0.0837 -0.1778 -0.0703
   36loPI    C3  563  12.307  15.357  11.988  0.0637 -0.1501 -0.1129
   36loPI   PO4  564  12.664  15.593  11.376  0.0321  0.1632 -0.0381
   36loPI   GL1  565  12.745  15.636  10.922  0.2669  0.0712  0.2848
   36loPI   GL2  566  12.597  15.477  10.662  0.1928 -0.0788  0.1778
   36loPI   C1A  567  13.068  15.552  10.628  0.0083  0.3861  0.2679
   36loPI   C2A  568  13.123  15.535  10.194 -0.1435  0.2233 -0.2538
   36loPI   C3A  569  13.231  15.556   9.799  0.0494  0.2370 -0.0647
   36loPI   C4A  570  13.187  15.559   9.439 -0.1379 -0.1319  0.0630
   36loPI   C5A  571  13.348  15.837   9.020  0.1480 -0.1336  0.0332
   36loPI   C6A  572  13.486  16.125   8.683  0.2214 -0.0856 -0.1013
   36loPI   C1B  573  12.634  15.260  10.271  0.1098 -0.1748  0.3133
   36loPI   C2B  574  12.764  15.290   9.921  0.0548  0.1244 -0.0762
   36loPI   C3B  575  12.703  15.226   9.450 -0.1299 -0.1252 -0.4324
   36loPI   C4B  576  12.937  15.193   9.025 -0.1439 -0.1495  0.0134
   37loPI    C1  577   9.751   0.957  11.014 -0.1812 -0.0220 -0.2427
   37loPI    C2  578   9.780   1.302  10.814  0.0147  0.0929 -0.0212
   37loPI    C3  579   9.656   1.301  11.194 -0.0107 -0.0845 -0.0291
   37loPI   PO4  580   9.691   0.785  10.826  0.0151 -0.0213  0.1378
   37loPI   GL1  581   9.649   0.484  10.533  0.0288 -0.1619 -0.2809
   37loPI   GL2  582   9.417   0.367  10.384 -0.0840  0.0898 -0.0662
   37loPI   C1A  583   9.877   0.398  10.145 -0.2845  0.1436 -0.1159
   37loPI   C2A  584   9.975   0.530   9.691  0.0152  0.2782  0.0735
   37loPI   C3A  585  10.158   0.259   9.353  0.2087  0.1356 -0.1197
   37loPI   C4A  586   9.937   0.165   9.101  0.2742  0.1251 -0.1772
   37loPI   C5A  587   9.744   0.129   8.705 -0.0569 -0.0247 -0.0596
   37loPI   C6A  588   9.931   0.378   8.426 -0.2409  0.1476  0.0663
   37loPI   C1B  589   9.377   0.352   9.870 -0.0699 -0.1390  0.2713
   37loPI   C2B  590   9.531   0.380   9.425  0.0645 -0.1726 -0.4511
   37loPI   C3B  591   9.850   0.626   9.192  0.0704  0.0182  0.4700
   37loPI   C4B  592   9.854   0.780   8.746 -0.0097 -0.0019  0.1902
   38loPI    C1  593   5.587   1.070  11.865  0.1312 -0.0317  0.0697
   38loPI    C2  594   5.813   0.741  11.878 -0.1641 -0.2404  0.0245
   38loPI    C3  595   5.669   0.897  12.216  0.0456 -0.1060  0.0535
   38loPI   PO4  596   5.693   1.236  11.716 -0.0236 -0.2340 -0.1262
   38loPI   GL1  597   5.830   1.348  11.242 -0.0321 -0.3980  0.1881
   38loPI   GL2  598   5.521   1.187  11.177  0.1281 -0.0015 -0.1417
   38loPI   C1A  599   6.034   1.425  10.820 -0.0530  0.4054 -0.0269
   38loPI   C2A  600   5.945   1.417  10.415  0.1201 -0.0604  0.1499
   38loPI   C3A  601   5.958   1.492   9.984 -0.1056  0.2091 -0.2845
   38loPI   C4A  602   5.864   1.587   9.497 -0.0069 -0.2250 -0.1125
   38loPI   C5A  603   5.928   1.765   9.150 -0.0631  0.0283  0.1607
   38loPI   C6A  604   5.935   2.145   9.008 -0.1013 -0.2831 -0.4280
   38loPI   C1B  605   5.543   1.194  10.695  0.2207 -0.3032 -0.1971
   38loPI   C2B  606   5.569   1.094  10.257 -0.0859 -0.1449  0.0961
   38loPI   C3B  607   5.532   1.210   9.829  0.1243  0.0367  0.2042
   38loPI   C4B  608   5.464   1.250   9.423  0.3144 -0.4045  0.0030
   39loPI    C1  609  16.478   0.922  11.928  0.1313  0.2454  0.0121
   39loPI    C2  610  16.641   0.764  12.257 -0.0918  0.0695  0.0405
   39loPI    C3  611  16.261   0.890  12.262 -0.0467  0.2148 -0.1048
   39loPI   PO4  612  16.681   0.710  11.692 -0.1021 -0.1473  0.0293
   39loPI   GL1  613  17.045   0.475  11.442  0.0630 -0.2534  0.1747
   39loPI   GL2  614  17.322   0.646  11.227  0.2057 -0.2405  0.1634
   39loPI   C1A  615  16.776   0.330  11.041 -0.1025 -0.0379  0.2828
   39loPI   C2A  616  16.833   0.075  10.628 -0.1238  0.0443  0.1778
   39loPI   C3A  617  16.971   0.205  10.185 -0.0377  0.0341  0.0974
   39loPI   C4A  618  17.022   0.166   9.799  0.1479  0.4762 -0.1854
   39loPI   C5A  619  17.124  -0.141   9.532 -0.1373 -0.0662  0.0831
   39loPI   C6A  620  17.021  -0.528   9.499  0.0118 -0.3867 -0.0584
   39loPI   C1B  621  17.154   0.472  10.779 -0.0176  0.1038 -0.3222
   39loPI   C2B  622  17.347   0.447  10.421 -0.3024 -0.0144  0.0788
   39loPI   C3B  623  17.387   0.577  10.007 -0.0045 -0.1519  0.4404
   39loPI   C4B  624  17.407   0.381   9.600  0.0631  0.0296 -0.1729
   40loPI    C1  625  12.776   7.896  11.062  0.2068 -0.0824  0.1654
   40loPI    C2  626  12.834   8.088  11.409  0.0852  0.0004  0.1404
   40loPI    C3  627  12.541   7.816  11.376  0.1200 -0.0338  0.1133
   40loPI   PO4  628  12.972   7.976  10.958 -0.3018  0.3260 -0.0561
   40loPI   GL1  629  13.055   8.119  10.567  0.3395 -0.0451 -0.1738
   40loPI   GL2  630  13.382   8.258  10.708 -0.1215  0.0069  0.2791
   40loPI   C1A  631  13.119   8.185  10.132 -0.1084 -0.2274  0.2700
   40loPI   C2A  632  13.159   8.048   9.670 -0.0957 -0.3360  0.1924
   40loPI   C3A  633  13.266   7.956   9.285  0.5734 -0.0869 -0.2337
   40loPI   C4A  634  13.539   7.667   9.055  0.0262 -0.5441  0.2062
   40loPI   C5A  635  13.931   7.529   8.845 -0.2003  0.2984 -0.0953
   40loPI   C6A  636  14.346   7.698   8.968  0.0706  0.0273  0.2252
   40loPI   C1B  637  13.534   7.951  10.322 -0.0189  0.3048 -0.3644
   40loPI   C2B  638  13.599   7.885   9.910 -0.1192 -0.0082  0.5157
   40loPI   C3B  639  13.717   7.967   9.414 -0.1000 -0.3444 -0.0526
   40loPI   C4B  640  13.957   8.011   9.137  0.0841  0.1481 -0.0298
   41loPI    C1  641   9.239  15.370  11.498  0.2646 -0.1015 -0.0480
   41loPI    C2  642   9.192  15.087  11.776  0.2362 -0.1085 -0.0600
   41loPI    C3  643   9.320  15.451  11.881  0.0737 -0.0639 -0.0146
   41loPI   PO4  644   9.337  15.246  11.298  0.0092 -0.3018 -0.0524
   41loPI   GL1  645   9.394  15.353  10.927 -0.3871  0.4049  0.0336
   41loPI   GL2  646   9.221  15.543  10.702  0.0792 -0.0137 -0.2063
   41loPI   C1A  647   9.510  15.088  10.603  0.1304 -0.3892  0.1927
   41loPI   C2A  648   9.637  15.106  10.218 -0.2716  0.1230 -0.4876
   41loPI   C3A  649   9.638  15.203   9.775  0.0582  0.0550  0.1599
   41loPI   C4A  650   9.573  15.218   9.300 -0.1349  0.0177  0.1495
   41loPI   C5A  651   9.368  14.943   8.936 -0.0935  0.1733  0.1320
   41loPI   C6A  652   9.313  14.667   8.539  0.0713  0.1837  0.3286
   41loPI   C1B  653   9.283  15.471  10.350  0.1120 -0.3479 -0.1582
   41loPI   C2B  654   9.359  15.579   9.931 -0.2785 -0.2155  0.0169
   41loPI   C3B  655   9.472  15.665   9.581  0.0608 -0.0518 -0.0103
   41loPI   C4B  656   9.721  15.837   9.262  0.0092 -0.0103 -0.0724
   42loPI    C1  657   9.582  12.639  11.524  0.0293  0.0324  0.1111
   42loPI    C2  658   9.341  12.957  11.547 -0.0698 -0.0499  0.2217
   42loPI    C3  659   9.736  13.003  11.588 -0.0504  0.1055 -0.1038
   42loPI   PO4  660   9.525  12.424  11.366 -0.1866  0.1306 -0.0847
   42loPI   GL1  661   9.760  12.191  11.041  0.1158 -0.0412 -0.1468
   42loPI   GL2  662   9.562  11.934  11.184  0.4135 -0.1136  0.0278
   42loPI   C1A  663   9.837  12.244  10.631 -0.1388 -0.0290  0.0736
   42loPI   C2A  664   9.858  12.229  10.195 -0.2997 -0.1954 -0.1053
   42loPI   C3A  665   9.898  12.263   9.778 -0.1988 -0.1757  0.0237
   42loPI   C4A  666   9.942  12.467   9.315  0.3174  0.1840  0.0893
   42loPI   C5A  667   9.617  12.446   8.981 -0.0167  0.1662  0.1751
   42loPI   C6A  668   9.211  12.187   9.079  0.0123 -0.1415  0.2169
   42loPI   C1B  669   9.523  11.907  10.768  0.0884  0.2329  0.0285
   42loPI   C2B  670   9.485  11.908  10.284  0.2660  0.0273  0.0674
   42loPI   C3B  671   9.457  11.954   9.868  0.0347 -0.0620  0.0270
   42loPI   C4B  672   9.501  11.990   9.480 -0.2867 -0.1257 -0.0143
   43loPI    C1  673  14.233   5.339  11.243  0.0989 -0.1672  0.1307
   43loPI    C2  674  14.056   5.576  10.974  0.1063 -0.2913  0.0153
   43loPI    C3  675  14.277   5.736  11.267 -0.1115 -0.1413  0.1005
   43loPI   PO4  676  14.351   5.131  11.092 -0.2023  0.1294 -0.2883
   43loPI   GL1  677  14.436   5.194  10.666  0.1277  0.2578  0.0456
   43loPI   GL2  678  14.160   5.436  10.511 -0.2292  0.3504 -0.1700
   43loPI   C1A  679  14.617   5.196  10.292  0.1522  0.1858  0.0763
   43loPI   C2A  680  14.799   5.215   9.846 -0.0651  0.1224 -0.2720
   43loPI   C3A  681  14.682   5.336   9.381  0.1041  0.2099 -0.2770
   43loPI   C4A  682  14.600   5.361   9.053 -0.1952 -0.2672  0.2448
   43loPI   C5A  683  14.628   5.490   8.605 -0.1429  0.0096 -0.1578
   43loPI   C6A  684  14.383   5.482   8.248  0.1216  0.0111  0.0469
   43loPI   C1B  685  14.222   5.425  10.137 -0.0401 -0.0005 -0.0455
   43loPI   C2B  686  14.240   5.418   9.731  0.3311  0.0933  0.2358
   43loPI   C3B  687  14.273   5.592   9.363  0.1346 -0.3563  0.3599
   43loPI   C4B  688  14.334   5.781   8.958  0.0317  0.1108  0.0406
   44loPI    C1  689  14.873  16.223  11.726 -0.2337  0.0343 -0.1761
   44loPI    C2  690  14.507  16.164  11.876 -0.0320 -0.2264  0.2334
   44loPI    C3  691  14.821  15.974  12.035  0.2937  0.0439 -0.0695
   44loPI   PO4  692  14.936  16.180  11.444 -0.0404  0.0209  0.1481
   44loPI   GL1  693  15.198  16.259  11.068 -0.1409 -0.0504  0.0487
   44loPI   GL2  694  14.859  16.224  10.907 -0.1733  0.1450 -0.1047
   44loPI   C1A  695  15.225  16.307  10.637  0.3335  0.1376 -0.3914
   44loPI   C2A  696  15.342  16.198  10.268 -0.2731 -0.0091 -0.2724
   44loPI   C3A  697  15.374  16.050   9.839 -0.0314 -0.0665  0.2660
   44loPI   C4A  698  15.432  16.058   9.364  0.0643  0.0499  0.1139
   44loPI   C5A  699  15.380  16.395   9.067 -0.1879  0.0486  0.0592
   44loPI   C6A  700  15.446  16.916   9.051  0.1605  0.0246 -0.0643
   44loPI   C1B  701  14.756  16.367  10.460 -0.1386  0.0886  0.4441
   44loPI   C2B  702  14.900  16.275  10.039  0.4569  0.2842  0.0213
   44loPI   C3B  703  14.924  16.249   9.660 -0.1534  0.0325  0.1848
   44loPI   C4B  704  14.925  16.614   9.399  0.0517 -0.1276 -0.0564
   45loPI    C1  705   3.309   6.187  11.783 -0.1776 -0.1850  0.1313
   45loPI    C2  706   3.690   6.159  11.903 -0.1315 -0.0424  0.0223
   45loPI    C3  707   3.393   6.079  12.159 -0.0324  0.0914  0.1809
   45loPI   PO4  708   3.324   6.013  11.576 -0.1989 -0.0583 -0.1919
   45loPI   GL1  709   3.182   5.942  11.165  0.0161  0.2492  0.0860
   45loPI   GL2  710   3.385   6.161  11.011  0.0372  0.3510  0.0249
   45loPI   C1A  711   3.232   5.721  10.825  0.1643  0.2241  0.1518
   45loPI   C2A  712   3.298   5.650  10.469 -0.1092  0.1390  0.1346
   45loPI   C3A  713   3.248   5.650  10.080 -0.1067  0.0970  0.0612
   45loPI   C4A  714   3.401   5.726   9.707  0.1752 -0.2485  0.1447
   45loPI   C5A  715   3.420   5.940   9.337 -0.1078  0.0844  0.3184
   45loPI   C6A  716   3.226   6.036   9.029  0.1682 -0.1291  0.0859
   45loPI   C1B  717   3.313   6.160  10.580 -0.1503 -0.3829 -0.3065
   45loPI   C2B  718   3.192   6.119  10.167 -0.0591  0.0919  0.2059
   45loPI   C3B  719   3.282   6.213   9.724 -0.0678  0.1619 -0.0079
   45loPI   C4B  720   3.261   6.509   9.406  0.1884  0.2455 -0.2840
   46loPI    C1  721   4.439  14.128  11.829 -0.2304  0.1647  0.0153
   46loPI    C2  722   4.657  13.940  12.107 -0.1343  0.0779 -0.1177
   46loPI    C3  723   4.679  14.338  12.071  0.0339  0.0657 -0.1571
   46loPI   PO4  724   4.491  14.038  11.645  0.2547  0.0474  0.1825
   46loPI   GL1  725   4.504  13.960  11.199 -0.0186  0.2059 -0.4654
   46loPI   GL2  726   4.260  13.937  11.083  0.0322 -0.1473 -0.0357
   46loPI   C1A  727   4.740  14.164  10.875  0.2570 -0.0791  0.0427
   46loPI   C2A  728   4.704  14.270  10.460  0.1229  0.0126 -0.1114
   46loPI   C3A  729   4.797  14.175   9.973  0.0225 -0.2341  0.2369
   46loPI   C4A  730   4.668  14.229   9.608 -0.3823  0.1679 -0.2388
   46loPI   C5A  731   4.341  14.228   9.258 -0.0390 -0.1879 -0.0572
   46loPI   C6A  732   4.017  13.937   9.000 -0.1544  0.0204 -0.2096
   46loPI   C1B  733   4.288  13.943  10.648 -0.1230 -0.0273 -0.2982
   46loPI   C2B  734   4.390  13.910  10.282 -0.0228 -0.3146 -0.2986
   46loPI   C3B  735   4.423  13.836   9.893  0.2876 -0.2225 -0.0261
   46loPI   C4B  736   4.380  13.729   9.430  0.0136  0.1177 -0.1816
   47loPI    C1  737   1.581   3.484  12.021  0.0306  0.2806 -0.0554
   47loPI    C2  738   1.791   3.534  12.357 -0.0956  0.1967  0.0369
   47loPI    C3  739   1.448   3.732  12.305 -0.2741 -0.0827  0.1282
   47loPI   PO4  740   1.735   3.525  11.838 -0.0028  0.2188  0.0871
   47loPI   GL1  741   1.777   3.425  11.410 -0.3980 -0.2363 -0.3300
   47loPI   GL2  742   2.017   3.184  11.325  0.5305 -0.1130 -0.1593
   47loPI   C1A  743   1.940   3.648  11.087 -0.1906  0.0142 -0.1065
   47loPI   C2A  744   1.999   3.569  10.587  0.3820 -0.3984 -0.4060
   47loPI   C3A  745   2.099   3.608  10.101 -0.1054  0.1544  0.1179
   47loPI   C4A  746   2.050   3.772   9.813  0.2177 -0.1687  0.2544
   47loPI   C5A  747   2.237   3.811   9.452  0.2100  0.3034  0.2332
   47loPI   C6A  748   2.324   4.087   9.117 -0.3004 -0.3497 -0.0159
   47loPI   C1B  749   2.165   3.176  10.884 -0.0595 -0.0252  0.0540
   47loPI   C2B  750   2.146   3.119  10.406  0.0349 -0.0475  0.0908
   47loPI   C3B  751   2.100   3.036   9.882  0.1979  0.0570 -0.1014
   47loPI   C4B  752   2.099   3.344   9.530 -0.0688 -0.0692 -0.0112
   48loPI    C1  753   4.303   9.956  11.778 -0.0224  0.2504  0.0349
   48loPI    C2  754   4.566  10.153  12.005  0.3722 -0.0515 -0.1482
   48loPI    C3  755   4.636   9.773  11.903 -0.1127 -0.1198 -0.2488
   48loPI   PO4  756   4.115  10.168  11.784 -0.2971  0.0895  0.3158
   48loPI   GL1  757   4.252  10.409  11.424 -0.1405 -0.0693  0.2087
   48loPI   GL2  758   4.278  10.672  11.451  0.1988 -0.2074  0.1570
   48loPI   C1A  759   4.335  10.224  10.989  0.1151 -0.1141 -0.1554
   48loPI   C2A  760   4.225  10.303  10.556  0.0765  0.0183 -0.2550
   48loPI   C3A  761   4.190  10.396  10.115 -0.3040  0.2162 -0.3545
   48loPI   C4A  762   4.135  10.481   9.711  0.0909 -0.1739 -0.0714
   48loPI   C5A  763   4.126  10.276   9.337 -0.2224  0.0322 -0.3077
   48loPI   C6A  764   4.393  10.445   9.094 -0.1897  0.0157  0.1893
   48loPI   C1B  765   4.298  10.808  11.030 -0.2330  0.1121  0.2761
   48loPI   C2B  766   4.275  10.965  10.543 -0.0764  0.1565  0.1273
   48loPI   C3B  767   4.180  10.923  10.121 -0.0034  0.2360 -0.0444
   48loPI   C4B  768   4.149  11.005   9.846 -0.1732  0.1364  0.0242
   49loPI    C1  769   5.849   7.890  11.725 -0.0067  0.1845 -0.1342
   49loPI    C2  770   6.060   8.200  11.863  0.1496  0.0197  0.0028
   49loPI    C3  771   5.690   8.135  11.999  0.1936  0.0274  0.1278
   49loPI   PO4  772   5.973   7.892  11.448  0.2401 -0.2065  0.0784
   49loPI   GL1  773   6.208   7.990  11.166 -0.0617 -0.0390 -0.2335
   49loPI   GL2  774   6.475   8.161  10.979  0.0110 -0.1653  0.0526
   49loPI   C1A  775   6.038   8.024  10.789 -0.0062  0.0336  0.0101
   49loPI   C2A  776   5.891   8.179  10.404 -0.3570  0.2870  0.0114
   49loPI   C3A  777   5.916   8.022  10.050  0.3448 -0.2073  0.1020
   49loPI   C4A  778   5.762   8.223   9.676 -0.0083  0.0275 -0.3251
   49loPI   C5A  779   5.774   8.120   9.255 -0.2334  0.0231 -0.4018
   49loPI   C6A  780   5.939   7.965   8.821  0.1355 -0.1444  0.0647
   49loPI   C1B  781   6.374   8.366  10.662 -0.5236 -0.1604  0.0317
   49loPI   C2B  782   6.336   8.415  10.236  0.0464  0.2847  0.0787
   49loPI   C3B  783   6.245   8.435   9.810 -0.2586 -0.0924 -0.0363
   49loPI   C4B  784   6.139   8.489   9.392 -0.1154  0.1209 -0.0013
   50loPI    C1  785   5.661   0.260  11.689  0.0657 -0.1341  0.1895
   50loPI    C2  786   5.262   0.238  11.678  0.0650 -0.0218 -0.0618
   50loPI    C3  787   5.444   0.398  11.996 -0.0768 -0.3037  0.1664
   50loPI   PO4  788   5.734   0.378  11.445  0.0647 -0.3005  0.1089
   50loPI   GL1  789   5.808   0.272  10.995 -0.3101 -0.2095  0.3236
   50loPI   GL2  790   5.634   0.676  11.050  0.2059 -0.0922  0.1033
   50loPI   C1A  791   6.034   0.280  10.632 -0.2416  0.1284  0.0210
   50loPI   C2A  792   5.982   0.317  10.207 -0.0271 -0.1055  0.2442
   50loPI   C3A  793   6.006   0.470   9.733  0.3727 -0.0615 -0.1133
   50loPI   C4A  794   5.938   0.429   9.246 -0.1436 -0.1032 -0.1994
   50loPI   C5A  795   5.976   0.233   8.895 -0.1545  0.0663  0.3758
   50loPI   C6A  796   6.238  -0.102   8.886 -0.2138 -0.2746 -0.0595
   50loPI   C1B  797   5.622   0.738  10.652  0.2924 -0.0769 -0.0774
   50loPI   C2B  798   5.560   0.584  10.270  0.2670 -0.1482 -0.4343
   50loPI   C3B  799   5.544   0.739   9.865 -0.1213  0.4412 -0.0696
   50loPI   C4B  800   5.495   0.751   9.366 -0.1584 -0.1314 -0.3539
   51loPI    C1  801   8.343   6.328  11.378 -0.2682  0.3172 -0.2073
   51loPI    C2  802   8.318   6.584  11.685  0.1180  0.0807  0.0292
   51loPI    C3  803   8.197   6.205  11.729  0.2282  0.0303 -0.0911
   51loPI   PO4  804   8.600   6.407  11.289 -0.3807  0.0764  0.1995
   51loPI   GL1  805   8.765   6.320  10.978  0.1303  0.2075  0.2275
   51loPI   GL2  806   8.970   6.329  10.654  0.2762 -0.2677 -0.0495
   51loPI   C1A  807   8.488   6.461  10.582  0.0817 -0.0578  0.0578
   51loPI   C2A  808   8.228   6.420  10.233 -0.1776  0.1972 -0.1891
   51loPI   C3A  809   8.236   6.454   9.853 -0.0675  0.1463 -0.0409
   51loPI   C4A  810   8.145   6.556   9.422  0.0043  0.0829 -0.3763
   51loPI   C5A  811   8.057   6.607   9.025 -0.0662  0.1521 -0.2436
   51loPI   C6A  812   7.903   6.731   8.581 -0.0388  0.2903  0.1250
   51loPI   C1B  813   8.898   6.298  10.244 -0.2966  0.1400  0.4617
   51loPI   C2B  814   8.732   6.179   9.802 -0.0778  0.1250 -0.1920
   51loPI   C3B  815   8.646   6.356   9.503  0.2654  0.3858 -0.0952
   51loPI   C4B  816   8.481   6.281   9.040 -0.0210 -0.2842  0.1311
   52loPI    C1  817  15.444  14.834  11.934  0.0137 -0.1387 -0.0884
   52loPI    C2  818  15.731  15.090  12.046 -0.0331 -0.0660 -0.1340
   52loPI    C3  819  15.402  15.048  12.270  0.0603 -0.2279 -0.0255
   52loPI   PO4  820  15.475  14.813  11.669  0.0573  0.1040 -0.0820
   52loPI   GL1  821  15.431  14.915  11.265  0.1095 -0.2029  0.3300
   52loPI   GL2  822  15.070  15.016  11.344 -0.1496  0.2707  0.0385
   52loPI   C1A  823  15.448  14.858  10.887  0.5864  0.2531 -0.1157
   52loPI   C2A  824  15.455  14.961  10.410  0.0131 -0.0685 -0.2069
   52loPI   C3A  825  15.449  14.953   9.906 -0.2420  0.1125  0.1864
   52loPI   C4A  826  15.516  14.956   9.458  0.0759 -0.1181  0.0038
   52loPI   C5A  827  15.633  14.677   9.122 -0.2102 -0.0936 -0.2472
   52loPI   C6A  828  15.720  14.350   9.181  0.1793 -0.0644  0.0180
   52loPI   C1B  829  14.952  15.066  10.909 -0.0469 -0.1507 -0.0335
   52loPI   C2B  830  15.008  15.143  10.413 -0.0541 -0.1125 -0.0249
   52loPI   C3B  831  14.971  15.212   9.899  0.0722  0.0576  0.0299
   52loPI   C4B  832  15.020  15.228   9.536 -0.1675  0.1144  0.3462
   53loPI    C1  833  12.086  14.791  11.136  0.0630 -0.0317  0.2653
   53loPI    C2  834  11.906  14.510  11.357 -0.1400  0.0081  0.1538
   53loPI    C3  835  11.686  14.776  11.155  0.0467  0.0784  0.0407
   53loPI   PO4  836  12.335  14.741  11.248  0.2893  0.1282 -0.3485
   53loPI   GL1  837  12.630  14.680  10.949 -0.1362  0.0206 -0.0147
   53loPI   GL2  838  12.900  14.583  11.086  0.0729 -0.0167  0.0595
   53loPI   C1A  839  12.650  14.758  10.519  0.0611  0.0201  0.1283
   53loPI   C2A  840  12.833  14.842  10.064 -0.1686 -0.2074  0.1006
   53loPI   C3A  841  12.735  14.752   9.662  0.0777 -0.2052  0.0964
   53loPI   C4A  842  12.817  14.749   9.243 -0.0741  0.1731 -0.2331
   53loPI   C5A  843  13.025  14.623   8.984  0.0611  0.0004  0.1702
   53loPI   C6A  844  13.334  14.209   8.879  0.0466 -0.0242  0.0301
   53loPI   C1B  845  13.199  14.548  10.693 -0.0728 -0.3101  0.4522
   53loPI   C2B  846  13.241  14.566  10.265 -0.1247 -0.2333 -0.3093
   53loPI   C3B  847  13.170  14.527   9.893 -0.0534 -0.0635  0.4267
   53loPI   C4B  848  13.231  14.496   9.443 -0.0457  0.0879 -0.2076
   54loPI    C1  849   0.810  10.411  11.846  0.3161  0.0391 -0.3772
   54loPI    C2  850   0.842  10.810  11.845  0.1293  0.0567 -0.1669
   54loPI    C3  851   0.558  10.633  12.064  0.2496 -0.1957 -0.2114
   54loPI   PO4  852   0.835  10.422  11.596  0.0921  0.0867  0.2940
   54loPI   GL1  853   0.976  10.434  11.145  0.0542 -0.0403  0.0419
   54loPI   GL2  854   0.981  10.100  11.185  0.1688  0.2100 -0.0676
   54loPI   C1A  855   1.069  10.272  10.776 -0.0958  0.4421 -0.0656
   54loPI   C2A  856   1.021  10.256  10.274 -0.0947 -0.0873  0.1649
   54loPI   C3A  857   1.013  10.239   9.860 -0.1482  0.2179 -0.1952
   54loPI   C4A  858   0.859  10.315   9.503 -0.0949  0.0381  0.2830
   54loPI   C5A  859   0.607  10.129   9.237  0.2584  0.1070  0.1006
   54loPI   C6A  860   0.134  10.089   8.960 -0.1160  0.0653 -0.2145
   54loPI   C1B  861   1.158   9.717  10.935  0.2876 -0.1268  0.1590
   54loPI   C2B  862   1.146   9.839  10.476 -0.2179  0.4073  0.1905
   54loPI   C3B  863   1.116   9.742  10.106  0.1171  0.4498  0.0584
   54loPI   C4B  864   1.164   9.724   9.731  0.3872 -0.0657 -0.0841
   55loPI    C1  865   6.460   4.240  11.428 -0.3012  0.0744  0.2211
   55loPI    C2  866   6.706   4.217  11.743 -0.1009 -0.3290  0.0430
   55loPI    C3  867   6.346   4.042  11.756 -0.1210 -0.2855  0.0720
   55loPI   PO4  868   6.604   4.258  11.259 -0.3561 -0.1542  0.3401
   55loPI   GL1  869   6.753   4.044  11.019 -0.0371  0.0194 -0.2037
   55loPI   GL2  870   7.100   3.935  10.926 -0.0279  0.0055  0.0250
   55loPI   C1A  871   6.575   4.109  10.595 -0.0282  0.1854  0.2403
   55loPI   C2A  872   6.582   3.990  10.242  0.0810 -0.1571 -0.1917
   55loPI   C3A  873   6.523   4.098   9.824  0.0009  0.0952 -0.1803
   55loPI   C4A  874   6.508   4.181   9.328  0.1744  0.1566  0.0850
   55loPI   C5A  875   6.541   4.242   8.821 -0.2992 -0.0227 -0.0864
   55loPI   C6A  876   6.891   4.219   8.512  0.1160  0.1663 -0.2715
   55loPI   C1B  877   7.042   3.838  10.482 -0.0061  0.0828 -0.1291
   55loPI   C2B  878   7.080   3.917   9.963 -0.5254 -0.2008 -0.4824
   55loPI   C3B  879   7.104   3.888   9.615 -0.0965 -0.0768  0.1762
   55loPI   C4B  880   6.937   4.015   9.145  0.2058  0.1194 -0.1827
   56loPI    C1  881   3.466   6.708  11.689  0.0184  0.0732 -0.0139
   56loPI    C2  882   3.175   6.585  11.934 -0.0602  0.0399 -0.1231
   56loPI    C3  883   3.555   6.579  12.056 -0.0727 -0.2186 -0.0918
   56loPI   PO4  884   3.431   6.597  11.441 -0.0764 -0.0311 -0.4095
   56loPI   GL1  885   3.438   6.691  11.100 -0.1468 -0.0199 -0.2061
   56loPI   GL2  886   3.765   6.501  10.994  0.1307 -0.0569  0.0793
   56loPI   C1A  887   3.267   6.607  10.734 -0.0360  0.0469  0.0257
   56loPI   C2A  888   3.278   6.602  10.295  0.2219 -0.2000 -0.0715
   56loPI   C3A  889   3.225   6.720   9.893  0.0859 -0.0021 -0.0485
   56loPI   C4A  890   3.303   6.943   9.520 -0.1731 -0.2209  0.1918
   56loPI   C5A  891   3.143   6.993   9.124 -0.3229  0.4529 -0.0507
   56loPI   C6A  892   3.277   7.166   8.806  0.2795  0.2253 -0.2366
   56loPI   C1B  893   3.708   6.504  10.502 -0.1358 -0.4714  0.0243
   56loPI   C2B  894   3.673   6.477  10.080  0.1262 -0.1419 -0.1561
   56loPI   C3B  895   3.713   6.685   9.692  0.0450  0.1108  0.2249
   56loPI   C4B  896   3.801   6.888   9.282 -0.0481  0.1193  0.0126
   57loPI    C1  897   6.189   1.332  11.671 -0.0999  0.2118  0.1859
   57loPI    C2  898   6.490   1.322  11.935  0.0095  0.0508  0.0575
   57loPI    C3  899   6.131   1.175  12.034  0.0245  0.0744  0.1474
   57loPI   PO4  900   6.165   1.690  11.514 -0.1829 -0.1063 -0.2152
   57loPI   GL1  901   6.008   1.907  11.103  0.1300 -0.0644  0.1151
   57loPI   GL2  902   6.436   1.795  11.096 -0.2050  0.1331 -0.0015
   57loPI   C1A  903   5.984   1.886  10.673  0.0303 -0.3005 -0.1693
   57loPI   C2A  904   5.882   1.912  10.253 -0.2261  0.1321  0.1854
   57loPI   C3A  905   5.896   1.982   9.874 -0.2370 -0.1099  0.2094
   57loPI   C4A  906   5.820   2.130   9.459 -0.0509  0.1193  0.0477
   57loPI   C5A  907   5.499   2.389   9.195 -0.1337  0.0392 -0.0108
   57loPI   C6A  908   5.118   2.526   9.111 -0.1421 -0.0083 -0.1366
   57loPI   C1B  909   6.415   1.740  10.603 -0.0281 -0.0150 -0.1552
   57loPI   C2B  910   6.392   1.762  10.138  0.0967  0.0907  0.1627
   57loPI   C3B  911   6.339   1.753   9.747 -0.1145  0.1900 -0.1191
   57loPI   C4B  912   6.376   1.959   9.342 -0.0955 -0.0126 -0.1139
   58loPI    C1  913  15.222  10.552  11.559  0.1095 -0.0028  0.0779
   58loPI    C2  914  15.418  10.378  11.861  0.2172 -0.0449 -0.0155
   58loPI    C3  915  15.089  10.594  11.934  0.2777 -0.0034  0.1383
   58loPI   PO4  916  15.098  10.414  11.362 -0.2751  0.3247  0.0468
   58loPI   GL1  917  15.185  10.539  10.924  0.1256 -0.1321 -0.3417
   58loPI   GL2  918  15.432  10.393  10.954  0.1803  0.3580 -0.1119
   58loPI   C1A  919  15.097  10.346  10.552 -0.0475 -0.3420  0.6379
   58loPI   C2A  920  15.087  10.446  10.148 -0.1129  0.2899  0.1098
   58loPI   C3A  921  14.909  10.557   9.748  0.1084  0.2115 -0.1559
   58loPI   C4A  922  14.576  10.617   9.477 -0.2506  0.1635  0.0599
   58loPI   C5A  923  14.286  10.878   9.419 -0.0134  0.0655 -0.2730
   58loPI   C6A  924  13.913  10.869   9.158  0.1748 -0.0200 -0.3228
   58loPI   C1B  925  15.572  10.393  10.377  0.0399 -0.1126 -0.3691
   58loPI   C2B  926  15.577  10.405  10.030  0.3200  0.0602  0.2024
   58loPI   C3B  927  15.406  10.613   9.588  0.1725  0.2621 -0.1242
   58loPI   C4B  928  15.216  10.700   9.301  0.0357 -0.0755 -0.0218
   59loPI    C1  929  12.654   1.721  10.948 -0.1522 -0.0899  0.0871
   59loPI    C2  930  12.669   1.997  11.237  0.0320  0.0345 -0.0389
   59loPI    C3  931  12.924   1.689  11.241 -0.1298 -0.0999  0.0655
   59loPI   PO4  932  12.464   1.913  10.782  0.0040  0.1847 -0.0784
   59loPI   GL1  933  12.632   2.207  10.507  0.1143  0.0927 -0.0062
   59loPI   GL2  934  12.865   2.396  10.337  0.1961  0.0930 -0.0055
   59loPI   C1A  935  12.520   2.142  10.096 -0.2393  0.0124  0.1840
   59loPI   C2A  936  12.408   1.808   9.695 -0.1241  0.4971 -0.0513
   59loPI   C3A  937  12.643   1.758   9.305 -0.0806  0.0981 -0.2009
   59loPI   C4A  938  12.867   1.556   8.922  0.0440 -0.1543 -0.1244
   59loPI   C5A  939  13.225   1.423   8.606  0.0181 -0.0673  0.0434
   59loPI   C6A  940  13.721   1.587   8.477 -0.4137 -0.0686  0.0048
   59loPI   C1B  941  12.930   2.589   9.912 -0.1540  0.0288  0.2090
   59loPI   C2B  942  13.027   2.672   9.535  0.1263 -0.2068  0.1352
   59loPI   C3B  943  13.332   2.641   9.268 -0.0177  0.1541 -0.1528
   59loPI   C4B  944  13.527   2.238   9.068  0.1122  0.1259 -0.1887
   60loPI    C1  945   7.784  12.464  11.558 -0.0879 -0.0422  0.0640
   60loPI    C2  946   7.983  12.488  11.904  0.2083  0.2278 -0.1198
   60loPI    C3  947   7.611  12.632  11.877  0.0607 -0.0849  0.1683
   60loPI   PO4  948   7.864  12.222  11.473  0.0888 -0.0974  0.1585
   60loPI   GL1  949   7.959  12.165  11.066  0.1087  0.0439  0.0293
   60loPI   GL2  950   7.922  11.895  10.946  0.1825 -0.0923 -0.3004
   60loPI   C1A  951   7.745  12.406  10.670 -0.0196 -0.2071  0.1811
   60loPI   C2A  952   7.691  12.324  10.154  0.0922 -0.2825 -0.1608
   60loPI   C3A  953   7.582  12.290   9.782 -0.0203 -0.0997 -0.3956
   60loPI   C4A  954   7.235  12.133   9.544  0.2494  0.2755 -0.0722
   60loPI   C5A  955   7.071  12.245   9.098 -0.0114 -0.0405 -0.0555
   60loPI   C6A  956   6.699  12.282   8.854  0.1781 -0.1320  0.3815
   60loPI   C1B  957   7.901  11.933  10.462 -0.0592  0.2448  0.2955
   60loPI   C2B  958   7.964  11.980   9.951  0.4001 -0.1892 -0.0631
   60loPI   C3B  959   7.998  12.092   9.563  0.1863  0.0378 -0.1796
   60loPI   C4B  960   7.783  12.155   9.237  0.0684  0.0714  0.1378
   61loPI    C1  961   8.023  14.506  11.379 -0.1318  0.1666 -0.1902
   61loPI    C2  962   7.944  14.500  11.771  0.0968 -0.0259 -0.1448
   61loPI    C3  963   7.848  14.821  11.553 -0.2991 -0.0335  0.0092
   61loPI   PO4  964   7.914  14.221  11.176 -0.5189 -0.0924  0.2310
   61loPI   GL1  965   8.057  14.152  10.728  0.0266  0.0605 -0.0143
   61loPI   GL2  966   8.391  14.174  10.736 -0.2452  0.0898  0.0793
   61loPI   C1A  967   7.889  14.341  10.348  0.0816  0.0197 -0.1736
   61loPI   C2A  968   7.875  14.292   9.865  0.1098  0.0069 -0.0664
   61loPI   C3A  969   7.861  14.146   9.444 -0.1787 -0.0638  0.0484
   61loPI   C4A  970   7.591  14.234   9.096 -0.1398  0.1289  0.1129
   61loPI   C5A  971   7.177  13.996   8.872 -0.2866 -0.1136  0.1849
   61loPI   C6A  972   6.824  13.869   8.846  0.1018  0.1400  0.0671
   61loPI   C1B  973   8.414  14.261  10.347  0.1382  0.0539 -0.1894
   61loPI   C2B  974   8.391  14.420   9.916  0.6028  0.1214  0.1771
   61loPI   C3B  975   8.228  14.448   9.511  0.0880 -0.0735 -0.0159
   61loPI   C4B  976   7.803  14.654   9.457 -0.1786 -0.0660  0.2447
   62loPI    C1  977   1.099   7.922  11.796  0.1049  0.0414 -0.0554
   62loPI    C2  978   1.268   7.600  11.962  0.0360  0.0500  0.0320
   62loPI    C3  979   1.196   7.925  12.184 -0.3837 -0.0664  0.0743
   62loPI   PO4  980   1.270   7.902  11.497  0.1826 -0.1388 -0.2444
   62loPI   GL1  981   1.424   7.686  11.111  0.1458  0.0809  0.0682
   62loPI   GL2  982   1.218   7.431  11.224 -0.0271  0.1014 -0.2990
   62loPI   C1A  983   1.308   7.576  10.737  0.0935  0.0187  0.1256
   62loPI   C2A  984   1.432   7.624  10.355  0.2971  0.2868 -0.4124
   62loPI   C3A  985   1.386   7.644   9.878  0.0014 -0.0858  0.3457
   62loPI   C4A  986   1.228   7.686   9.411 -0.0389  0.1195  0.1042
   62loPI   C5A  987   1.076   7.336   9.180 -0.0242  0.1579 -0.2977
   62loPI   C6A  988   1.109   6.890   9.198  0.0062  0.2205  0.2631
   62loPI   C1B  989   0.912   7.353  10.951  0.0075  0.0181  0.0464
   62loPI   C2B  990   0.898   7.278  10.548 -0.2008  0.1174  0.2916
   62loPI   C3B  991   0.904   7.311  10.108  0.5880 -0.0892  0.0601
   62loPI   C4B  992   0.880   7.386   9.708 -0.2897  0.0523  0.0339
   63loPI    C1  993   2.640  14.021  12.000 -0.2887 -0.0309  0.0338
   63loPI    C2  994   2.612  13.627  11.935 -0.0686 -0.0571  0.0902
   63loPI    C3  995   2.865  13.767  12.212  0.0864  0.1415 -0.1476
   63loPI   PO4  996   2.673  14.119  11.822 -0.0735 -0.0068 -0.3414
   63loPI   GL1  997   2.593  14.450  11.487 -0.3427  0.1559  0.0136
   63loPI   GL2  998   2.906  14.420  11.514  0.0466 -0.1648  0.3279
   63loPI   C1A  999   2.339  14.221  11.209 -0.3182 -0.0043 -0.1539
   63loPI   C2A 1000   2.354  14.217  10.787 -0.1182  0.0944  0.0405
   63loPI   C3A 1001   2.378  14.173  10.384  0.0442 -0.1441 -0.3277
   63loPI   C4A 1002   2.477  14.086   9.979  0.1451  0.1227  0.2130
   63loPI   C5A 1003   2.458  13.972   9.576  0.2377 -0.0590 -0.3923
   63loPI   C6A 1004   2.422  13.913   9.135 -0.1068 -0.2232 -0.0655
   63loPI   C1B 1005   2.770  14.460  11.018  0.0465  0.2972 -0.2293
   63loPI   C2B 1006   2.852  14.456  10.619  0.2170  0.1723 -0.0784
   63loPI   C3B 1007   2.797  14.416  10.205  0.0410 -0.3592 -0.1691
   63loPI   C4B 1008   3.023  14.445   9.739 -0.1776  0.2320 -0.0400
   64loPI    C1 1009   4.919   9.062  11.741 -0.1057 -0.0449 -0.0986
   64loPI    C2 1010   4.638   8.932  11.995 -0.0353 -0.0863 -0.0411
   64loPI    C3 1011   5.004   8.771  12.003 -0.0291 -0.0794 -0.1612
   64loPI   PO4 1012   4.883   9.334  11.743  0.2251 -0.1853  0.0721
   64loPI   GL1 1013   4.726   9.546  11.420  0.2309  0.0068  0.0745
   64loPI   GL2 1014   5.011   9.678  11.156  0.2389  0.6827  0.0489
   64loPI   C1A 1015   4.645   9.312  11.112 -0.3514  0.4097 -0.3362
   64loPI   C2A 1016   4.444   9.326  10.714 -0.4378 -0.2900  0.2333
   64loPI   C3A 1017   4.386   9.392  10.254 -0.2895  0.1422 -0.0554
   64loPI   C4A 1018   4.311   9.379   9.761 -0.1682 -0.2140 -0.0481
   64loPI   C5A 1019   4.282   9.344   9.369 -0.1693  0.1078 -0.0633
   64loPI   C6A 1020   4.626   9.439   9.055  0.0400 -0.1979 -0.0989
   64loPI   C1B 1021   4.875   9.575  10.733 -0.1041 -0.0728 -0.2177
   64loPI   C2B 1022   4.825   9.681  10.305  0.1186  0.0747 -0.0304
   64loPI   C3B 1023   4.688   9.724   9.867 -0.0861  0.2119  0.2514
   64loPI   C4B 1024   4.593   9.700   9.453 -0.0357  0.2238 -0.2186
   65loPI    C1 1025  10.175  11.859  11.879  0.2404 -0.0546  0.2389
   65loPI    C2 1026  10.407  12.182  11.928 -0.0448  0.1890  0.0248
   65loPI    C3 1027  10.046  12.167  12.099 -0.0903  0.0431 -0.0813
   65loPI   PO4 1028  10.239  11.798  11.620  0.0200  0.1239 -0.1178
   65loPI   GL1 1029  10.197  11.983  11.194  0.0461 -0.1180 -0.0184
   65loPI   GL2 1030  10.424  12.142  10.955  0.2007 -0.0819  0.1683
   65loPI   C1A 1031  10.002  11.822  10.871 -0.2612 -0.0614 -0.1462
   65loPI   C2A 1032  10.009  11.779  10.352 -0.0207 -0.1858 -0.2118
   65loPI   C3A 1033   9.945  11.739   9.953 -0.2544  0.1934 -0.2754
   65loPI   C4A 1034  10.025  11.761   9.467  0.0264 -0.0544 -0.2919
   65loPI   C5A 1035   9.824  11.919   9.104 -0.0364 -0.2804  0.0835
   65loPI   C6A 1036   9.603  12.010   8.690 -0.1657  0.0077 -0.2897
   65loPI   C1B 1037  10.361  12.047  10.538 -0.4623  0.1514 -0.0701
   65loPI   C2B 1038  10.395  12.088  10.063 -0.1556  0.2498 -0.1150
   65loPI   C3B 1039  10.440  12.075   9.649 -0.0655  0.3163  0.1035
   65loPI   C4B 1040  10.384  12.254   9.237 -0.0582 -0.0036  0.2049
   66loPI    C1 1041  14.509  14.641  11.869 -0.0088 -0.0999  0.1539
   66loPI    C2 1042  14.756  14.376  12.040 -0.0206 -0.2108  0.0008
   66loPI    C3 1043  14.592  14.667  12.260  0.2107 -0.1630  0.1130
   66loPI   PO4 1044  14.574  14.754  11.683  0.1800 -0.0836  0.1926
   66loPI   GL1 1045  14.689  14.634  11.354 -0.0187 -0.0912  0.2249
   66loPI   GL2 1046  14.410  14.741  11.210 -0.0301 -0.2262 -0.1609
   66loPI   C1A 1047  14.998  14.580  10.988  0.2100  0.2256 -0.0262
   66loPI   C2A 1048  15.001  14.653  10.564  0.3576  0.0039  0.3225
   66loPI   C3A 1049  15.026  14.707  10.158 -0.1623  0.0277  0.0648
   66loPI   C4A 1050  15.056  14.704   9.727 -0.4582 -0.2574  0.0519
   66loPI   C5A 1051  15.139  14.614   9.233  0.0036  0.2302  0.1859
   66loPI   C6A 1052  15.015  14.462   8.800 -0.0796 -0.3678  0.2583
   66loPI   C1B 1053  14.551  14.801  10.866  0.1779 -0.0131  0.2757
   66loPI   C2B 1054  14.600  14.943  10.503 -0.1423 -0.0129 -0.2517
   66loPI   C3B 1055  14.583  14.952  10.132 -0.0575  0.2228  0.0546
   66loPI   C4B 1056  14.587  14.946   9.705 -0.1544 -0.0024  0.1214
   67loPI    C1 1057   1.769  11.842  11.822 -0.1106  0.0394 -0.1467
   67loPI    C2 1058   1.930  11.667  12.144 -0.2572  0.0287 -0.0785
   67loPI    C3 1059   1.578  11.856  12.173 -0.1251  0.2938 -0.1623
   67loPI   PO4 1060   1.988  11.925  11.662  0.2508  0.0363 -0.2710
   67loPI   GL1 1061   2.029  11.750  11.311 -0.0013 -0.2951 -0.0752
   67loPI   GL2 1062   2.150  11.559  11.228 -0.3142  0.0928 -0.1906
   67loPI   C1A 1063   1.814  11.899  10.930  0.1925  0.2730  0.0460
   67loPI   C2A 1064   1.780  11.809  10.474 -0.2755 -0.2292 -0.1751
   67loPI   C3A 1065   1.717  11.799  10.031 -0.1181  0.0910  0.0972
   67loPI   C4A 1066   1.825  12.092   9.700  0.3760  0.4540 -0.0425
   67loPI   C5A 1067   1.973  12.477   9.475  0.0982 -0.2166  0.1530
   67loPI   C6A 1068   2.026  12.781   9.169 -0.1347  0.2857 -0.0080
   67loPI   C1B 1069   2.317  11.730  10.848 -0.1579 -0.2502 -0.0739
   67loPI   C2B 1070   2.260  11.718  10.411  0.2163  0.3923  0.2106
   67loPI   C3B 1071   2.196  11.772   9.883  0.1774  0.0347 -0.0790
   67loPI   C4B 1072   2.374  11.787   9.442 -0.0527  0.3007  0.0478
   68loPI    C1 1073  13.317   6.501  11.453  0.1876  0.3540 -0.0524
   68loPI    C2 1074  13.530   6.738  11.695  0.1170  0.1881  0.1760
   68loPI    C3 1075  13.349   6.413  11.842  0.1598  0.0260 -0.1213
   68loPI   PO4 1076  13.504   6.437  11.273 -0.0647  0.0429 -0.0189
   68loPI   GL1 1077  13.748   6.603  10.890  0.2604 -0.1641 -0.1452
   68loPI   GL2 1078  13.445   6.337  10.725 -0.0444 -0.0743 -0.0345
   68loPI   C1A 1079  14.014   6.682  10.550 -0.0215 -0.3008 -0.2443
   68loPI   C2A 1080  14.093   6.503  10.046  0.0498  0.1279  0.1087
   68loPI   C3A 1081  14.206   6.569   9.627  0.0295 -0.1169  0.0118
   68loPI   C4A 1082  14.301   6.567   9.161 -0.2004  0.0454  0.1974
   68loPI   C5A 1083  14.605   6.640   8.781  0.2485 -0.1273 -0.0558
   68loPI   C6A 1084  14.984   6.549   8.498  0.0819  0.1341  0.0341
   68loPI   C1B 1085  13.592   6.344  10.365 -0.0191 -0.1411 -0.0683
   68loPI   C2B 1086  13.644   6.194  10.034 -0.2673 -0.2977  0.0091
   68loPI   C3B 1087  13.616   6.125   9.573  0.0069 -0.2477  0.1121
   68loPI   C4B 1088  13.531   6.154   9.171 -0.1919  0.0411  0.1177
   69loPI    C1 1089  16.455  16.184  11.983 -0.1995  0.0369 -0.0865
   69loPI    C2 1090  16.100  16.197  11.799 -0.2797  0.0207  0.0660
   69loPI    C3 1091  16.127  16.053  12.171 -0.0853 -0.1400 -0.0085
   69loPI   PO4 1092  16.582  16.160  11.804 -0.0750 -0.0781 -0.5168
   69loPI   GL1 1093  16.810  16.033  11.567  0.0737 -0.3610  0.0490
   69loPI   GL2 1094  16.950  15.827  11.315 -0.2168  0.2498 -0.0112
   69loPI   C1A 1095  16.966  16.299  11.213  0.0319 -0.2172  0.4846
   69loPI   C2A 1096  17.068  16.333  10.722  0.2955  0.2275 -0.0734
   69loPI   C3A 1097  17.125  16.267  10.330 -0.1604  0.0274 -0.4938
   69loPI   C4A 1098  17.125  16.322   9.872 -0.0366 -0.2426 -0.0149
   69loPI   C5A 1099  17.227  16.169   9.487  0.2035 -0.1107 -0.0105
   69loPI   C6A 1100  17.421  15.829   9.155 -0.2376  0.2709 -0.0016
   69loPI   C1B 1101  17.063  15.818  10.941 -0.1263  0.2029  0.0740
   69loPI   C2B 1102  17.146  15.785  10.448 -0.1687  0.1407 -0.5040
   69loPI   C3B 1103  17.121  15.723  10.084 -0.1637 -0.1243 -0.2328
   69loPI   C4B 1104  17.271  15.717   9.667  0.1834 -0.1550 -0.1790
   70loPI    C1 1105   8.445  12.280  11.260 -0.0142 -0.1855 -0.0362
   70loPI    C2 1106   8.705  12.371  11.550 -0.1765  0.3404 -0.0446
   70loPI    C3 1107   8.333  12.260  11.644 -0.0841  0.0199 -0.0446
   70loPI   PO4 1108   8.605  12.346  11.103 -0.2043  0.2743  0.2304
   70loPI   GL1 1109   8.879  12.468  10.847  0.0789  0.1320 -0.0262
   70loPI   GL2 1110   8.943  12.718  10.785  0.1696 -0.2567 -0.3753
   70loPI   C1A 1111   8.614  12.475  10.449 -0.0057  0.1188 -0.1146
   70loPI   C2A 1112   8.679  12.554  10.101  0.1632 -0.0871  0.2990
   70loPI   C3A 1113   8.592  12.492   9.722 -0.0175 -0.3243  0.0622
   70loPI   C4A 1114   8.314  12.402   9.336  0.2756  0.1161 -0.3362
   70loPI   C5A 1115   8.249  12.156   9.064  0.0731 -0.1287 -0.0401
   70loPI   C6A 1116   7.882  11.828   8.837  0.1649  0.0426  0.1691
   70loPI   C1B 1117   8.949  12.934  10.283 -0.1626  0.0817 -0.0726
   70loPI   C2B 1118   8.978  12.890   9.854  0.2211  0.5039  0.2956
   70loPI   C3B 1119   8.892  13.061   9.428  0.0689 -0.0385  0.0995
   70loPI   C4B 1120   8.757  12.925   9.020  0.0064 -0.1534  0.1439
   71loPI    C1 1121   6.097   8.602  11.540  0.0418 -0.1589 -0.0225
   71loPI    C2 1122   6.426   8.628  11.766  0.1246  0.3671 -0.1902
   71loPI    C3 1123   6.144   8.911  11.789 -0.2675 -0.0179 -0.1338
   71loPI   PO4 1124   6.116   8.529  11.311  0.1470  0.0428 -0.0256
   71loPI   GL1 1125   6.276   8.691  11.003  0.1388 -0.3258 -0.4089
   71loPI   GL2 1126   5.953   8.634  10.860  0.2578  0.3716  0.1989
   71loPI   C1A 1127   6.335   8.906  10.656 -0.2885  0.2630 -0.1954
   71loPI   C2A 1128   6.280   9.003  10.213 -0.3419 -0.1052  0.2994
   71loPI   C3A 1129   6.231   8.975   9.809 -0.3989  0.0500 -0.3107
   71loPI   C4A 1130   5.952   9.052   9.401 -0.0425 -0.3074  0.0432
   71loPI   C5A 1131   5.623   8.978   9.055 -0.2222  0.1191 -0.0786
   71loPI   C6A 1132   5.324   8.827   8.848 -0.1461 -0.0331  0.3257
   71loPI   C1B 1133   5.940   8.705  10.467  0.1424 -0.1064  0.0709
   71loPI   C2B 1134   5.855   8.596  10.109 -0.2122 -0.5998  0.2343
   71loPI   C3B 1135   5.811   8.702   9.732  0.1076 -0.2621 -0.0867
   71loPI   C4B 1136   5.587   8.573   9.387 -0.2248  0.0582  0.1144
   72loPI    C1 1137   7.674   0.257  11.653  0.1737 -0.2455 -0.1517
   72loPI    C2 1138   7.754   0.241  12.045  0.2875 -0.1036 -0.1681
   72loPI    C3 1139   7.482  -0.006  11.886  0.1422 -0.0699  0.0242
   72loPI   PO4 1140   7.879   0.323  11.389  0.1616  0.0307  0.1926
   72loPI   GL1 1141   7.938   0.453  10.894 -0.0850  0.1625  0.1227
   72loPI   GL2 1142   8.121   0.618  10.636  0.2996 -0.1775 -0.3104
   72loPI   C1A 1143   7.662   0.409  10.595  0.0137 -0.1578 -0.2589
   72loPI   C2A 1144   7.542   0.361  10.234 -0.0225 -0.0423  0.1130
   72loPI   C3A 1145   7.460   0.146   9.871 -0.2531  0.0427 -0.3588
   72loPI   C4A 1146   7.339   0.202   9.456 -0.0307  0.2726  0.2170
   72loPI   C5A 1147   7.153   0.195   9.035  0.1493  0.2511  0.0240
   72loPI   C6A 1148   7.231  -0.140   8.784 -0.2280 -0.1393  0.2466
   72loPI   C1B 1149   8.000   0.570  10.246  0.3996  0.1339 -0.0533
   72loPI   C2B 1150   7.861   0.541   9.889 -0.0749  0.0740  0.3396
   72loPI   C3B 1151   7.720   0.499   9.488  0.0859  0.0134 -0.1510
   72loPI   C4B 1152   7.556   0.614   9.050  0.0352  0.3298 -0.0786
   73loPI    C1 1153   1.964   8.188  11.879 -0.1026  0.0399  0.0919
   73loPI    C2 1154   1.737   7.866  11.949  0.0304 -0.0430  0.1455
   73loPI    C3 1155   1.578   8.188  11.772  0.0087 -0.3110 -0.3413
   73loPI   PO4 1156   2.179   8.058  11.710  0.1751 -0.0549  0.1231
   73loPI   GL1 1157   2.262   8.220  11.285 -0.2358  0.0634  0.0508
   73loPI   GL2 1158   2.442   7.945  11.286 -0.2141 -0.2244  0.1456
   73loPI   C1A 1159   2.195   8.285  10.826  0.0151  0.2224  0.2388
   73loPI   C2A 1160   2.150   8.244  10.344 -0.2928  0.1107  0.0380
   73loPI   C3A 1161   2.224   8.353  10.013  0.2006 -0.0499 -0.2920
   73loPI   C4A 1162   2.315   8.485   9.545  0.0152 -0.1360 -0.0438
   73loPI   C5A 1163   2.244   8.520   9.051  0.1614  0.0510 -0.0708
   73loPI   C6A 1164   2.570   8.486   8.778 -0.0958 -0.0608 -0.2889
   73loPI   C1B 1165   2.611   8.014  10.886  0.1008 -0.1261 -0.2573
   73loPI   C2B 1166   2.609   8.165  10.512  0.1452  0.0004  0.1176
   73loPI   C3B 1167   2.656   8.014  10.158 -0.1910 -0.0135 -0.0713
   73loPI   C4B 1168   2.727   8.161   9.808 -0.2037  0.0387 -0.1695
   74loPI    C1 1169  14.837   2.676  11.458 -0.0483 -0.0095  0.0643
   74loPI    C2 1170  15.077   2.499  11.724  0.0544  0.0570  0.0168
   74loPI    C3 1171  14.731   2.660  11.843  0.0713  0.0327  0.0994
   74loPI   PO4 1172  14.980   2.777  11.348  0.1643 -0.1779 -0.0384
   74loPI   GL1 1173  15.197   2.793  10.912 -0.0624 -0.1778 -0.0296
   74loPI   GL2 1174  15.493   2.878  11.083  0.1744  0.2025 -0.0205
   74loPI   C1A 1175  15.199   2.854  10.423 -0.0551 -0.0494 -0.3726
   74loPI   C2A 1176  15.387   2.757  10.060  0.2801 -0.0343  0.0562
   74loPI   C3A 1177  15.518   2.784   9.577  0.0697  0.1012 -0.1223
   74loPI   C4A 1178  15.771   2.805   9.221 -0.0538  0.0113  0.0383
   74loPI   C5A 1179  16.149   3.034   9.013 -0.1891 -0.1212  0.0505
   74loPI   C6A 1180  16.442   3.297   8.987 -0.0504  0.3392  0.2095
   74loPI   C1B 1181  15.662   2.800  10.720 -0.1237  0.0467  0.2763
   74loPI   C2B 1182  15.785   2.889  10.309  0.1661 -0.1061  0.0832
   74loPI   C3B 1183  15.845   2.849   9.936  0.3234 -0.1882 -0.1652
   74loPI   C4B 1184  16.117   2.991   9.616  0.2965  0.0974  0.0607
   75loPI    C1 1185  14.162   8.180  11.854  0.3250 -0.0743 -0.0671
   75loPI    C2 1186  14.088   7.795  11.933 -0.0015  0.0205  0.1071
   75loPI    C3 1187  14.182   8.046  12.230  0.2746  0.0641 -0.0145
   75loPI   PO4 1188  13.982   8.175  11.575 -0.1085  0.1992  0.0725
   75loPI   GL1 1189  14.101   8.271  11.114  0.0085  0.2182  0.0316
   75loPI   GL2 1190  13.790   8.023  11.097 -0.0104  0.1778  0.0126
   75loPI   C1A 1191  14.245   8.550  10.642 -0.2048  0.0019  0.1553
   75loPI   C2A 1192  14.427   8.567  10.231  0.1420 -0.0539 -0.0606
   75loPI   C3A 1193  14.450   8.456   9.789  0.1403 -0.2060  0.0683
   75loPI   C4A 1194  14.505   8.476   9.295  0.0003  0.1132 -0.1355
   75loPI   C5A 1195  14.701   8.613   8.877  0.1399 -0.1180 -0.0426
   75loPI   C6A 1196  15.095   8.679   8.651 -0.0545  0.1248  0.0560
   75loPI   C1B 1197  13.892   8.211  10.720  0.1801 -0.1255 -0.0924
   75loPI   C2B 1198  14.012   8.286  10.255 -0.2658  0.1293 -0.1987
   75loPI   C3B 1199  14.027   8.162   9.818  0.2438  0.2827 -0.1539
   75loPI   C4B 1200  14.077   8.365   9.504 -0.1614 -0.1296 -0.1526
   76loPI    C1 1201   7.954   3.749  11.594 -0.3469  0.0643  0.0529
   76loPI    C2 1202   7.793   3.477  11.349  0.0098 -0.2485  0.1560
   76loPI    C3 1203   7.627   3.547  11.706 -0.0473 -0.3775  0.1554
   76loPI   PO4 1204   8.047   3.900  11.375 -0.1113  0.0670  0.2249
   76loPI   GL1 1205   7.892   3.969  10.948 -0.0742 -0.1093  0.1329
   76loPI   GL2 1206   7.635   3.845  10.999 -0.5467 -0.2352 -0.0135
   76loPI   C1A 1207   7.895   4.017  10.361  0.0324  0.2770 -0.2419
   76loPI   C2A 1208   7.996   4.019   9.895  0.0368  0.1413  0.0914
   76loPI   C3A 1209   7.898   4.119   9.513 -0.1106 -0.2191  0.1205
   76loPI   C4A 1210   7.954   4.155   9.072  0.0827  0.2973 -0.1596
   76loPI   C5A 1211   8.050   4.607   8.907 -0.1540  0.1734  0.1235
   76loPI   C6A 1212   8.199   4.693   8.543  0.0206 -0.1720  0.2854
   76loPI   C1B 1213   7.599   3.741  10.590  0.3737 -0.3519 -0.2844
   76loPI   C2B 1214   7.515   3.757  10.181 -0.0662  0.2777 -0.2097
   76loPI   C3B 1215   7.581   3.798   9.728  0.0492  0.3468  0.1338
   76loPI   C4B 1216   7.528   3.799   9.258  0.1224 -0.0905  0.2583
   77loPI    C1 1217  12.228   4.631  11.146  0.0842  0.1122 -0.1064
   77loPI    C2 1218  12.428   4.927  11.326 -0.0526  0.1741 -0.0552
   77loPI    C3 1219  12.373   4.579  11.515 -0.2005  0.2408  0.0265
   77loPI   PO4 1220  12.365   4.652  10.885 -0.1028 -0.3097 -0.2564
   77loPI   GL1 1221  12.447   4.583  10.539 -0.0078  0.2094 -0.3211
   77loPI   GL2 1222  12.154   4.581  10.326 -0.0535 -0.0906  0.0889
   77loPI   C1A 1223  12.554   4.630  10.076  0.0925  0.1536 -0.0527
   77loPI   C2A 1224  12.601   4.643   9.633  0.0680  0.0101 -0.2779
   77loPI   C3A 1225  12.492   4.783   9.242  0.0190 -0.2431 -0.1560
   77loPI   C4A 1226  12.681   4.957   8.873  0.2033  0.0652 -0.1860
   77loPI   C5A 1227  12.517   5.330   8.628  0.3031 -0.0860 -0.0145
   77loPI   C6A 1228  12.646   5.492   8.275 -0.1716 -0.0068 -0.0242
   77loPI   C1B 1229  12.145   4.462   9.828 -0.1691  0.0218 -0.0908
   77loPI   C2B 1230  12.091   4.422   9.344 -0.3175  0.2441 -0.1420
   77loPI   C3B 1231  12.124   4.533   8.838  0.0236 -0.0394 -0.0225
   77loPI   C4B 1232  12.284   4.872   8.612 -0.0180  0.0949 -0.2176
   78loPI    C1 1233   3.712   1.740  12.122 -0.1018 -0.1246 -0.0750
   78loPI    C2 1234   3.411   1.690  12.381 -0.0288  0.2051  0.0779
   78loPI    C3 1235   3.790   1.689  12.511  0.0506 -0.3372 -0.1312
   78loPI   PO4 1236   3.594   1.636  11.909  0.2863 -0.0563 -0.1165
   78loPI   GL1 1237   3.376   1.425  11.588  0.1406  0.0711  0.1084
   78loPI   GL2 1238   3.749   1.336  11.544  0.0852  0.1887  0.0126
   78loPI   C1A 1239   3.125   1.656  11.183  0.0506  0.2197 -0.0837
   78loPI   C2A 1240   3.167   1.691  10.815 -0.1848 -0.1673  0.0345
   78loPI   C3A 1241   3.220   1.640  10.421  0.0392  0.0706  0.2109
   78loPI   C4A 1242   3.264   1.583  10.033  0.0037 -0.1095 -0.0889
   78loPI   C5A 1243   3.264   1.360   9.584 -0.1101 -0.1367  0.2938
   78loPI   C6A 1244   3.435   1.149   9.258  0.2569  0.0774 -0.2483
   78loPI   C1B 1245   3.627   1.453  11.140 -0.3293 -0.1230 -0.3197
   78loPI   C2B 1246   3.649   1.492  10.727  0.0747 -0.2588 -0.2332
   78loPI   C3B 1247   3.616   1.375  10.330 -0.0620 -0.0279 -0.2163
   78loPI   C4B 1248   3.708   1.470   9.908 -0.0949  0.1067  0.1991
   79loPI    C1 1249   2.631  14.534  12.163  0.0775 -0.0725  0.0636
   79loPI    C2 1250   2.953  14.317  12.261  0.1923  0.1264  0.1334
   79loPI    C3 1251   2.783  14.558  12.532  0.0938  0.1592  0.0435
   79loPI   PO4 1252   2.749  14.708  11.903 -0.1113 -0.2103 -0.2637
   79loPI   GL1 1253   3.030  14.889  11.562  0.1005  0.2462 -0.1717
   79loPI   GL2 1254   3.360  14.924  11.460 -0.1418 -0.0446  0.1056
   79loPI   C1A 1255   2.784  14.917  11.254  0.2323  0.0682 -0.1747
   79loPI   C2A 1256   2.827  14.985  10.869  0.1255  0.1757  0.2058
   79loPI   C3A 1257   2.773  15.003  10.433  0.0564  0.5134 -0.1766
   79loPI   C4A 1258   2.720  15.029  10.087 -0.0680 -0.1255 -0.3645
   79loPI   C5A 1259   2.774  15.123   9.634  0.0435  0.0994  0.1133
   79loPI   C6A 1260   2.673  15.359   9.320 -0.3429  0.1177 -0.2300
   79loPI   C1B 1261   3.296  14.863  11.040 -0.1793  0.3760  0.1217
   79loPI   C2B 1262   3.293  14.841  10.624 -0.1633  0.0479  0.0420
   79loPI   C3B 1263   3.301  14.797  10.173  0.2594 -0.1019  0.0306
   79loPI   C4B 1264   3.232  14.904   9.753  0.2492  0.0975  0.0988
   80loPI    C1 1265  14.797   2.139  11.339 -0.0139  0.1347  0.0310
   80loPI    C2 1266  14.519   1.909  11.511 -0.1515  0.1975 -0.1052
   80loPI    C3 1267  14.721   2.175  11.730 -0.0345 -0.0082  0.0407
   80loPI   PO4 1268  14.769   2.268  11.136 -0.0443  0.0262  0.0275
   80loPI   GL1 1269  14.707   2.298  10.758 -0.1611 -0.0436 -0.2867
   80loPI   GL2 1270  15.061   2.386  10.720 -0.2344 -0.0349  0.1054
   80loPI   C1A 1271  14.690   2.267  10.430  0.1521 -0.0362  0.0843
   80loPI   C2A 1272  14.722   2.178   9.899 -0.0457  0.0881 -0.0576
   80loPI   C3A 1273  14.774   2.248   9.569 -0.1775 -0.0883  0.3239
   80loPI   C4A 1274  14.850   2.308   9.220  0.4453  0.2931 -0.0027
   80loPI   C5A 1275  14.906   2.457   8.820 -0.0314 -0.2224  0.2765
   80loPI   C6A 1276  15.205   2.837   8.638 -0.2134  0.1748 -0.2567
   80loPI   C1B 1277  15.094   2.374  10.215 -0.0438  0.0373 -0.2066
   80loPI   C2B 1278  15.264   2.379   9.740  0.0993  0.0318 -0.2998
   80loPI   C3B 1279  15.381   2.321   9.272  0.2163 -0.2636  0.0194
   80loPI   C4B 1280  15.474   2.428   8.874 -0.0024  0.2121 -0.4086
   81loPI    C1 1281   2.647   9.977  12.061  0.0332  0.0505  0.0268
   81loPI    C2 1282   2.743  10.347  12.178  0.0748 -0.0371  0.2762
   81loPI    C3 1283   2.563  10.097  12.433  0.2048 -0.2470  0.1657
   81loPI   PO4 1284   2.535   9.985  11.732 -0.0640  0.2688  0.0612
   81loPI   GL1 1285   2.213   9.949  11.411 -0.0269 -0.2833  0.1730
   81loPI   GL2 1286   2.219  10.216  11.331 -0.1828 -0.0722 -0.2191
   81loPI   C1A 1287   2.001   9.856  11.043 -0.1581 -0.0102 -0.0663
   81loPI   C2A 1288   2.014   9.892  10.736 -0.2657 -0.1683 -0.1341
   81loPI   C3A 1289   2.024   9.805  10.292  0.0540 -0.4388  0.0669
   81loPI   C4A 1290   2.114   9.927   9.852  0.1390 -0.1632 -0.0404
   81loPI   C5A 1291   2.299   9.893   9.425  0.0166 -0.0340  0.1481
   81loPI   C6A 1292   2.205   9.847   8.986 -0.1378 -0.1598 -0.0913
   81loPI   C1B 1293   2.501  10.136  11.055 -0.0330  0.3561 -0.1148
   81loPI   C2B 1294   2.439  10.244  10.689  0.0534 -0.1051 -0.3948
   81loPI   C3B 1295   2.443  10.117  10.339  0.2921 -0.0853 -0.3355
   81loPI   C4B 1296   2.447  10.301   9.947 -0.1707 -0.3359 -0.1921
   82loPI    C1 1297   8.251  10.014  11.452 -0.0023 -0.1958 -0.1792
   82loPI    C2 1298   8.506   9.921  11.746 -0.0916 -0.0025 -0.0379
   82loPI    C3 1299   8.172   9.706  11.694 -0.1692  0.0770  0.1228
   82loPI   PO4 1300   8.342  10.195  11.275 -0.1137  0.1615  0.0490
   82loPI   GL1 1301   8.250  10.512  11.083 -0.0370  0.2590 -0.0476
   82loPI   GL2 1302   8.602  10.621  11.102 -0.1485  0.1741  0.0349
   82loPI   C1A 1303   8.272  10.492  10.632 -0.0029 -0.0283  0.0810
   82loPI   C2A 1304   8.417  10.502  10.277  0.0760 -0.1735  0.0379
   82loPI   C3A 1305   8.330  10.533   9.928 -0.0757  0.0707  0.1174
   82loPI   C4A 1306   8.211  10.372   9.596  0.0479 -0.0186 -0.3184
   82loPI   C5A 1307   8.363  10.433   9.188  0.0016  0.0867  0.2050
   82loPI   C6A 1308   8.793  10.369   9.159 -0.3318 -0.2025 -0.0647
   82loPI   C1B 1309   8.785  10.477  10.806 -0.1123  0.0687  0.1203
   82loPI   C2B 1310   8.871  10.285  10.483 -0.2519  0.0247 -0.0340
   82loPI   C3B 1311   8.833  10.332  10.072 -0.2078 -0.3736  0.0449
   82loPI   C4B 1312   8.699  10.259   9.637  0.3237  0.1572  0.3301
   83loPI    C1 1313  10.098   3.520  11.083  0.0366 -0.1259 -0.0123
   83loPI    C2 1314   9.701   3.488  11.118  0.0374 -0.0879  0.0335
   83loPI    C3 1315   9.941   3.248  11.331  0.0382 -0.2184 -0.1122
   83loPI   PO4 1316  10.095   3.590  10.855 -0.4301 -0.2333  0.0326
   83loPI   GL1 1317  10.044   3.725  10.552  0.1342  0.0670  0.5594
   83loPI   GL2 1318  10.349   3.827  10.501 -0.1605  0.0216 -0.3331
   83loPI   C1A 1319   9.900   3.881  10.258  0.0899 -0.0083 -0.0055
   83loPI   C2A 1320   9.907   3.958   9.819 -0.3590  0.1719 -0.0222
   83loPI   C3A 1321   9.800   4.220   9.494 -0.5234  0.2062 -0.0441
   83loPI   C4A 1322   9.725   4.339   9.149 -0.3450 -0.3132  0.2101
   83loPI   C5A 1323   9.801   4.429   8.756  0.1983  0.0373 -0.2572
   83loPI   C6A 1324   9.858   4.442   8.408 -0.1799  0.3705 -0.1583
   83loPI   C1B 1325  10.344   3.771  10.046 -0.2318  0.1890 -0.0523
   83loPI   C2B 1326  10.276   3.863   9.547 -0.2249 -0.0670 -0.0225
   83loPI   C3B 1327  10.231   4.172   9.195 -0.0853 -0.0277 -0.0368
   83loPI   C4B 1328  10.291   4.261   8.782  0.3815  0.0261  0.0998
   84loPI    C1 1329   9.568  15.979  11.688  0.2094 -0.0211 -0.1786
   84loPI    C2 1330   9.568  15.817  12.054  0.0391  0.1791 -0.0880
   84loPI    C3 1331   9.902  15.982  11.908  0.2061 -0.2186 -0.1688
   84loPI   PO4 1332   9.494  15.794  11.457  0.0266  0.0684  0.0856
   84loPI   GL1 1333   9.506  15.974  11.041  0.2869  0.1332 -0.1950
   84loPI   GL2 1334   9.773  15.792  10.988 -0.2317  0.3550  0.0800
   84loPI   C1A 1335   9.261  16.123  10.658 -0.0461 -0.4160 -0.1375
   84loPI   C2A 1336   9.250  16.012  10.193 -0.1855 -0.1044 -0.0843
   84loPI   C3A 1337   9.197  16.100   9.831  0.1602  0.0191  0.0704
   84loPI   C4A 1338   9.367  16.172   9.552  0.3973  0.1313  0.1268
   84loPI   C5A 1339   9.527  16.348   9.161  0.1364  0.2066 -0.3119
   84loPI   C6A 1340   9.449  16.554   8.676 -0.1830  0.2171 -0.0330
   84loPI   C1B 1341   9.700  15.650  10.583  0.0032  0.2396  0.1228
   84loPI   C2B 1342   9.840  15.590  10.148  0.0675  0.0367  0.1507
   84loPI   C3B 1343   9.882  15.624   9.865 -0.1128 -0.0742 -0.0093
   84loPI   C4B 1344   9.990  15.404   9.484 -0.2112 -0.2983 -0.3464
   85loPI    C1 1345   4.148   7.460  11.755 -0.0414  0.1185 -0.0197
   85loPI    C2 1346   4.425   7.605  11.506  0.0547 -0.1381 -0.0654
   85loPI    C3 1347   4.533   7.361  11.804 -0.0863  0.0006  0.1012
   85loPI   PO4 1348   3.943   7.398  11.630  0.1109  0.0437 -0.1900
   85loPI   GL1 1349   3.802   7.496  11.332  0.0442  0.2526 -0.0558
   85loPI   GL2 1350   3.620   7.586  11.132  0.1040  0.2122  0.1615
   85loPI   C1A 1351   4.121   7.784  11.143 -0.1504 -0.0727 -0.2872
   85loPI   C2A 1352   4.091   7.960  10.705 -0.1152  0.0150 -0.0581
   85loPI   C3A 1353   4.136   7.883  10.247  0.0236  0.0468 -0.3647
   85loPI   C4A 1354   4.054   8.022   9.846 -0.1980  0.2075  0.2052
   85loPI   C5A 1355   3.919   8.139   9.376 -0.1319  0.3288 -0.1815
   85loPI   C6A 1356   3.844   7.873   8.982 -0.2037 -0.4699  0.0797
   85loPI   C1B 1357   3.753   7.568  10.628 -0.1179 -0.1427  0.0693
   85loPI   C2B 1358   3.724   7.594  10.162 -0.0459  0.1744 -0.0266
   85loPI   C3B 1359   3.579   7.741   9.817  0.1211  0.1656  0.1255
   85loPI   C4B 1360   3.431   7.823   9.298 -0.1200  0.0798  0.3008
   86loPI    C1 1361   3.615   2.233  11.877 -0.0363 -0.1416 -0.0154
   86loPI    C2 1362   3.593   2.161  12.270 -0.0457 -0.0223  0.0062
   86loPI    C3 1363   3.278   2.087  12.035 -0.0275 -0.1290  0.0153
   86loPI   PO4 1364   3.828   2.068  11.784  0.0601  0.2408  0.0431
   86loPI   GL1 1365   3.882   1.809  11.452 -0.4339 -0.2220  0.0949
   86loPI   GL2 1366   4.172   1.770  11.229 -0.0794 -0.4827 -0.1684
   86loPI   C1A 1367   3.631   1.983  11.065 -0.1216 -0.0932 -0.1755
   86loPI   C2A 1368   3.557   1.975  10.568  0.1194  0.1158 -0.1939
   86loPI   C3A 1369   3.575   1.955  10.158  0.2688  0.0967  0.0857
   86loPI   C4A 1370   3.688   2.004   9.651  0.1953  0.0425 -0.0626
   86loPI   C5A 1371   3.730   1.645   9.406 -0.1089 -0.2903 -0.2915
   86loPI   C6A 1372   3.432   1.549   9.013 -0.1085 -0.1153 -0.0728
   86loPI   C1B 1373   4.109   1.861  10.756 -0.0609  0.0393  0.5392
   86loPI   C2B 1374   4.039   1.721  10.320  0.0242 -0.1807 -0.1569
   86loPI   C3B 1375   4.119   1.792   9.883  0.3875  0.2268  0.1060
   86loPI   C4B 1376   4.181   1.894   9.457  0.1720 -0.0043 -0.0197
   87loPI    C1 1377   3.475   4.483  11.637 -0.0702 -0.1073 -0.0730
   87loPI    C2 1378   3.291   4.234  11.890  0.0721  0.0062  0.1445
   87loPI    C3 1379   3.621   4.429  12.005  0.2159 -0.0428 -0.1749
   87loPI   PO4 1380   3.504   4.371  11.463 -0.0166 -0.0239 -0.0587
   87loPI   GL1 1381   3.215   4.321  11.155  0.1601 -0.3208 -0.0703
   87loPI   GL2 1382   3.469   4.045  11.044 -0.1077 -0.2299 -0.0142
   87loPI   C1A 1383   3.095   4.311  10.764 -0.0221 -0.3130 -0.0011
   87loPI   C2A 1384   2.959   4.212  10.415  0.2361 -0.1420 -0.1261
   87loPI   C3A 1385   2.980   4.272  10.002 -0.2537  0.0578 -0.4741
   87loPI   C4A 1386   3.048   4.468   9.600 -0.0990  0.0031 -0.1268
   87loPI   C5A 1387   3.175   4.563   9.152 -0.2554 -0.0936  0.0918
   87loPI   C6A 1388   3.338   5.008   9.039 -0.1805  0.4020  0.1681
   87loPI   C1B 1389   3.503   4.103  10.612  0.1328 -0.0193  0.1938
   87loPI   C2B 1390   3.402   4.057  10.232 -0.0658  0.0466  0.4309
   87loPI   C3B 1391   3.469   4.053   9.850  0.1952  0.1314  0.3128
   87loPI   C4B 1392   3.510   4.175   9.436 -0.1052 -0.2065  0.4226
   88loPI    C1 1393  13.947   9.221  11.389  0.0801 -0.0774 -0.0642
   88loPI    C2 1394  14.200   9.158  11.691 -0.0160 -0.0704  0.0184
   88loPI    C3 1395  14.104   9.532  11.586  0.0205 -0.0727 -0.0235
   88loPI   PO4 1396  14.037   9.066  11.124 -0.0907 -0.0387 -0.1478
   88loPI   GL1 1397  13.813   9.100  10.662 -0.1438  0.1445  0.2720
   88loPI   GL2 1398  14.110   9.148  10.655 -0.1215  0.0430 -0.0399
   88loPI   C1A 1399  13.915   8.838  10.281  0.1741  0.1399  0.1326
   88loPI   C2A 1400  13.962   8.719   9.870  0.0986 -0.1156 -0.0874
   88loPI   C3A 1401  13.853   8.782   9.425  0.1400  0.0312 -0.2307
   88loPI   C4A 1402  13.708   8.917   9.051 -0.0972  0.2170  0.1152
   88loPI   C5A 1403  13.406   9.056   8.678  0.1541  0.0051 -0.1992
   88loPI   C6A 1404  12.894   9.101   8.611 -0.0031 -0.2729 -0.2366
   88loPI   C1B 1405  14.388   9.024  10.379 -0.1059 -0.0575  0.2088
   88loPI   C2B 1406  14.445   9.050  10.046 -0.0629  0.1529  0.0636
   88loPI   C3B 1407  14.294   8.967   9.582 -0.1952 -0.0840  0.0228
   88loPI   C4B 1408  14.248   9.055   9.093  0.0711 -0.1298 -0.0679
   89loPI    C1 1409   4.726   1.861  11.840 -0.0107  0.1584 -0.1788
   89loPI    C2 1410   4.827   2.093  12.150  0.0514 -0.1371  0.0263
   89loPI    C3 1411   4.537   1.820  12.190  0.0722 -0.1896 -0.1711
   89loPI   PO4 1412   4.960   1.870  11.707  0.1969 -0.2109 -0.1022
   89loPI   GL1 1413   5.225   1.661  11.284  0.1174 -0.0981  0.1755
   89loPI   GL2 1414   5.485   1.713  11.191  0.2530  0.1002  0.0753
   89loPI   C1A 1415   4.946   1.857  10.986 -0.1021 -0.0675 -0.3597
   89loPI   C2A 1416   4.993   1.875  10.596 -0.3169  0.1710  0.0681
   89loPI   C3A 1417   4.958   1.818  10.165 -0.0847 -0.2015  0.1854
   89loPI   C4A 1418   5.023   1.919   9.737  0.0846 -0.1332 -0.2854
   89loPI   C5A 1419   4.979   2.022   9.256 -0.0122  0.0500  0.2064
   89loPI   C6A 1420   4.692   2.280   8.953  0.0438 -0.3758 -0.0891
   89loPI   C1B 1421   5.511   1.643  10.774  0.3590 -0.3223 -0.0439
   89loPI   C2B 1422   5.436   1.660  10.279 -0.0956 -0.0214 -0.0775
   89loPI   C3B 1423   5.471   1.727   9.799 -0.2257 -0.0423  0.2282
   89loPI   C4B 1424   5.437   1.847   9.304  0.1062 -0.2151  0.0104
   90loPI    C1 1425  10.196   6.658  11.039  0.1372  0.0339 -0.0113
   90loPI    C2 1426  10.384   6.757  11.378  0.2126 -0.0893 -0.0163
   90loPI    C3 1427  10.164   6.423  11.361  0.0927 -0.0096 -0.0472
   90loPI   PO4 1428  10.167   6.926  10.974  0.3333  0.1928 -0.1822
   90loPI   GL1 1429   9.910   7.083  10.661 -0.0318 -0.3873  0.0103
   90loPI   GL2 1430  10.011   6.776  10.526  0.0161  0.1108 -0.1139
   90loPI   C1A 1431   9.696   6.949  10.214  0.0935 -0.1491  0.0668
   90loPI   C2A 1432   9.600   6.925   9.831 -0.0196  0.0903 -0.2841
   90loPI   C3A 1433   9.514   6.997   9.516  0.0532 -0.1528  0.0443
   90loPI   C4A 1434   9.447   7.000   9.056 -0.2449 -0.0669 -0.3160
   90loPI   C5A 1435   9.701   7.260   8.790 -0.0937 -0.1464 -0.2237
   90loPI   C6A 1436   9.590   7.692   8.648 -0.0882  0.1695  0.1282
   90loPI   C1B 1437  10.187   6.763  10.113 -0.0887 -0.2374  0.0826
   90loPI   C2B 1438  10.169   6.782   9.720 -0.2713  0.2235 -0.4908
   90loPI   C3B 1439   9.975   6.797   9.439 -0.0110 -0.3598  0.5629
   90loPI   C4B 1440   9.985   7.111   9.189  0.0839  0.0226 -0.3320
   91loPI    C1 1441   3.059  15.961  12.033 -0.0082 -0.0189  0.1697
   91loPI    C2 1442   2.833  15.970  12.363 -0.2601  0.1237 -0.0028
   91loPI    C3 1443   2.981  16.310  12.213  0.0055  0.0395  0.0632
   91loPI   PO4 1444   2.955  15.817  11.782 -0.0838  0.0562  0.2534
   91loPI   GL1 1445   3.070  15.869  11.366  0.0848  0.0495 -0.1036
   91loPI   GL2 1446   2.654  16.023  11.403 -0.1339 -0.0574  0.1045
   91loPI   C1A 1447   3.202  15.849  10.936  0.1927  0.2147 -0.0360
   91loPI   C2A 1448   3.152  15.834  10.419 -0.0573  0.1555  0.0969
   91loPI   C3A 1449   3.111  15.915   9.997 -0.3524  0.1188 -0.1447
   91loPI   C4A 1450   3.219  15.937   9.511 -0.0392 -0.1932  0.2638
   91loPI   C5A 1451   2.776  15.938   9.221 -0.0780  0.0141 -0.0535
   91loPI   C6A 1452   2.447  16.163   9.226  0.0422  0.0478  0.1078
   91loPI   C1B 1453   2.713  15.963  10.994  0.0825  0.0056  0.1349
   91loPI   C2B 1454   2.679  16.003  10.498 -0.2882 -0.2689  0.3431
   91loPI   C3B 1455   2.605  16.077  10.033 -0.0793 -0.1100 -0.0576
   91loPI   C4B 1456   2.790  16.154   9.672  0.0542  0.2206 -0.0188
   92loPI    C1 1457   1.271   2.774  11.743 -0.1520 -0.0032  0.0792
   92loPI    C2 1458   1.210   3.161  11.821  0.0251  0.0218  0.0972
   92loPI    C3 1459   1.013   2.882  12.029 -0.2330  0.1037 -0.0332
   92loPI   PO4 1460   1.195   2.736  11.490  0.1517  0.0997 -0.0236
   92loPI   GL1 1461   0.951   2.422  11.243 -0.2094 -0.0905  0.2515
   92loPI   GL2 1462   1.229   2.318  11.189  0.2795  0.0854 -0.3338
   92loPI   C1A 1463   0.737   2.047  11.009 -0.5234  0.1758 -0.0662
   92loPI   C2A 1464   0.860   1.968  10.620  0.0432  0.0482  0.2689
   92loPI   C3A 1465   0.919   1.649  10.290 -0.1089 -0.2732 -0.1025
   92loPI   C4A 1466   0.931   1.617   9.914 -0.0956  0.0701  0.1057
   92loPI   C5A 1467   0.998   1.640   9.454  0.2891  0.1827 -0.0316
   92loPI   C6A 1468   0.888   1.962   9.157 -0.0628 -0.1100 -0.0717
   92loPI   C1B 1469   1.451   2.361  10.764 -0.1102 -0.1411  0.2471
   92loPI   C2B 1470   1.586   2.355  10.352  0.1000  0.0586  0.5093
   92loPI   C3B 1471   1.757   2.228   9.935  0.1954  0.0777 -0.1859
   92loPI   C4B 1472   1.825   2.222   9.518  0.1898 -0.0307 -0.0634
   93loPI    C1 1473   1.320  10.766  11.990 -0.2387 -0.0781 -0.0825
   93loPI    C2 1474   1.395  10.403  12.140 -0.4257 -0.2026 -0.2834
   93loPI    C3 1475   1.060  10.595  12.242 -0.1930  0.0406  0.0467
   93loPI   PO4 1476   1.335  10.728  11.719 -0.1160 -0.3232 -0.1649
   93loPI   GL1 1477   1.187  10.759  11.446 -0.4742 -0.2925 -0.1154
   93loPI   GL2 1478   0.816  10.854  11.342  0.0513 -0.0224  0.4062
   93loPI   C1A 1479   1.408  10.625  11.038 -0.1797 -0.0267  0.1872
   93loPI   C2A 1480   1.596  10.501  10.566 -0.0239  0.0897 -0.2143
   93loPI   C3A 1481   1.397  10.591  10.110 -0.0446 -0.0667  0.0085
   93loPI   C4A 1482   1.394  10.709   9.704 -0.1284 -0.1805  0.1926
   93loPI   C5A 1483   1.742  10.820   9.470 -0.0722 -0.0841  0.0851
   93loPI   C6A 1484   1.917  10.593   9.124  0.1708  0.2038  0.0970
   93loPI   C1B 1485   0.889  10.828  10.842 -0.0342  0.0277 -0.2547
   93loPI   C2B 1486   1.058  10.721  10.453  0.1128  0.1500 -0.0568
   93loPI   C3B 1487   0.988  10.857  10.015  0.1231  0.1009 -0.0597
   93loPI   C4B 1488   0.982  11.016   9.633  0.0738 -0.2396 -0.0193
   94loPI    C1 1489   1.837  14.952  12.129 -0.0267 -0.0657 -0.1616
   94loPI    C2 1490   1.824  14.553  12.151 -0.1559 -0.0490  0.0970
   94loPI    C3 1491   1.576  14.774  12.373  0.0039  0.1782  0.0526
   94loPI   PO4 1492   1.964  14.884  11.832 -0.1700  0.2896 -0.0621
   94loPI   GL1 1493   2.070  14.589  11.456  0.0209  0.0164  0.1157
   94loPI   GL2 1494   1.830  14.422  11.504 -0.1837  0.1800  0.1102
   94loPI   C1A 1495   2.326  14.731  11.185  0.2489  0.0793  0.0114
   94loPI   C2A 1496   2.411  14.720  10.761 -0.1448 -0.3334  0.3130
   94loPI   C3A 1497   2.382  14.717  10.346 -0.2508 -0.1073  0.0221
   94loPI   C4A 1498   2.521  14.679   9.850 -0.2509 -0.0640 -0.0551
   94loPI   C5A 1499   2.504  14.401   9.388  0.2350 -0.4205  0.0935
   94loPI   C6A 1500   2.618  14.383   9.049  0.1844  0.0415  0.1430
   94loPI   C1B 1501   1.827  14.462  11.056  0.1602 -0.1379  0.1531
   94loPI   C2B 1502   1.945  14.445  10.621 -0.1776 -0.0062  0.4503
   94loPI   C3B 1503   1.904  14.297  10.179 -0.0506 -0.1533  0.1083
   94loPI   C4B 1504   2.072  14.493   9.746  0.0389  0.0158  0.1099
   95loPI    C1 1505  14.852   3.596  11.710  0.0438  0.2324  0.0408
   95loPI    C2 1506  14.515   3.537  11.917  0.0211 -0.1807 -0.1037
   95loPI    C3 1507  14.870   3.481  12.092  0.0126  0.0170 -0.0209
   95loPI   PO4 1508  14.661   3.668  11.412 -0.4434 -0.2158 -0.0203
   95loPI   GL1 1509  14.780   3.615  10.958 -0.0140 -0.1914  0.0593
   95loPI   GL2 1510  14.460   3.544  10.682 -0.1720 -0.0373  0.1813
   95loPI   C1A 1511  15.074   3.578  10.641 -0.0097 -0.0229  0.2195
   95loPI   C2A 1512  15.224   3.621  10.199  0.2193  0.2338 -0.2763
   95loPI   C3A 1513  15.268   3.678   9.841 -0.1390 -0.0393  0.1689
   95loPI   C4A 1514  15.571   3.736   9.526  0.0739 -0.2635  0.0148
   95loPI   C5A 1515  16.004   3.941   9.233  0.0853 -0.2089 -0.0407
   95loPI   C6A 1516  16.253   3.832   8.842  0.1725  0.1368 -0.0164
   95loPI   C1B 1517  14.535   3.590  10.258  0.1059  0.1565  0.0329
   95loPI   C2B 1518  14.653   3.519   9.845  0.0392  0.1169  0.1406
   95loPI   C3B 1519  14.967   3.620   9.497  0.0543  0.0328 -0.0105
   95loPI   C4B 1520  15.113   3.567   9.069  0.0814 -0.0630  0.2462
   96loPI    C1 1521   2.486  10.974  11.886  0.0101 -0.0091 -0.0224
   96loPI    C2 1522   2.364  10.732  12.180 -0.0309  0.0054 -0.0275
   96loPI    C3 1523   2.747  10.845  12.161 -0.0621  0.1392  0.1182
   96loPI   PO4 1524   2.353  10.935  11.716 -0.0601  0.2221  0.0666
   96loPI   GL1 1525   2.219  10.794  11.387  0.0353  0.1182 -0.1266
   96loPI   GL2 1526   2.526  10.641  11.303 -0.2542  0.1673  0.1125
   96loPI   C1A 1527   2.352  11.091  11.061  0.0240  0.1213  0.0165
   96loPI   C2A 1528   2.389  11.200  10.594  0.2959  0.0089  0.0687
   96loPI   C3A 1529   2.331  11.178  10.156  0.0681 -0.0046 -0.5211
   96loPI   C4A 1530   2.365  11.279   9.727 -0.0311 -0.0737 -0.1105
   96loPI   C5A 1531   2.274  11.322   9.316 -0.1252 -0.0624 -0.0809
   96loPI   C6A 1532   1.899  11.177   9.104 -0.0993 -0.0412  0.0745
   96loPI   C1B 1533   2.418  10.630  10.908  0.0493  0.3795 -0.1551
   96loPI   C2B 1534   2.467  10.711  10.414  0.3293 -0.2407  0.0168
   96loPI   C3B 1535   2.274  10.756   9.933  0.0194  0.1221 -0.4311
   96loPI   C4B 1536   2.220  10.797   9.502 -0.2599 -0.0036  0.1182
   97loPI    C1 1537   8.110   5.735  11.554 -0.1206  0.1679  0.4333
   97loPI    C2 1538   8.499   5.825  11.538 -0.1148  0.1089  0.1842
   97loPI    C3 1539   8.377   5.500  11.736 -0.0153  0.0100  0.0840
   97loPI   PO4 1540   8.015   5.722  11.250 -0.1043 -0.3496 -0.0801
   97loPI   GL1 1541   8.033   5.651  10.862  0.2392  0.0176 -0.1675
   97loPI   GL2 1542   7.865   5.351  10.938  0.3603 -0.0225  0.1637
   97loPI   C1A 1543   8.080   5.521  10.521  0.1194  0.5087  0.3202
   97loPI   C2A 1544   7.935   5.676  10.182  0.1964 -0.2836  0.2606
   97loPI   C3A 1545   7.806   5.659   9.785  0.1893 -0.1276 -0.0812
   97loPI   C4A 1546   7.814   5.698   9.430 -0.1438  0.1031  0.0405
   97loPI   C5A 1547   7.685   5.610   8.982 -0.1862  0.0950 -0.1701
   97loPI   C6A 1548   7.742   5.479   8.607  0.0362  0.1166  0.0939
   97loPI   C1B 1549   7.605   5.377  10.557 -0.1422 -0.4321  0.0564
   97loPI   C2B 1550   7.460   5.364  10.083  0.2414  0.2117 -0.0683
   97loPI   C3B 1551   7.321   5.320   9.851 -0.3477  0.3427  0.0917
   97loPI   C4B 1552   7.398   5.453   9.408  0.2270 -0.0610 -0.2740
   98loPI    C1 1553  11.982   9.055  11.476  0.0589  0.2068 -0.2987
   98loPI    C2 1554  12.324   9.192  11.632 -0.0289  0.1863 -0.0851
   98loPI    C3 1555  12.266   8.798  11.592 -0.1539  0.1756  0.1769
   98loPI   PO4 1556  11.847   9.264  11.167  0.0701  0.1722  0.1110
   98loPI   GL1 1557  11.520   9.355  10.924  0.2183 -0.0553  0.1588
   98loPI   GL2 1558  11.326   9.081  10.951 -0.0953 -0.3514  0.1165
   98loPI   C1A 1559  11.760   9.569  10.419 -0.1886  0.0178  0.1540
   98loPI   C2A 1560  11.999   9.356  10.080  0.3868  0.2948  0.0724
   98loPI   C3A 1561  11.965   9.327   9.618  0.1012 -0.1781 -0.1321
   98loPI   C4A 1562  11.931   9.404   9.095 -0.0581 -0.1927 -0.1762
   98loPI   C5A 1563  11.500   9.420   8.915  0.1244 -0.2053 -0.0927
   98loPI   C6A 1564  11.155   9.673   8.945 -0.0142  0.0618  0.0235
   98loPI   C1B 1565  11.394   9.042  10.529  0.2791 -0.0717 -0.0691
   98loPI   C2B 1566  11.518   9.119  10.127  0.1444  0.0891  0.1845
   98loPI   C3B 1567  11.545   9.035   9.706  0.3043  0.0686  0.1608
   98loPI   C4B 1568  11.648   9.076   9.290  0.1211  0.1052  0.0891
   99loPI    C1 1569   6.563  12.247  11.792 -0.2079 -0.0448 -0.0040
   99loPI    C2 1570   6.400  12.347  12.143  0.0141  0.0817  0.0651
   99loPI    C3 1571   6.703  12.087  12.131  0.1415  0.2319 -0.0116
   99loPI   PO4 1572   6.598  12.550  11.627 -0.0605 -0.0659 -0.2101
   99loPI   GL1 1573   6.524  12.856  11.235 -0.2400 -0.3613 -0.1229
   99loPI   GL2 1574   6.732  12.717  11.174  0.1694  0.1547 -0.2072
   99loPI   C1A 1575   6.679  13.197  10.993  0.3024  0.0810 -0.2461
   99loPI   C2A 1576   6.939  13.316  10.630 -0.2802  0.1262 -0.0952
   99loPI   C3A 1577   7.136  13.050  10.334  0.1094  0.1932 -0.0184
   99loPI   C4A 1578   7.115  12.969   9.833 -0.0716  0.0796 -0.0647
   99loPI   C5A 1579   6.780  13.098   9.489  0.2785  0.3306  0.6207
   99loPI   C6A 1580   6.768  13.258   8.944  0.1039 -0.1081 -0.0902
   99loPI   C1B 1581   6.817  12.803  10.731  0.0267 -0.0832  0.0824
   99loPI   C2B 1582   6.756  12.681  10.333 -0.0042  0.0277 -0.0572
   99loPI   C3B 1583   6.612  12.780   9.856 -0.0388  0.3074  0.0706
   99loPI   C4B 1584   6.333  12.863   9.510 -0.2150 -0.3051  0.0105
  100loPI    C1 1585  14.281  13.580  11.518 -0.0424  0.0111  0.1068
  100loPI    C2 1586  14.414  13.568  11.895  0.0955 -0.1575  0.0538
  100loPI    C3 1587  14.082  13.369  11.794 -0.0727  0.0773  0.1358
  100loPI   PO4 1588  14.254  13.843  11.432 -0.5693  0.0264  0.3614
  100loPI   GL1 1589  14.023  13.938  11.042 -0.0529  0.3796  0.0372
  100loPI   GL2 1590  14.198  14.261  11.063 -0.0995 -0.0658 -0.1605
  100loPI   C1A 1591  13.941  13.714  10.628 -0.1334 -0.3149  0.0711
  100loPI   C2A 1592  13.968  13.718  10.248  0.2154 -0.0624 -0.0177
  100loPI   C3A 1593  14.215  13.602   9.943  0.1095 -0.0379  0.1943
  100loPI   C4A 1594  14.221  13.668   9.524 -0.0089 -0.3135  0.2092
  100loPI   C5A 1595  14.430  13.804   9.137 -0.0135 -0.4298 -0.0428
  100loPI   C6A 1596  14.792  13.986   9.049 -0.2280  0.0635 -0.0665
  100loPI   C1B 1597  14.182  14.120  10.584  0.0220  0.1262  0.1462
  100loPI   C2B 1598  14.248  14.136  10.128 -0.0408  0.1510 -0.0668
  100loPI   C3B 1599  14.147  14.121   9.750 -0.1718  0.1918  0.1882
  100loPI   C4B 1600  14.137  14.161   9.351 -0.3066  0.2688 -0.1025
  101loPI    C1 1601   7.879  12.973  11.627 -0.2174 -0.1238  0.1274
  101loPI    C2 1602   7.809  13.123  11.991  0.0181 -0.0627  0.1493
  101loPI    C3 1603   8.046  13.320  11.736 -0.0990 -0.1342 -0.0171
  101loPI   PO4 1604   7.681  12.933  11.411  0.1288  0.1607  0.0975
  101loPI   GL1 1605   7.268  12.792  11.281  0.0921 -0.0473 -0.2219
  101loPI   GL2 1606   7.186  13.185  11.214  0.0912  0.1815 -0.1226
  101loPI   C1A 1607   7.286  12.646  10.942  0.0962 -0.0948  0.1853
  101loPI   C2A 1608   7.252  12.604  10.554  0.1542 -0.0967  0.0616
  101loPI   C3A 1609   7.240  12.527  10.131  0.0165  0.0120 -0.0158
  101loPI   C4A 1610   7.031  12.504   9.786 -0.1205 -0.1199 -0.1166
  101loPI   C5A 1611   6.788  12.606   9.394  0.1558  0.0101  0.2306
  101loPI   C6A 1612   6.381  12.351   9.280  0.1229  0.3178  0.1095
  101loPI   C1B 1613   7.354  13.134  10.795 -0.0535 -0.0943 -0.1296
  101loPI   C2B 1614   7.540  13.355  10.362 -0.1524 -0.1077  0.3387
  101loPI   C3B 1615   7.458  13.338   9.887  0.0747  0.2325 -0.0508
  101loPI   C4B 1616   7.313  13.255   9.494 -0.1776 -0.1674 -0.3426
  102loPI    C1 1617   4.842   4.081  11.878  0.0686 -0.1076  0.0262
  102loPI    C2 1618   5.152   4.219  12.088  0.0206 -0.0001  0.0273
  102loPI    C3 1619   5.004   3.856  12.166  0.1931 -0.0826 -0.0237
  102loPI   PO4 1620   4.942   4.213  11.634 -0.2105  0.0598  0.0087
  102loPI   GL1 1621   5.040   4.572  11.456 -0.2632 -0.0940 -0.0388
  102loPI   GL2 1622   4.857   4.439  11.133  0.1579 -0.2710  0.2484
  102loPI   C1A 1623   5.247   4.807  10.994  0.0550  0.0481 -0.1881
  102loPI   C2A 1624   5.222   4.808  10.568 -0.0082  0.3540  0.3341
  102loPI   C3A 1625   5.172   4.822  10.177 -0.2416 -0.0836 -0.0270
  102loPI   C4A 1626   5.209   4.950   9.755 -0.0863 -0.0405  0.2761
  102loPI   C5A 1627   5.284   4.967   9.314 -0.1486 -0.0213  0.0660
  102loPI   C6A 1628   5.255   5.228   8.945  0.1240  0.4143 -0.3008
  102loPI   C1B 1629   4.846   4.524  10.676  0.0844  0.0138  0.1075
  102loPI   C2B 1630   4.787   4.466  10.116 -0.1071  0.0067  0.1994
  102loPI   C3B 1631   4.722   4.449   9.667  0.1467 -0.1436  0.0677
  102loPI   C4B 1632   4.534   4.407   9.273 -0.0143 -0.0650  0.1724
  103loPI    C1 1633  14.853   7.446  11.373 -0.2475  0.1676  0.0975
  103loPI    C2 1634  14.645   7.419  11.714 -0.0213 -0.1888  0.2130
  103loPI    C3 1635  14.849   7.103  11.579  0.1507  0.0455 -0.0889
  103loPI   PO4 1636  14.639   7.537  11.230  0.0187 -0.0771 -0.0505
  103loPI   GL1 1637  14.336   7.509  10.922 -0.0261  0.2965 -0.1580
  103loPI   GL2 1638  14.281   7.783  10.930 -0.2541  0.0664 -0.0701
  103loPI   C1A 1639  14.309   7.499  10.431 -0.2259 -0.0276  0.2134
  103loPI   C2A 1640  14.331   7.426  10.036 -0.4149  0.0616 -0.1542
  103loPI   C3A 1641  14.498   7.362   9.677 -0.0770  0.1933 -0.2470
  103loPI   C4A 1642  14.504   7.285   9.245  0.1181 -0.0938 -0.2174
  103loPI   C5A 1643  14.280   7.131   8.870  0.1547  0.1555 -0.0353
  103loPI   C6A 1644  14.028   6.728   8.778  0.3968  0.2358 -0.1832
  103loPI   C1B 1645  14.338   8.036  10.572 -0.0874  0.0123  0.2778
  103loPI   C2B 1646  14.472   8.068  10.199 -0.0217 -0.0218  0.0329
  103loPI   C3B 1647  14.475   7.881   9.804  0.1426 -0.1516  0.0253
  103loPI   C4B 1648  14.369   7.930   9.405 -0.2159  0.0701  0.0174
  104loPI    C1 1649   9.799  14.040  11.508  0.0022 -0.2082  0.0460
  104loPI    C2 1650   9.554  13.836  11.750 -0.0723  0.0189  0.1653
  104loPI    C3 1651   9.445  14.196  11.612  0.0460 -0.0316 -0.0647
  104loPI   PO4 1652   9.835  13.873  11.272  0.1452  0.1497  0.3388
  104loPI   GL1 1653   9.701  13.846  10.883  0.2806  0.1725 -0.1911
  104loPI   GL2 1654   9.515  14.049  10.817 -0.1739  0.0329  0.0907
  104loPI   C1A 1655   9.773  13.729  10.478  0.1378 -0.1638  0.2441
  104loPI   C2A 1656   9.695  13.769  10.011  0.0401 -0.1748  0.1220
  104loPI   C3A 1657   9.610  13.845   9.682  0.1479  0.2252  0.0683
  104loPI   C4A 1658   9.663  13.964   9.279  0.1139 -0.2311  0.0461
  104loPI   C5A 1659   9.814  14.029   8.961  0.0959 -0.1300 -0.2969
  104loPI   C6A 1660  10.127  14.001   8.624  0.4073  0.1490 -0.1085
  104loPI   C1B 1661   9.369  13.949  10.487 -0.0593 -0.0699  0.0474
  104loPI   C2B 1662   9.244  13.954  10.023 -0.0509 -0.6424  0.0016
  104loPI   C3B 1663   9.233  14.074   9.590  0.0826 -0.3102 -0.0208
  104loPI   C4B 1664   9.358  14.373   9.349  0.1126  0.0100 -0.0743
  105loPI    C1 1665   1.915  17.060  12.161 -0.0749  0.0025 -0.0202
  105loPI    C2 1666   1.845  17.429  12.300 -0.3254 -0.0276 -0.0617
  105loPI    C3 1667   1.713  17.110  12.502 -0.0992 -0.0972 -0.0197
  105loPI   PO4 1668   2.263  17.076  12.039 -0.0428  0.0842 -0.0434
  105loPI   GL1 1669   2.302  17.004  11.584  0.3355  0.0494  0.2583
  105loPI   GL2 1670   2.512  17.064  11.397  0.1299 -0.0602  0.3769
  105loPI   C1A 1671   2.119  16.836  11.179  0.0753  0.0131 -0.0115
  105loPI   C2A 1672   2.252  16.753  10.811  0.0854 -0.5030  0.1123
  105loPI   C3A 1673   2.100  16.773  10.331 -0.0339 -0.2113  0.1420
  105loPI   C4A 1674   2.112  16.796   9.862 -0.2378 -0.0809  0.3163
  105loPI   C5A 1675   2.194  16.930   9.434  0.3577  0.1163  0.2773
  105loPI   C6A 1676   2.195  17.025   8.976  0.2938  0.1238  0.1220
  105loPI   C1B 1677   2.587  17.005  11.052  0.1083  0.0176  0.0560
  105loPI   C2B 1678   2.646  17.033  10.614  0.2407  0.1375  0.0399
  105loPI   C3B 1679   2.522  17.059  10.202 -0.0790 -0.1024  0.1988
  105loPI   C4B 1680   2.552  17.147   9.811  0.0436 -0.0028 -0.0054
  106loPI    C1 1681   9.452   3.058  11.323 -0.1111  0.0759  0.1763
  106loPI    C2 1682   9.226   2.734  11.384 -0.1848  0.1412  0.2514
  106loPI    C3 1683   9.229   3.029  11.654 -0.1133  0.2004  0.1858
  106loPI   PO4 1684   9.426   3.123  10.973  0.1193 -0.0603 -0.1665
  106loPI   GL1 1685   9.152   3.360  10.763  0.0283 -0.1039  0.1889
  106loPI   GL2 1686   8.926   3.524  10.883 -0.1050  0.0789 -0.1369
  106loPI   C1A 1687   9.020   3.260  10.380  0.1816  0.3822 -0.0828
  106loPI   C2A 1688   9.021   3.219   9.888 -0.0384 -0.1705 -0.0861
  106loPI   C3A 1689   8.908   3.178   9.501  0.1422 -0.3230 -0.1347
  106loPI   C4A 1690   8.801   3.260   9.053 -0.4322  0.3103 -0.0461
  106loPI   C5A 1691   8.732   3.594   8.583  0.0593 -0.1170 -0.0943
  106loPI   C6A 1692   8.615   4.050   8.547 -0.2616  0.0571  0.1804
  106loPI   C1B 1693   8.752   3.648  10.563  0.2931  0.0458  0.2630
  106loPI   C2B 1694   8.839   3.654  10.068  0.2539  0.0831  0.0782
  106loPI   C3B 1695   8.897   3.673   9.489 -0.1992 -0.2774 -0.4774
  106loPI   C4B 1696   8.789   3.769   9.095 -0.0944  0.1450  0.1159
  107loPI    C1 1697   7.239   6.035  11.480  0.1520  0.3856 -0.0092
  107loPI    C2 1698   6.845   6.088  11.437  0.0944 -0.0906 -0.1341
  107loPI    C3 1699   6.996   6.000  11.797  0.0982  0.1539 -0.0738
  107loPI   PO4 1700   7.342   6.215  11.271 -0.0384 -0.1009  0.2070
  107loPI   GL1 1701   7.469   6.322  10.896  0.0417 -0.1686  0.1702
  107loPI   GL2 1702   7.484   5.941  10.715 -0.0070 -0.1366 -0.1885
  107loPI   C1A 1703   7.426   6.325  10.413  0.2398  0.0467  0.2485
  107loPI   C2A 1704   7.387   6.380   9.977 -0.0001 -0.0228  0.0720
  107loPI   C3A 1705   7.263   6.371   9.593  0.3097  0.1971  0.0717
  107loPI   C4A 1706   7.112   6.465   9.136 -0.0404 -0.0209 -0.0677
  107loPI   C5A 1707   6.899   6.310   8.720 -0.1951 -0.3495  0.0419
  107loPI   C6A 1708   6.728   5.918   8.708 -0.0011 -0.1823  0.0365
  107loPI   C1B 1709   7.444   5.842  10.285 -0.0927 -0.1075 -0.0268
  107loPI   C2B 1710   7.378   5.883   9.808  0.0459  0.2246 -0.0038
  107loPI   C3B 1711   7.295   5.959   9.339 -0.3245  0.2085 -0.0331
  107loPI   C4B 1712   7.507   6.185   8.915 -0.0197  0.0313 -0.0718
  108loPI    C1 1713  10.673  10.054  11.587  0.1781 -0.0543 -0.1370
  108loPI    C2 1714  10.623  10.353  11.848  0.0650 -0.1354 -0.0649
  108loPI    C3 1715  10.836  10.031  11.951  0.1965 -0.0755 -0.1466
  108loPI   PO4 1716  10.439  10.024  11.472  0.2428  0.0772 -0.3214
  108loPI   GL1 1717  10.137  10.213  11.192 -0.0397  0.1461  0.0785
  108loPI   GL2 1718   9.968   9.973  11.008  0.0987 -0.0563  0.1434
  108loPI   C1A 1719  10.259  10.321  10.785 -0.1991  0.1820  0.0672
  108loPI   C2A 1720  10.172  10.247  10.394  0.2100  0.2408 -0.1203
  108loPI   C3A 1721  10.155  10.306   9.968 -0.0958  0.0186 -0.0783
  108loPI   C4A 1722  10.024  10.250   9.591  0.0340  0.2749 -0.1685
  108loPI   C5A 1723   9.776  10.356   9.192  0.0015 -0.0178  0.1275
  108loPI   C6A 1724   9.700  10.538   8.870  0.1456 -0.3022  0.3705
  108loPI   C1B 1725   9.831   9.941  10.574  0.1700 -0.0041 -0.0358
  108loPI   C2B 1726   9.816   9.925  10.150  0.2995 -0.0265 -0.5758
  108loPI   C3B 1727   9.743   9.885   9.741  0.0033 -0.1046 -0.2166
  108loPI   C4B 1728   9.586   9.973   9.486  0.2089 -0.0241 -0.3810
  109loPI    C1 1729  12.841  11.409  11.500  0.3528 -0.1035 -0.0563
  109loPI    C2 1730  12.970  11.155  11.780 -0.0896 -0.1140  0.1470
  109loPI    C3 1731  12.785  11.493  11.888  0.1730  0.1228 -0.1286
  109loPI   PO4 1732  13.103  11.534  11.387 -0.3745  0.0110  0.1810
  109loPI   GL1 1733  12.940  11.663  10.974 -0.3320 -0.2021 -0.0742
  109loPI   GL2 1734  12.705  11.727  11.152 -0.0182  0.0423  0.0248
  109loPI   C1A 1735  12.819  11.734  10.539  0.1560  0.0152 -0.2646
  109loPI   C2A 1736  12.747  11.712  10.083  0.0707  0.0257  0.1685
  109loPI   C3A 1737  12.722  11.881   9.662  0.1578  0.0556  0.0583
  109loPI   C4A 1738  12.833  11.756   9.361 -0.2253 -0.1051 -0.0001
  109loPI   C5A 1739  13.008  11.663   8.847  0.1465  0.0967 -0.2914
  109loPI   C6A 1740  12.821  11.759   8.396 -0.0054 -0.0065 -0.2096
  109loPI   C1B 1741  12.488  11.560  10.844  0.2938 -0.2174  0.0229
  109loPI   C2B 1742  12.388  11.444  10.396  0.1167 -0.5059 -0.0031
  109loPI   C3B 1743  12.320  11.464  10.019 -0.1813  0.0021 -0.0048
  109loPI   C4B 1744  12.333  11.587   9.613  0.1764  0.1312 -0.4615
  110loPI    C1 1745  12.407   8.289  11.334 -0.0446  0.0449  0.0918
  110loPI    C2 1746  12.066   8.308  11.543 -0.0454 -0.1336  0.1081
  110loPI    C3 1747  12.414   8.252  11.732  0.0029  0.1228  0.0983
  110loPI   PO4 1748  12.343   8.148  11.037 -0.1842 -0.0834  0.1619
  110loPI   GL1 1749  12.489   7.964  10.622 -0.2520  0.2434 -0.1421
  110loPI   GL2 1750  12.562   8.263  10.558  0.1196 -0.0520 -0.0359
  110loPI   C1A 1751  12.613   7.993  10.185 -0.2125 -0.2780  0.1666
  110loPI   C2A 1752  12.670   8.118   9.799  0.1419  0.2398  0.0224
  110loPI   C3A 1753  12.774   7.879   9.326 -0.1490  0.3801 -0.2666
  110loPI   C4A 1754  12.936   7.796   8.926 -0.0386  0.0845  0.0228
  110loPI   C5A 1755  13.212   8.002   8.707 -0.2740 -0.0981  0.4324
  110loPI   C6A 1756  13.662   8.102   8.804 -0.4444  0.1999 -0.0825
  110loPI   C1B 1757  12.566   8.501  10.316 -0.0694  0.1281  0.2359
  110loPI   C2B 1758  12.578   8.629   9.925 -0.2501  0.1087  0.3880
  110loPI   C3B 1759  12.560   8.717   9.559 -0.0284 -0.1942 -0.2946
  110loPI   C4B 1760  12.660   8.713   9.166 -0.0667  0.0853  0.0111
  111loPI    C1 1761  15.561  14.293  11.793  0.1289 -0.3129 -0.1729
  111loPI    C2 1762  15.620  14.093  12.135  0.2784 -0.0627 -0.0497
  111loPI    C3 1763  15.298  14.327  12.093  0.1204 -0.2992 -0.1819
  111loPI   PO4 1764  15.506  14.161  11.625 -0.0939 -0.0446  0.0286
  111loPI   GL1 1765  15.424  14.146  11.277  0.0089  0.1855 -0.1595
  111loPI   GL2 1766  15.537  13.886  11.191 -0.2484  0.6925 -0.0671
  111loPI   C1A 1767  15.483  14.399  10.985  0.1907 -0.0327 -0.3181
  111loPI   C2A 1768  15.422  14.401  10.655  0.0648 -0.1994 -0.2804
  111loPI   C3A 1769  15.492  14.441  10.207  0.0015 -0.0100  0.3848
  111loPI   C4A 1770  15.546  14.447   9.721 -0.0649  0.2612 -0.0044
  111loPI   C5A 1771  15.991  14.614   9.536 -0.4668 -0.1949  0.1229
  111loPI   C6A 1772  16.311  14.532   9.242  0.0632  0.0633  0.0463
  111loPI   C1B 1773  15.488  13.921  10.702 -0.2728  0.1748 -0.0682
  111loPI   C2B 1774  15.523  13.924  10.288 -0.0251 -0.1362  0.0672
  111loPI   C3B 1775  15.546  13.996   9.910 -0.1210  0.2683  0.1669
  111loPI   C4B 1776  15.440  13.972   9.428 -0.1265  0.0383  0.0465
  112loPI    C1 1777   5.305   7.944  11.688 -0.1694  0.0216  0.5589
  112loPI    C2 1778   5.160   8.160  11.384  0.0191 -0.3892  0.1653
  112loPI    C3 1779   5.226   8.332  11.739 -0.0952  0.1273 -0.0555
  112loPI   PO4 1780   5.432   7.778  11.465  0.0252 -0.0404  0.2298
  112loPI   GL1 1781   5.590   7.965  11.127 -0.0918  0.2180 -0.1109
  112loPI   GL2 1782   5.393   8.305  11.010  0.1211  0.2599 -0.1181
  112loPI   C1A 1783   5.530   7.851  10.759  0.0683 -0.0400  0.3216
  112loPI   C2A 1784   5.443   7.771  10.384 -0.2663 -0.1206  0.3508
  112loPI   C3A 1785   5.382   7.777   9.933  0.3189 -0.0391 -0.0297
  112loPI   C4A 1786   5.376   7.848   9.482 -0.2831 -0.1114 -0.5210
  112loPI   C5A 1787   5.351   7.845   9.081 -0.0229  0.0871 -0.0878
  112loPI   C6A 1788   5.467   8.066   8.703 -0.2986 -0.2153  0.1461
  112loPI   C1B 1789   5.547   8.320  10.684  0.3313  0.1543 -0.0742
  112loPI   C2B 1790   5.412   8.260  10.143  0.0147 -0.2279  0.3730
  112loPI   C3B 1791   5.288   8.410   9.724 -0.3230 -0.2358  0.1271
  112loPI   C4B 1792   5.221   8.261   9.273  0.2952 -0.2399  0.4565
  113loPI    C1 1793   1.367  17.051  12.107 -0.1364  0.1309 -0.3052
  113loPI    C2 1794   1.293  17.435  12.193  0.1890  0.1099  0.1026
  113loPI    C3 1795   1.019  17.156  12.275  0.0235  0.2313 -0.0292
  113loPI   PO4 1796   1.503  17.022  11.856 -0.0220 -0.1476 -0.3400
  113loPI   GL1 1797   1.573  17.149  11.492 -0.0536  0.2235 -0.0782
  113loPI   GL2 1798   1.407  17.389  11.394  0.2029 -0.1858 -0.0081
  113loPI   C1A 1799   1.957  17.330  11.350  0.0280 -0.4785  0.1144
  113loPI   C2A 1800   2.059  17.261  10.900 -0.2244  0.2740  0.0511
  113loPI   C3A 1801   2.098  17.230  10.462  0.0313  0.1514  0.0182
  113loPI   C4A 1802   2.015  17.199  10.076 -0.2604 -0.0003 -0.0472
  113loPI   C5A 1803   1.982  17.414   9.606  0.3299 -0.0391  0.2499
  113loPI   C6A 1804   1.791  17.268   9.264  0.1262 -0.0811 -0.2706
  113loPI   C1B 1805   1.506  17.464  10.961  0.1736 -0.0943  0.2740
  113loPI   C2B 1806   1.557  17.433  10.488  0.2117 -0.1339  0.2083
  113loPI   C3B 1807   1.522  17.536  10.011  0.1137  0.0922 -0.0658
  113loPI   C4B 1808   1.481  17.680   9.516  0.3350  0.0504  0.2155
  114loPI    C1 1809  10.030   3.901  11.419 -0.1415  0.0297 -0.0249
  114loPI    C2 1810  10.028   4.173  11.712 -0.1075 -0.0490  0.0486
  114loPI    C3 1811   9.969   3.786  11.797 -0.1035 -0.0714 -0.0490
  114loPI   PO4 1812   9.869   3.935  11.262 -0.0655  0.1169 -0.1007
  114loPI   GL1 1813   9.706   4.011  10.851  0.0158 -0.1865 -0.3348
  114loPI   GL2 1814   9.400   3.871  11.028  0.0654 -0.1337 -0.1312
  114loPI   C1A 1815   9.570   4.169  10.463  0.2398  0.2916  0.0762
  114loPI   C2A 1816   9.461   4.191   9.979  0.0389  0.0214  0.1315
  114loPI   C3A 1817   9.333   4.409   9.592  0.1541  0.0435  0.0378
  114loPI   C4A 1818   9.118   4.482   9.199 -0.0500 -0.0703 -0.0608
  114loPI   C5A 1819   9.245   4.610   8.831 -0.1250 -0.0119 -0.1373
  114loPI   C6A 1820   9.391   4.421   8.438 -0.2430 -0.3681  0.1262
  114loPI   C1B 1821   9.129   3.895  10.655 -0.1834  0.0985 -0.0465
  114loPI   C2B 1822   9.037   4.058  10.254 -0.0645  0.1046 -0.0379
  114loPI   C3B 1823   8.977   4.087   9.817 -0.1879  0.1785  0.0846
  114loPI   C4B 1824   8.755   4.261   9.436  0.2632  0.0580  0.0008
  115loPI    C1 1825  10.195  16.675  11.399 -0.0245  0.0787 -0.2652
  115loPI    C2 1826   9.885  16.886  11.537  0.0221 -0.0526  0.0478
  115loPI    C3 1827  10.248  17.053  11.517 -0.0103  0.0080 -0.0406
  115loPI   PO4 1828  10.091  16.536  11.100 -0.1138  0.2379 -0.0011
  115loPI   GL1 1829  10.123  16.665  10.697  0.1673  0.1036 -0.4463
  115loPI   GL2 1830  10.384  16.285  10.706  0.0368 -0.2280 -0.2131
  115loPI   C1A 1831   9.931  16.683  10.280  0.0845 -0.0199  0.0844
  115loPI   C2A 1832   9.849  16.712   9.868  0.0048 -0.1100  0.2781
  115loPI   C3A 1833   9.876  16.603   9.529 -0.1367 -0.0244 -0.2203
  115loPI   C4A 1834  10.007  16.421   9.137 -0.2591 -0.1173 -0.0994
  115loPI   C5A 1835   9.838  16.228   8.755 -0.2813  0.0112 -0.3186
  115loPI   C6A 1836   9.396  16.015   8.807  0.0393  0.2064  0.2116
  115loPI   C1B 1837  10.265  16.354  10.319 -0.3817  0.1138 -0.0113
  115loPI   C2B 1838  10.223  16.390   9.919  0.0652  0.2493  0.1586
  115loPI   C3B 1839  10.372  16.437   9.532 -0.1671  0.1504  0.1218
  115loPI   C4B 1840  10.455  16.339   9.226 -0.1744 -0.0760  0.2472
  116loPI    C1 1841   3.465  16.516  12.225  0.2506 -0.1796  0.1189
  116loPI    C2 1842   3.200  16.813  12.260  0.1810 -0.2116 -0.1159
  116loPI    C3 1843   3.416  16.700  12.577  0.0751 -0.0360  0.0216
  116loPI   PO4 1844   3.484  16.468  11.921  0.1767 -0.2288  0.1433
  116loPI   GL1 1845   3.373  16.681  11.499  0.1281 -0.0174 -0.3448
  116loPI   GL2 1846   3.137  16.865  11.327  0.0411 -0.2204 -0.0260
  116loPI   C1A 1847   3.526  16.614  11.057 -0.4169 -0.2659  0.1803
  116loPI   C2A 1848   3.599  16.684  10.668 -0.0123  0.1535  0.0695
  116loPI   C3A 1849   3.420  16.634  10.265  0.1505  0.0764  0.3447
  116loPI   C4A 1850   3.452  16.650   9.871 -0.2568 -0.1065  0.1665
  116loPI   C5A 1851   3.613  16.606   9.441  0.4745  0.0478 -0.0677
  116loPI   C6A 1852   4.057  16.612   9.189  0.0143 -0.2558  0.0296
  116loPI   C1B 1853   3.074  16.833  10.924 -0.1381 -0.1221  0.0946
  116loPI   C2B 1854   3.069  16.862  10.503  0.0098 -0.2113 -0.0681
  116loPI   C3B 1855   3.008  16.870  10.133  0.3107 -0.1362  0.1055
  116loPI   C4B 1856   3.053  16.937   9.697 -0.0828  0.0407  0.1701
  117loPI    C1 1857   1.414   7.064  11.835  0.2300  0.2876  0.2127
  117loPI    C2 1858   1.627   6.738  11.741 -0.0979  0.1108  0.0661
  117loPI    C3 1859   1.428   6.754  12.088 -0.2609  0.0613 -0.0242
  117loPI   PO4 1860   1.301   7.107  11.617 -0.4029 -0.1660 -0.1463
  117loPI   GL1 1861   1.537   7.075  11.298 -0.1462 -0.0583  0.0254
  117loPI   GL2 1862   1.773   7.312  11.120  0.1885 -0.0670  0.1207
  117loPI   C1A 1863   1.425   7.079  10.856 -0.3964 -0.0215  0.2357
  117loPI   C2A 1864   1.335   7.053  10.345  0.3661  0.0135 -0.1626
  117loPI   C3A 1865   1.395   7.121   9.948  0.0112  0.1777 -0.0849
  117loPI   C4A 1866   1.468   7.153   9.496  0.0550 -0.3433 -0.1905
  117loPI   C5A 1867   1.666   7.374   9.147 -0.0075 -0.0529 -0.0431
  117loPI   C6A 1868   1.346   7.379   8.796  0.0890  0.1290  0.0283
  117loPI   C1B 1869   1.778   7.395  10.618 -0.0537  0.3906 -0.0442
  117loPI   C2B 1870   1.824   7.320  10.159 -0.0901 -0.1591  0.1901
  117loPI   C3B 1871   1.849   7.406   9.799  0.1342  0.0403 -0.0576
  117loPI   C4B 1872   1.688   7.772   9.480 -0.1667 -0.0173  0.2217
  118loPI    C1 1873   9.562   4.258  11.472  0.1425 -0.2026 -0.0111
  118loPI    C2 1874   9.276   4.362  11.731  0.1004 -0.0752 -0.1081
  118loPI    C3 1875   9.542   4.080  11.830 -0.0761 -0.2161 -0.0290
  118loPI   PO4 1876   9.433   4.288  11.241  0.1260 -0.2061 -0.1989
  118loPI   GL1 1877   9.297   4.342  10.858 -0.3256  0.0055 -0.1082
  118loPI   GL2 1878   9.587   4.554  10.794  0.3170 -0.1067 -0.5080
  118loPI   C1A 1879   9.218   4.516  10.412 -0.0783  0.0307 -0.3198
  118loPI   C2A 1880   9.046   4.530  10.110 -0.3768  0.0725 -0.0007
  118loPI   C3A 1881   8.909   4.584   9.774  0.0428 -0.0420  0.0696
  118loPI   C4A 1882   8.759   4.717   9.353  0.0670 -0.0920 -0.1291
  118loPI   C5A 1883   8.876   4.886   8.963 -0.2575 -0.1532 -0.0655
  118loPI   C6A 1884   8.795   5.102   8.538 -0.0583  0.1205 -0.0800
  118loPI   C1B 1885   9.638   4.770  10.363 -0.3475  0.1435  0.2344
  118loPI   C2B 1886   9.397   4.907  10.043 -0.0355 -0.1030  0.0213
  118loPI   C3B 1887   9.233   4.925   9.690  0.2382  0.0846  0.0580
  118loPI   C4B 1888   9.219   4.991   9.315 -0.0120  0.2695  0.0478
  119loPI    C1 1889   1.855   0.738  11.934 -0.3758  0.0138  0.2314
  119loPI    C2 1890   1.871   1.070  12.155 -0.1852  0.0712  0.1343
  119loPI    C3 1891   2.052   0.737  12.282  0.1679  0.1828 -0.0639
  119loPI   PO4 1892   1.603   0.815  11.752 -0.1431  0.1496 -0.0393
  119loPI   GL1 1893   1.706   0.878  11.389 -0.2240 -0.1186  0.1606
  119loPI   GL2 1894   1.805   1.116  11.224  0.2622  0.0750 -0.0329
  119loPI   C1A 1895   1.857   0.577  11.143  0.0503  0.1738  0.0732
  119loPI   C2A 1896   1.967   0.508  10.653 -0.4243  0.1713 -0.2567
  119loPI   C3A 1897   1.983   0.575  10.254  0.0699  0.1144  0.1472
  119loPI   C4A 1898   1.856   0.707   9.850 -0.0647  0.2199 -0.0688
  119loPI   C5A 1899   2.132   0.781   9.420  0.1130  0.0850 -0.1149
  119loPI   C6A 1900   2.601   0.693   9.349 -0.1415 -0.1218 -0.0775
  119loPI   C1B 1901   1.873   1.109  10.760  0.1691  0.2452 -0.0063
  119loPI   C2B 1902   1.935   1.209  10.306 -0.2426 -0.0916  0.1274
  119loPI   C3B 1903   1.833   1.220   9.898  0.3241  0.2458 -0.0966
  119loPI   C4B 1904   1.874   1.275   9.538 -0.0470  0.1111  0.0406
  120loPI    C1 1905   9.446   0.074  11.494 -0.0582  0.1633 -0.2204
  120loPI    C2 1906   9.814   0.201  11.401  0.1184 -0.1149  0.0761
  120loPI    C3 1907   9.714   0.142  11.783 -0.2091 -0.1258 -0.0083
  120loPI   PO4 1908   9.426  -0.171  11.333  0.0682  0.0609  0.0575
  120loPI   GL1 1909   9.167  -0.330  10.944 -0.1367 -0.1803 -0.0936
  120loPI   GL2 1910   9.118  -0.601  10.827  0.0503  0.1563  0.2568
  120loPI   C1A 1911   9.033  -0.102  10.561  0.0753  0.1444 -0.0104
  120loPI   C2A 1912   9.122  -0.157  10.138  0.3026 -0.0308  0.1317
  120loPI   C3A 1913   9.238  -0.092   9.755  0.1334 -0.0552 -0.0481
  120loPI   C4A 1914   9.096   0.154   9.337 -0.0009 -0.1370 -0.2626
  120loPI   C5A 1915   8.983   0.260   8.892 -0.0604 -0.0543  0.2116
  120loPI   C6A 1916   8.955  -0.085   8.612  0.1144  0.0517  0.1558
  120loPI   C1B 1917   8.979  -0.661  10.381  0.0186 -0.1070 -0.1011
  120loPI   C2B 1918   8.851  -0.608   9.930 -0.4669  0.1052 -0.2020
  120loPI   C3B 1919   8.868  -0.837   9.504 -0.1445 -0.1987  0.0606
  120loPI   C4B 1920   8.508  -0.635   9.175  0.0530 -0.4782  0.2451
  121loPI    C1 1921   4.001  12.725  12.115  0.1254  0.0536 -0.1090
  121loPI    C2 1922   3.782  12.874  12.414 -0.0558 -0.2001 -0.1114
  121loPI    C3 1923   4.181  12.874  12.439 -0.0558  0.1547 -0.0531
  121loPI   PO4 1924   3.745  12.662  11.918 -0.0308  0.1162 -0.3793
  121loPI   GL1 1925   3.798  12.356  11.608  0.2134  0.2418  0.0667
  121loPI   GL2 1926   3.896  11.988  11.530  0.1000  0.0237 -0.2552
  121loPI   C1A 1927   3.570  12.526  11.329 -0.1512 -0.0266  0.1627
  121loPI   C2A 1928   3.514  12.697  10.959 -0.0886 -0.0696 -0.1152
  121loPI   C3A 1929   3.464  12.669  10.580 -0.1824  0.0786  0.3490
  121loPI   C4A 1930   3.571  12.697  10.220 -0.2714  0.0311  0.2430
  121loPI   C5A 1931   3.590  12.738   9.781  0.1945  0.1552  0.1328
  121loPI   C6A 1932   3.859  12.513   9.362 -0.3394 -0.0530  0.0208
  121loPI   C1B 1933   3.690  12.074  11.155  0.2337  0.0782 -0.1914
  121loPI   C2B 1934   3.652  12.211  10.770 -0.0595 -0.2363  0.1817
  121loPI   C3B 1935   3.517  12.139  10.342 -0.1440  0.1652  0.1570
  121loPI   C4B 1936   3.687  12.271   9.997 -0.1505 -0.3010 -0.0866
  122loPI    C1 1937   5.870   6.055  11.640 -0.3287 -0.0298 -0.2415
  122loPI    C2 1938   5.836   5.657  11.669  0.2544 -0.0828 -0.1546
  122loPI    C3 1939   5.632   5.894  11.918  0.0049 -0.3286 -0.1200
  122loPI   PO4 1940   5.903   6.058  11.348 -0.0890  0.2071 -0.0604
  122loPI   GL1 1941   5.710   5.919  11.010  0.1425  0.0195  0.1687
  122loPI   GL2 1942   5.670   6.216  10.910 -0.3147  0.0349  0.2879
  122loPI   C1A 1943   5.644   5.595  10.711 -0.0772 -0.0852 -0.0743
  122loPI   C2A 1944   5.565   5.571  10.313  0.2177 -0.2967 -0.0707
  122loPI   C3A 1945   5.629   5.680   9.921  0.0931 -0.0901  0.1635
  122loPI   C4A 1946   5.563   5.763   9.482  0.1511 -0.0162 -0.0673
  122loPI   C5A 1947   5.385   5.745   9.072  0.3405 -0.1696  0.1418
  122loPI   C6A 1948   5.034   5.644   8.801 -0.1264 -0.0467 -0.2506
  122loPI   C1B 1949   5.529   6.198  10.470  0.1752  0.2015  0.0448
  122loPI   C2B 1950   5.536   6.175   9.958 -0.0372 -0.0408 -0.1506
  122loPI   C3B 1951   5.481   6.317   9.591  0.2507 -0.0271  0.0370
  122loPI   C4B 1952   5.487   6.489   9.102  0.0792 -0.1378  0.1031
  123loPI    C1 1953   4.233  12.352  11.850  0.2738 -0.1873  0.1996
  123loPI    C2 1954   4.235  11.955  11.900  0.0886 -0.1937  0.1623
  123loPI    C3 1955   4.143  12.195  12.206 -0.1229 -0.1940  0.1006
  123loPI   PO4 1956   4.492  12.424  11.661 -0.1200  0.3950  0.1657
  123loPI   GL1 1957   4.862  12.178  11.313  0.1681  0.4838  0.1590
  123loPI   GL2 1958   4.963  11.935  11.273  0.0667 -0.0373  0.3586
  123loPI   C1A 1959   4.510  12.178  11.024  0.0831  0.1336  0.0781
  123loPI   C2A 1960   4.500  12.200  10.576  0.0511 -0.3107 -0.0295
  123loPI   C3A 1961   4.459  12.212  10.150 -0.0023 -0.0328  0.2773
  123loPI   C4A 1962   4.461  12.351   9.595  0.0620  0.4068  0.0032
  123loPI   C5A 1963   4.399  12.523   9.232  0.0883 -0.0434  0.1903
  123loPI   C6A 1964   4.027  12.571   8.884  0.0624 -0.0113 -0.3762
  123loPI   C1B 1965   4.921  12.026  10.795  0.0450  0.0863 -0.0639
  123loPI   C2B 1966   4.941  12.113  10.334 -0.1821  0.0454 -0.3770
  123loPI   C3B 1967   4.889  12.097   9.992  0.3229 -0.0410  0.0219
  123loPI   C4B 1968   5.041  11.990   9.567 -0.0030 -0.0424  0.0860
  124loPI    C1 1969  12.726   6.069  11.300  0.0730  0.0327 -0.0344
  124loPI    C2 1970  12.476   6.046  11.612  0.0858 -0.2177 -0.0405
  124loPI    C3 1971  12.850   6.178  11.665  0.0260 -0.0671  0.0119
  124loPI   PO4 1972  12.673   5.889  11.137 -0.0249 -0.2791 -0.0198
  124loPI   GL1 1973  12.459   6.086  10.783 -0.2825 -0.1051 -0.1229
  124loPI   GL2 1974  12.558   6.466  10.824 -0.0096 -0.3617 -0.0319
  124loPI   C1A 1975  12.274   5.940  10.474 -0.6434  0.0011  0.1783
  124loPI   C2A 1976  12.220   6.056  10.049  0.0089 -0.0017 -0.0041
  124loPI   C3A 1977  12.360   5.980   9.636  0.0455  0.0380  0.2638
  124loPI   C4A 1978  12.317   5.829   9.253 -0.0827  0.1733 -0.1780
  124loPI   C5A 1979  12.425   6.005   8.861 -0.1071  0.0187  0.0886
  124loPI   C6A 1980  12.668   6.371   8.586  0.0222  0.0057 -0.4026
  124loPI   C1B 1981  12.426   6.445  10.297 -0.3096 -0.0620  0.1808
  124loPI   C2B 1982  12.371   6.559   9.955 -0.0228  0.1065 -0.0752
  124loPI   C3B 1983  12.628   6.502   9.594 -0.1797 -0.0218  0.0883
  124loPI   C4B 1984  12.683   6.435   9.185 -0.0516  0.0849 -0.1749
  125loPI    C1 1985   0.415   7.989  11.882  0.0729  0.1033 -0.1270
  125loPI    C2 1986   0.716   8.185  12.057  0.0971 -0.1122  0.0784
  125loPI    C3 1987   0.450   7.987  12.281  0.0998 -0.3514 -0.1259
  125loPI   PO4 1988   0.612   7.926  11.615  0.0797 -0.0950  0.0233
  125loPI   GL1 1989   0.599   7.994  11.244  0.0440  0.0863 -0.1843
  125loPI   GL2 1990   0.931   7.903  11.171 -0.0262 -0.1040 -0.0450
  125loPI   C1A 1991   0.463   7.999  10.813  0.2103 -0.2283  0.1691
  125loPI   C2A 1992   0.477   7.999  10.399 -0.0641  0.2666 -0.0721
  125loPI   C3A 1993   0.408   8.130   9.964 -0.2947  0.0631  0.1409
  125loPI   C4A 1994   0.450   8.186   9.574 -0.1720 -0.0811 -0.0281
  125loPI   C5A 1995   0.548   8.282   9.218 -0.0878  0.0018  0.0788
  125loPI   C6A 1996   0.573   8.708   8.978  0.1304 -0.0657 -0.5103
  125loPI   C1B 1997   0.911   7.837  10.834 -0.0840 -0.1647 -0.1924
  125loPI   C2B 1998   0.956   7.827  10.468 -0.0186  0.1263  0.1250
  125loPI   C3B 1999   0.815   7.765  10.138 -0.0985  0.0897  0.2290
  125loPI   C4B 2000   0.842   7.969   9.789  0.2022  0.0972 -0.0195
  126loPI    C1 2001   2.225   6.083  12.059  0.1212 -0.2622  0.0487
  126loPI    C2 2002   2.176   6.396  12.303 -0.1944 -0.0861 -0.2326
  126loPI    C3 2003   1.983   6.054  12.376 -0.0980 -0.1132 -0.1019
  126loPI   PO4 2004   2.445   6.256  11.737 -0.1393  0.1095  0.3578
  126loPI   GL1 2005   2.418   6.304  11.275 -0.0609 -0.2334  0.0323
  126loPI   GL2 2006   2.623   6.106  11.188 -0.3653 -0.1337  0.6563
  126loPI   C1A 2007   2.302   6.598  10.893 -0.4932 -0.0358  0.3187
  126loPI   C2A 2008   2.324   6.614  10.450 -0.1508 -0.1465  0.0002
  126loPI   C3A 2009   2.311   6.538  10.022  0.0293  0.1807 -0.1807
  126loPI   C4A 2010   2.347   6.818   9.647 -0.1555 -0.2092 -0.3100
  126loPI   C5A 2011   2.479   6.756   9.201  0.2242  0.3252 -0.2983
  126loPI   C6A 2012   2.718   6.879   8.779 -0.1071 -0.0038 -0.0910
  126loPI   C1B 2013   2.749   5.911  10.833 -0.0238 -0.0981 -0.0820
  126loPI   C2B 2014   2.863   5.861  10.432 -0.0189  0.3595  0.1313
  126loPI   C3B 2015   2.777   5.870  10.085 -0.1664 -0.2468  0.0826
  126loPI   C4B 2016   2.927   5.941   9.588 -0.0437 -0.0556  0.1143
  127loPI    C1 2017   5.603   4.223  11.780  0.1384 -0.1079 -0.0689
  127loPI    C2 2018   5.484   4.600  11.838 -0.1213 -0.1812 -0.1116
  127loPI    C3 2019   5.689   4.409  12.123  0.0697  0.0130 -0.1166
  127loPI   PO4 2020   5.458   4.171  11.598 -0.0986 -0.0581 -0.4904
  127loPI   GL1 2021   5.305   4.142  11.222 -0.0413  0.0591 -0.1227
  127loPI   GL2 2022   5.322   3.844  11.224 -0.0203  0.0062  0.4405
  127loPI   C1A 2023   5.262   4.301  10.801  0.1228 -0.0582  0.1020
  127loPI   C2A 2024   5.197   4.342  10.292 -0.2306 -0.0289 -0.2525
  127loPI   C3A 2025   5.213   4.307   9.857 -0.1089  0.2753  0.2908
  127loPI   C4A 2026   5.198   4.486   9.403  0.2297  0.0956  0.0034
  127loPI   C5A 2027   4.844   4.805   9.182 -0.0013 -0.2558  0.1499
  127loPI   C6A 2028   4.442   4.914   9.185 -0.2554  0.2766 -0.0215
  127loPI   C1B 2029   5.263   3.685  10.822  0.1425  0.1778  0.0027
  127loPI   C2B 2030   5.207   3.656  10.330  0.2666 -0.0797 -0.2595
  127loPI   C3B 2031   5.252   3.726   9.853  0.2055  0.0785 -0.2385
  127loPI   C4B 2032   5.345   3.791   9.490 -0.0074 -0.0338 -0.1793
  128loPI    C1 2033  17.024   9.225  11.652 -0.0729  0.1152 -0.2352
  128loPI    C2 2034  17.371   9.263  11.848 -0.0371  0.1062 -0.2965
  128loPI    C3 2035  17.027   9.353  12.031 -0.0067  0.0648 -0.2183
  128loPI   PO4 2036  17.006   9.378  11.403 -0.1165  0.2473  0.2669
  128loPI   GL1 2037  17.086   9.510  11.009  0.0865 -0.1560  0.0476
  128loPI   GL2 2038  16.959   9.833  10.752 -0.3732 -0.1049  0.0363
  128loPI   C1A 2039  17.225   9.456  10.725  0.2190 -0.0440  0.1977
  128loPI   C2A 2040  17.276   9.288  10.341 -0.1800 -0.1131 -0.1082
  128loPI   C3A 2041  17.419   9.253   9.906 -0.0931  0.1854 -0.0956
  128loPI   C4A 2042  17.573   9.226   9.565  0.0513 -0.0712 -0.3864
  128loPI   C5A 2043  17.420   9.144   9.105 -0.1404  0.1373  0.0798
  128loPI   C6A 2044  17.617   9.150   8.668  0.1980  0.0836  0.1920
  128loPI   C1B 2045  16.875   9.678  10.316  0.0336  0.3576 -0.3521
  128loPI   C2B 2046  16.901   9.448   9.857  0.0118  0.1471  0.0318
  128loPI   C3B 2047  17.064   9.414   9.470  0.2211 -0.0683 -0.1560
  128loPI   C4B 2048  16.868   9.259   9.119 -0.0604 -0.0523  0.0471
  129loPI    C1 2049  11.374  14.468  11.788 -0.1236  0.0059  0.0084
  129loPI    C2 2050  11.744  14.318  11.808 -0.1520 -0.0658  0.0007
  129loPI    C3 2051  11.432  14.096  11.922 -0.1854  0.0243  0.0868
  129loPI   PO4 2052  11.408  14.594  11.536  0.0147 -0.1032 -0.0969
  129loPI   GL1 2053  11.435  14.357  11.114  0.0097 -0.2811 -0.1715
  129loPI   GL2 2054  11.688  14.253  11.005  0.1387  0.4072  0.0742
  129loPI   C1A 2055  11.386  14.180  10.669  0.0503 -0.0945  0.0346
  129loPI   C2A 2056  11.497  14.280  10.205  0.1335 -0.1520  0.2540
  129loPI   C3A 2057  11.366  14.265   9.790 -0.1618  0.1769 -0.1277
  129loPI   C4A 2058  11.481  14.303   9.381  0.0570  0.3754 -0.0669
  129loPI   C5A 2059  11.746  14.166   9.076 -0.0412 -0.1215  0.1606
  129loPI   C6A 2060  11.899  13.827   8.847  0.0887 -0.0953  0.0810
  129loPI   C1B 2061  11.748  14.608  10.642 -0.2390 -0.1452  0.0409
  129loPI   C2B 2062  11.798  14.710  10.264 -0.1065 -0.0785  0.4074
  129loPI   C3B 2063  11.896  14.605   9.823  0.1766 -0.2019 -0.0137
  129loPI   C4B 2064  11.914  14.613   9.361 -0.2583  0.1206  0.4559
  130loPI    C1 2065  13.949  15.537  11.751 -0.0668  0.0242  0.1751
  130loPI    C2 2066  13.892  15.203  11.963 -0.0667 -0.0233  0.1007
  130loPI    C3 2067  14.079  15.515  12.129 -0.0590 -0.0631  0.1676
  130loPI   PO4 2068  14.054  15.449  11.558  0.0698 -0.0276 -0.0797
  130loPI   GL1 2069  14.291  15.606  11.138  0.0899 -0.0753 -0.2166
  130loPI   GL2 2070  14.662  15.539  11.073 -0.0638 -0.0291  0.0259
  130loPI   C1A 2071  14.054  15.628  10.802 -0.0366 -0.0182 -0.2689
  130loPI   C2A 2072  14.032  15.595  10.488 -0.0178  0.1949  0.2817
  130loPI   C3A 2073  14.102  15.659  10.035 -0.0936 -0.3572 -0.1388
  130loPI   C4A 2074  14.114  15.670   9.574  0.1189 -0.0146  0.0509
  130loPI   C5A 2075  13.875  15.572   9.158 -0.2787  0.1412 -0.0840
  130loPI   C6A 2076  13.913  15.516   8.777 -0.0891  0.2185  0.0560
  130loPI   C1B 2077  14.609  15.444  10.677 -0.2601  0.0141 -0.1133
  130loPI   C2B 2078  14.628  15.406  10.254  0.0656 -0.0780  0.2027
  130loPI   C3B 2079  14.556  15.458   9.859  0.1914 -0.2390  0.0012
  130loPI   C4B 2080  14.609  15.449   9.404 -0.0469 -0.0531 -0.1061
  131loPI    C1 2081  14.454   3.129  11.298 -0.1425 -0.0674  0.0286
  131loPI    C2 2082  14.647   3.115  11.648 -0.1953  0.2163  0.0714
  131loPI    C3 2083  14.364   2.845  11.565  0.1112 -0.1119  0.0692
  131loPI   PO4 2084  14.696   3.134  11.108 -0.0606 -0.0493 -0.1360
  131loPI   GL1 2085  14.776   3.173  10.599 -0.1289  0.0360  0.0131
  131loPI   GL2 2086  14.717   2.780  10.699 -0.2718 -0.2581  0.1649
  131loPI   C1A 2087  14.884   3.223  10.286 -0.1025 -0.1151 -0.0993
  131loPI   C2A 2088  15.047   3.137   9.942  0.1226 -0.1336 -0.1802
  131loPI   C3A 2089  15.221   3.186   9.557  0.1912  0.0113  0.0386
  131loPI   C4A 2090  15.458   3.209   9.196  0.0641  0.0539 -0.1695
  131loPI   C5A 2091  15.624   3.042   8.780  0.0560 -0.1435  0.1719
  131loPI   C6A 2092  15.890   3.070   8.444  0.1021  0.4401  0.0755
  131loPI   C1B 2093  14.744   2.770  10.292  0.1288 -0.0952  0.3395
  131loPI   C2B 2094  14.854   2.712   9.920 -0.1475  0.0347  0.2308
  131loPI   C3B 2095  15.010   2.728   9.560  0.0111 -0.0078  0.0153
  131loPI   C4B 2096  15.224   2.787   9.156 -0.0378  0.2241  0.0136
  132loPI    C1 2097   7.117  11.885  11.872  0.0750  0.2526  0.2025
  132loPI    C2 2098   6.868  11.606  12.015  0.0876  0.0811 -0.1018
  132loPI    C3 2099   7.195  11.707  12.223  0.0816 -0.1294  0.0127
  132loPI   PO4 2100   7.244  11.751  11.677 -0.1291 -0.1093  0.1168
  132loPI   GL1 2101   7.129  11.706  11.207 -0.2907  0.1011  0.2689
  132loPI   GL2 2102   6.841  11.722  11.156  0.1122 -0.0798  0.1537
  132loPI   C1A 2103   7.441  11.609  10.881 -0.3782 -0.1083  0.2074
  132loPI   C2A 2104   7.330  11.434  10.481 -0.2068  0.2513 -0.2788
  132loPI   C3A 2105   7.276  11.323  10.023  0.1158 -0.0136 -0.0911
  132loPI   C4A 2106   7.210  11.585   9.656  0.1597  0.0291  0.0872
  132loPI   C5A 2107   6.972  11.703   9.432  0.1778  0.4173 -0.2611
  132loPI   C6A 2108   6.639  11.897   9.166 -0.3754 -0.0178  0.0377
  132loPI   C1B 2109   6.981  11.832  10.656  0.4068 -0.0070 -0.0131
  132loPI   C2B 2110   6.922  11.699  10.364  0.2415 -0.1371 -0.2430
  132loPI   C3B 2111   6.763  11.730   9.987 -0.3427  0.0214  0.1164
  132loPI   C4B 2112   6.679  12.077   9.669  0.2602 -0.1149  0.1278
  133loPI    C1 2113   8.007   7.362  11.414 -0.1591  0.0356 -0.1046
  133loPI    C2 2114   7.994   7.007  11.598 -0.1435  0.0758 -0.0254
  133loPI    C3 2115   8.024   7.343  11.813  0.3978  0.0955 -0.1178
  133loPI   PO4 2116   8.110   7.363  11.216  0.1443  0.1486 -0.1133
  133loPI   GL1 2117   8.029   7.325  10.837  0.3596  0.0212 -0.0926
  133loPI   GL2 2118   7.810   7.068  10.693  0.1517 -0.0063  0.0715
  133loPI   C1A 2119   8.216   7.370  10.409  0.1187  0.0015  0.1739
  133loPI   C2A 2120   8.110   7.419   9.998 -0.4733  0.0318 -0.3092
  133loPI   C3A 2121   7.963   7.475   9.626 -0.0474  0.0843  0.3950
  133loPI   C4A 2122   8.052   7.650   9.224  0.3289 -0.0901  0.0777
  133loPI   C5A 2123   8.000   7.698   8.922  0.0148 -0.1676 -0.0224
  133loPI   C6A 2124   7.985   7.667   8.554 -0.1597  0.1486 -0.1166
  133loPI   C1B 2125   7.804   7.127  10.309  0.0300  0.1835  0.1684
  133loPI   C2B 2126   7.750   7.123   9.883  0.2363  0.1359  0.3142
  133loPI   C3B 2127   7.611   7.159   9.432  0.1706  0.1960 -0.0759
  133loPI   C4B 2128   7.342   7.305   8.993 -0.0920 -0.0809 -0.1399
  134loPI    C1 2129   5.513  12.435  11.732 -0.0026  0.1347  0.0940
  134loPI    C2 2130   5.502  12.105  11.958 -0.1761  0.0809  0.0086
  134loPI    C3 2131   5.316  12.112  11.604 -0.0407  0.2186 -0.0612
  134loPI   PO4 2132   5.668  12.496  11.657 -0.0838 -0.2125 -0.2367
  134loPI   GL1 2133   5.795  12.694  11.267 -0.1782  0.0923  0.0393
  134loPI   GL2 2134   6.054  12.798  11.267 -0.0680  0.0022 -0.1423
  134loPI   C1A 2135   5.929  12.684  10.754 -0.2818  0.5582 -0.3472
  134loPI   C2A 2136   5.916  12.753  10.292  0.2691  0.0749  0.1472
  134loPI   C3A 2137   6.171  12.949  10.019 -0.1317  0.0604  0.1271
  134loPI   C4A 2138   6.347  13.296   9.789  0.0271 -0.3134 -0.0855
  134loPI   C5A 2139   6.215  13.570   9.486  0.2144 -0.0946 -0.1985
  134loPI   C6A 2140   6.481  13.707   9.129  0.2478 -0.1684 -0.4143
  134loPI   C1B 2141   6.321  12.489  10.932  0.0992  0.1505  0.3564
  134loPI   C2B 2142   6.352  12.493  10.585 -0.0172 -0.1096  0.0663
  134loPI   C3B 2143   6.324  12.447  10.184  0.0161  0.0724  0.1438
  134loPI   C4B 2144   6.272  12.411   9.740 -0.1067 -0.0727 -0.3006
  135loPI    C1 2145   9.963  14.939  11.501  0.0783  0.2133 -0.1873
  135loPI    C2 2146   9.969  14.912  11.900  0.2203  0.2171 -0.1885
  135loPI    C3 2147   9.664  15.094  11.716  0.1687  0.2408 -0.0800
  135loPI   PO4 2148  10.070  14.732  11.397  0.0008 -0.0544 -0.0467
  135loPI   GL1 2149  10.161  14.634  10.921 -0.0458  0.0576  0.0471
  135loPI   GL2 2150  10.464  14.425  10.791  0.0541 -0.1942 -0.2839
  135loPI   C1A 2151  10.054  14.716  10.530  0.1360 -0.0560 -0.0299
  135loPI   C2A 2152  10.007  14.675  10.175 -0.2010  0.3201  0.0112
  135loPI   C3A 2153  10.073  14.752   9.873  0.2467 -0.1917 -0.3480
  135loPI   C4A 2154   9.711  14.778   9.549  0.6045  0.2457 -0.2377
  135loPI   C5A 2155   9.684  14.735   9.225 -0.3431 -0.1095 -0.2247
  135loPI   C6A 2156   9.756  14.524   8.791 -0.2813  0.0072  0.0511
  135loPI   C1B 2157  10.324  14.301  10.424 -0.1220  0.1373 -0.2340
  135loPI   C2B 2158  10.441  14.245   9.950 -0.1670 -0.1847 -0.3505
  135loPI   C3B 2159  10.536  14.187   9.607 -0.1940 -0.1542 -0.2001
  135loPI   C4B 2160  10.680  14.030   9.183  0.1522  0.2943  0.0914
  136loPI    C1 2161   4.314   0.526  11.961  0.3490  0.1502  0.1229
  136loPI    C2 2162   4.560   0.518  12.275  0.2785 -0.0148  0.1750
  136loPI    C3 2163   4.171   0.442  12.324  0.2809 -0.1199  0.0355
  136loPI   PO4 2164   4.383   0.366  11.744 -0.4931 -0.5441  0.0899
  136loPI   GL1 2165   4.420   0.330  11.263 -0.2742 -0.0472  0.0156
  136loPI   GL2 2166   4.330   0.034  11.184 -0.1722  0.0879 -0.0431
  136loPI   C1A 2167   4.622   0.481  10.943  0.0115 -0.0410 -0.1120
  136loPI   C2A 2168   4.544   0.604  10.555 -0.1431 -0.4238  0.2035
  136loPI   C3A 2169   4.686   0.519  10.149 -0.0543 -0.3482  0.0914
  136loPI   C4A 2170   4.660   0.466   9.623 -0.0039 -0.1493 -0.2579
  136loPI   C5A 2171   4.351   0.449   9.222  0.2889  0.1688  0.1862
  136loPI   C6A 2172   3.928   0.223   9.091 -0.0306 -0.0768  0.1671
  136loPI   C1B 2173   4.279   0.117  10.760  0.1009  0.3947 -0.0128
  136loPI   C2B 2174   4.207   0.261  10.356 -0.0197 -0.2108 -0.1022
  136loPI   C3B 2175   4.291   0.310   9.865 -0.1023  0.1340  0.1367
  136loPI   C4B 2176   4.353   0.100   9.539 -0.1491  0.0583  0.1054
  137loPI    C1 2177  10.846   3.242  11.061  0.0848 -0.1642 -0.0249
  137loPI    C2 2178  10.972   3.598  11.193 -0.0360 -0.1201 -0.0269
  137loPI    C3 2179  11.008   3.274  11.425  0.1554 -0.1234 -0.0599
  137loPI   PO4 2180  10.944   3.237  10.793  0.0028  0.0226 -0.1489
  137loPI   GL1 2181  10.852   3.171  10.441  0.1537 -0.0194 -0.0142
  137loPI   GL2 2182  10.690   3.437  10.354 -0.3242 -0.0889 -0.0566
  137loPI   C1A 2183  10.936   3.007  10.024  0.2439 -0.3725 -0.1630
  137loPI   C2A 2184  10.872   3.091   9.635 -0.2030 -0.2917 -0.1422
  137loPI   C3A 2185  10.834   3.103   9.242 -0.0428  0.0850 -0.0034
  137loPI   C4A 2186  10.537   3.262   8.896 -0.0266  0.2890  0.3603
  137loPI   C5A 2187  10.572   3.101   8.415 -0.1465 -0.0467  0.3544
  137loPI   C6A 2188  10.698   2.667   8.331  0.0855 -0.0353 -0.1598
  137loPI   C1B 2189  10.787   3.556   9.883 -0.0118  0.0338 -0.1909
  137loPI   C2B 2190  10.795   3.653   9.499  0.0810  0.0329  0.1147
  137loPI   C3B 2191  10.599   3.675   9.183 -0.4040 -0.0527 -0.2634
  137loPI   C4B 2192  10.671   3.807   8.762 -0.0618 -0.0366  0.0790
  138loPI    C1 2193   7.497   8.444  11.715  0.1476 -0.2414 -0.1039
  138loPI    C2 2194   7.554   8.737  11.982 -0.1774 -0.1884 -0.0889
  138loPI    C3 2195   7.693   8.369  12.055  0.2091 -0.0479 -0.0954
  138loPI   PO4 2196   7.335   8.633  11.533 -0.0561 -0.1044  0.2501
  138loPI   GL1 2197   7.220   8.701  11.064 -0.0835  0.1521  0.1338
  138loPI   GL2 2198   7.272   8.453  10.950  0.3066  0.0475  0.0927
  138loPI   C1A 2199   7.177   9.027  10.774  0.0106  0.0738 -0.1139
  138loPI   C2A 2200   7.066   9.145  10.309 -0.3064  0.2267 -0.2303
  138loPI   C3A 2201   7.097   9.100   9.827 -0.3802 -0.0286 -0.0771
  138loPI   C4A 2202   7.045   9.054   9.344 -0.0422  0.1946  0.4704
  138loPI   C5A 2203   6.821   9.259   8.944  0.2492 -0.1100 -0.2286
  138loPI   C6A 2204   6.497   9.580   8.869  0.5377  0.1578 -0.4096
  138loPI   C1B 2205   7.313   8.399  10.669  0.1492  0.0128  0.1313
  138loPI   C2B 2206   7.243   8.341  10.156  0.1488  0.3901 -0.0719
  138loPI   C3B 2207   7.162   8.514   9.672  0.0779 -0.2115  0.1473
  138loPI   C4B 2208   6.989   8.549   9.344  0.0349  0.2301 -0.1498
  139loPI    C1 2209  14.776  15.465  11.658  0.0181 -0.0043  0.0400
  139loPI    C2 2210  14.638  15.798  11.485  0.1572  0.1177  0.1604
  139loPI    C3 2211  14.466  15.660  11.818  0.1018  0.0702  0.1125
  139loPI   PO4 2212  14.982  15.483  11.491 -0.0326  0.0364  0.1977
  139loPI   GL1 2213  15.167  15.795  11.284 -0.0339 -0.1276 -0.1047
  139loPI   GL2 2214  15.349  15.513  11.189 -0.1731 -0.2114 -0.1809
  139loPI   C1A 2215  15.036  15.779  10.802 -0.4692  0.1784  0.1620
  139loPI   C2A 2216  15.020  15.800  10.378 -0.3048  0.1414  0.0883
  139loPI   C3A 2217  14.971  15.789   9.952 -0.0764 -0.0139  0.3688
  139loPI   C4A 2218  15.022  15.705   9.609 -0.2268  0.1598 -0.2104
  139loPI   C5A 2219  15.023  15.819   9.238  0.3906 -0.1240  0.1834
  139loPI   C6A 2220  14.854  15.478   8.966 -0.0195  0.1269 -0.2161
  139loPI   C1B 2221  15.394  15.402  10.753 -0.1167  0.3808  0.0396
  139loPI   C2B 2222  15.372  15.492  10.274  0.4182  0.1419  0.1225
  139loPI   C3B 2223  15.353  15.497   9.859  0.1919  0.0479  0.0259
  139loPI   C4B 2224  15.533  15.466   9.452 -0.1501 -0.0774  0.1317
  140loPI    C1 2225   7.439   7.964  11.473  0.1847  0.0325 -0.0165
  140loPI    C2 2226   7.798   8.140  11.468  0.1983  0.0010 -0.3524
  140loPI    C3 2227   7.759   7.769  11.611  0.2011  0.2004  0.1890
  140loPI   PO4 2228   7.355   7.988  11.271  0.1176  0.1583 -0.0633
  140loPI   GL1 2229   7.256   7.866  10.881 -0.2469  0.2920 -0.1606
  140loPI   GL2 2230   6.942   8.067  10.881  0.4098 -0.0519 -0.0106
  140loPI   C1A 2231   7.443   7.940  10.418 -0.1700  0.1453  0.0988
  140loPI   C2A 2232   7.744   7.735  10.283 -0.0380  0.2255  0.0912
  140loPI   C3A 2233   7.626   7.710   9.907 -0.0245 -0.1856  0.0884
  140loPI   C4A 2234   7.533   7.782   9.597  0.0287  0.3954  0.3592
  140loPI   C5A 2235   7.454   7.771   9.171 -0.0899  0.4273  0.3298
  140loPI   C6A 2236   7.052   7.752   8.898 -0.1263 -0.1564  0.0376
  140loPI   C1B 2237   6.882   8.172  10.501 -0.0455  0.0988 -0.3320
  140loPI   C2B 2238   6.738   8.251   9.968  0.1706 -0.0968  0.0299
  140loPI   C3B 2239   6.650   8.234   9.494 -0.0366 -0.1720 -0.1440
  140loPI   C4B 2240   6.615   8.379   9.062  0.0261 -0.5312  0.0770
  141loPI    C1 2241   8.296   7.853  11.387 -0.2048 -0.1454  0.0182
  141loPI    C2 2242   8.602   7.630  11.257 -0.0155  0.1613 -0.0734
  141loPI    C3 2243   8.451   7.569  11.622  0.2451  0.0969  0.0257
  141loPI   PO4 2244   8.153   7.871  11.186 -0.0845  0.1833 -0.0801
  141loPI   GL1 2245   8.032   7.835  10.772 -0.2427  0.3059 -0.0772
  141loPI   GL2 2246   8.194   8.132  10.760 -0.0524  0.4029 -0.1007
  141loPI   C1A 2247   8.210   7.833  10.382 -0.1248  0.0253  0.0552
  141loPI   C2A 2248   8.079   7.892   9.889 -0.0352 -0.3152 -0.1496
  141loPI   C3A 2249   7.963   8.151   9.526  0.0091  0.0409  0.0008
  141loPI   C4A 2250   7.976   8.158   9.132  0.0718 -0.0582  0.1231
  141loPI   C5A 2251   8.134   8.190   8.729  0.1170  0.0538 -0.1950
  141loPI   C6A 2252   8.602   8.366   8.796 -0.1850 -0.0049 -0.0454
  141loPI   C1B 2253   7.827   8.230  10.493 -0.0506  0.1286 -0.0482
  141loPI   C2B 2254   7.757   8.169  10.104  0.1531  0.1675 -0.1919
  141loPI   C3B 2255   7.599   8.276   9.800  0.0787 -0.2108  0.0833
  141loPI   C4B 2256   7.490   8.318   9.372  0.3655 -0.0504 -0.1071
  142loPI    C1 2257   4.168   3.929  11.660  0.0135 -0.0876 -0.1864
  142loPI    C2 2258   4.002   4.044  12.005  0.1263  0.2011 -0.2255
  142loPI    C3 2259   3.784   4.041  11.669  0.0300 -0.0330 -0.1631
  142loPI   PO4 2260   4.393   4.011  11.659  0.0355 -0.2394  0.1163
  142loPI   GL1 2261   4.654   3.890  11.418 -0.0090  0.3495 -0.0305
  142loPI   GL2 2262   4.434   3.661  11.247 -0.2021 -0.1624  0.0988
  142loPI   C1A 2263   4.881   3.987  11.017  0.0068  0.0669 -0.1164
  142loPI   C2A 2264   4.944   3.988  10.579  0.1066  0.1103 -0.0026
  142loPI   C3A 2265   4.813   3.939  10.083  0.3885 -0.1005 -0.0858
  142loPI   C4A 2266   4.821   3.899   9.627  0.0280 -0.0841 -0.1339
  142loPI   C5A 2267   4.863   3.938   9.225 -0.0060 -0.0999 -0.1353
  142loPI   C6A 2268   5.162   3.750   8.982 -0.0003  0.2715  0.0037
  142loPI   C1B 2269   4.209   3.544  10.883  0.1417  0.0910 -0.0255
  142loPI   C2B 2270   4.175   3.508  10.511  0.0549 -0.5971 -0.0935
  142loPI   C3B 2271   4.347   3.602  10.044 -0.0609 -0.2985 -0.1032
  142loPI   C4B 2272   4.377   3.669   9.552  0.0541  0.0859 -0.2247
  143loPI    C1 2273   4.780   6.848  11.517  0.1452 -0.0127 -0.0308
  143loPI    C2 2274   4.838   6.904  11.909 -0.3165  0.1154  0.0257
  143loPI    C3 2275   4.583   6.623  11.782 -0.0426 -0.0407 -0.1921
  143loPI   PO4 2276   4.793   7.087  11.414 -0.3010  0.2576 -0.2161
  143loPI   GL1 2277   4.528   7.272  11.128 -0.0927  0.0418 -0.2221
  143loPI   GL2 2278   4.231   7.347  11.056 -0.0642 -0.0009 -0.1857
  143loPI   C1A 2279   4.639   7.182  10.707  0.0005  0.3868  0.1979
  143loPI   C2A 2280   4.629   7.160  10.286  0.1176  0.5077 -0.1254
  143loPI   C3A 2281   4.537   7.229   9.893 -0.0032  0.0905 -0.3034
  143loPI   C4A 2282   4.478   7.314   9.441 -0.1340 -0.1424  0.1772
  143loPI   C5A 2283   4.187   7.410   9.094 -0.2217 -0.0234 -0.0474
  143loPI   C6A 2284   3.977   7.049   8.881 -0.4206  0.1304  0.2414
  143loPI   C1B 2285   4.156   7.359  10.688  0.1387  0.0292  0.0698
  143loPI   C2B 2286   4.150   7.361  10.244 -0.0527 -0.1196  0.2370
  143loPI   C3B 2287   4.116   7.486   9.907  0.1897  0.1309  0.0894
  143loPI   C4B 2288   3.962   7.645   9.478 -0.1502 -0.1436 -0.0541
  144loPI    C1 2289  16.621   3.675  11.674  0.3109  0.1220  0.2523
  144loPI    C2 2290  16.400   3.462  11.930 -0.0133 -0.2304 -0.2994
  144loPI    C3 2291  16.495   3.841  12.015 -0.0696 -0.3508  0.3531
  144loPI   PO4 2292  16.500   3.674  11.454 -0.1940  0.0547 -0.1767
  144loPI   GL1 2293  16.398   3.640  11.113 -0.0633  0.0357 -0.1691
  144loPI   GL2 2294  16.102   3.636  11.028 -0.0410 -0.1595 -0.0670
  144loPI   C1A 2295  16.524   3.357  10.850 -0.0048  0.0165 -0.1197
  144loPI   C2A 2296  16.748   3.392  10.449 -0.2797 -0.0085  0.0514
  144loPI   C3A 2297  16.868   3.368  10.062  0.1886 -0.0577  0.4506
  144loPI   C4A 2298  17.091   3.219   9.613 -0.2586 -0.0120 -0.0587
  144loPI   C5A 2299  17.257   3.115   9.230 -0.2959  0.0509  0.3133
  144loPI   C6A 2300  17.633   3.051   9.022  0.1128  0.0694 -0.3378
  144loPI   C1B 2301  16.270   3.707  10.598 -0.0679 -0.1035 -0.0787
  144loPI   C2B 2302  16.459   3.708  10.196 -0.0741  0.0088 -0.0810
  144loPI   C3B 2303  16.595   3.712   9.848 -0.4390  0.1921  0.0966
  144loPI   C4B 2304  16.887   3.674   9.423 -0.1125  0.1759  0.0972
  145loPI    C1 2305  14.255  10.630  11.589 -0.0128 -0.1060 -0.0541
  145loPI    C2 2306  14.651  10.677  11.565  0.0031 -0.2416 -0.0608
  145loPI    C3 2307  14.444  10.872  11.845  0.0881 -0.2487  0.0076
  145loPI   PO4 2308  14.245  10.547  11.294 -0.1290  0.0335 -0.3351
  145loPI   GL1 2309  14.389  10.715  10.927 -0.1493 -0.0839  0.1250
  145loPI   GL2 2310  14.688  10.646  11.042  0.0487 -0.0143 -0.2774
  145loPI   C1A 2311  14.230  10.635  10.593 -0.0771  0.1627 -0.2303
  145loPI   C2A 2312  14.215  10.565  10.206  0.0797 -0.1435 -0.0562
  145loPI   C3A 2313  14.173  10.549   9.851 -0.2161  0.1558 -0.0462
  145loPI   C4A 2314  13.996  10.435   9.414  0.2096 -0.0207  0.0419
  145loPI   C5A 2315  13.747  10.117   9.197  0.1354  0.0090 -0.4215
  145loPI   C6A 2316  13.741   9.734   9.095  0.1702  0.1509  0.2739
  145loPI   C1B 2317  14.758  10.756  10.582  0.0357 -0.0252  0.0441
  145loPI   C2B 2318  14.646  10.731  10.193 -0.0354  0.4513 -0.3948
  145loPI   C3B 2319  14.636  10.971   9.822  0.0222 -0.1156  0.1358
  145loPI   C4B 2320  14.892  11.149   9.435  0.1793 -0.1580 -0.3326
  146loPI    C1 2321   2.806   2.770  11.994 -0.0435 -0.1782 -0.0895
  146loPI    C2 2322   2.560   3.022  12.184  0.0484 -0.3439  0.2570
  146loPI    C3 2323   2.426   2.665  12.063 -0.0416 -0.1929 -0.1015
  146loPI   PO4 2324   2.984   2.938  11.815 -0.0574  0.3029 -0.3035
  146loPI   GL1 2325   2.986   2.915  11.429 -0.0637 -0.4945 -0.1097
  146loPI   GL2 2326   3.284   2.986  11.314  0.2908 -0.1304 -0.3183
  146loPI   C1A 2327   3.057   2.659  11.091 -0.3293 -0.1439  0.0860
  146loPI   C2A 2328   2.980   2.649  10.634  0.2785 -0.1717 -0.0889
  146loPI   C3A 2329   3.140   2.641  10.211 -0.0245  0.1423 -0.0396
  146loPI   C4A 2330   3.007   2.605   9.784  0.0892 -0.1219  0.1893
  146loPI   C5A 2331   2.697   2.503   9.440 -0.0723  0.0415 -0.2336
  146loPI   C6A 2332   2.687   2.333   9.071 -0.2326  0.1385  0.2277
  146loPI   C1B 2333   3.322   2.993  10.868  0.1303  0.0645  0.1253
  146loPI   C2B 2334   3.435   3.004  10.400  0.1339  0.2803 -0.0337
  146loPI   C3B 2335   3.526   2.937   9.973  0.0440 -0.1401  0.2003
  146loPI   C4B 2336   3.402   3.092   9.590 -0.0786 -0.2840  0.2115
  147loPI    C1 2337   6.422  10.204  11.704 -0.0879  0.1598 -0.1075
  147loPI    C2 2338   6.500  10.107  12.084 -0.1124  0.0579 -0.1283
  147loPI    C3 2339   6.723  10.382  11.899  0.0448 -0.0563 -0.1110
  147loPI   PO4 2340   6.371  10.045  11.606  0.0287  0.0569 -0.0600
  147loPI   GL1 2341   6.227   9.747  11.360  0.0053 -0.1056  0.1282
  147loPI   GL2 2342   6.247   9.595  11.220 -0.0231 -0.3240 -0.2576
  147loPI   C1A 2343   6.170   9.982  10.927  0.0411 -0.2046 -0.1588
  147loPI   C2A 2344   6.205  10.072  10.468  0.2112  0.3376 -0.1247
  147loPI   C3A 2345   6.089  10.002  10.025 -0.2041  0.1176 -0.2808
  147loPI   C4A 2346   5.964  10.093   9.585  0.3483  0.0444 -0.2089
  147loPI   C5A 2347   5.840  10.368   9.326  0.1958 -0.3279 -0.4136
  147loPI   C6A 2348   5.880  10.618   9.054 -0.2304  0.0267 -0.1507
  147loPI   C1B 2349   6.288   9.519  10.764 -0.1862  0.2076  0.0681
  147loPI   C2B 2350   6.285   9.521  10.352 -0.2631 -0.1802 -0.0311
  147loPI   C3B 2351   6.152   9.466   9.957  0.0352 -0.2002  0.2274
  147loPI   C4B 2352   6.103   9.611   9.564  0.1793 -0.1594  0.1003
  148loPI    C1 2353   2.917  12.079  11.961  0.1806 -0.0180 -0.0396
  148loPI    C2 2354   3.002  12.304  12.280  0.2725 -0.0286 -0.0564
  148loPI    C3 2355   2.653  12.110  12.260  0.1627  0.1680 -0.0736
  148loPI   PO4 2356   2.967  12.219  11.748  0.2220 -0.1134  0.3006
  148loPI   GL1 2357   3.221  12.237  11.466 -0.1083  0.1858 -0.3030
  148loPI   GL2 2358   3.152  12.013  11.334 -0.1775 -0.0932  0.2734
  148loPI   C1A 2359   3.094  12.399  10.968 -0.3199  0.0225 -0.1665
  148loPI   C2A 2360   3.057  12.273  10.503  0.1665  0.4393 -0.1179
  148loPI   C3A 2361   3.081  12.417  10.032  0.2135  0.0527 -0.4272
  148loPI   C4A 2362   3.198  12.464   9.667 -0.3089  0.0036 -0.0890
  148loPI   C5A 2363   2.919  12.384   9.256  0.0240 -0.0751 -0.2484
  148loPI   C6A 2364   2.816  11.902   9.221 -0.0545  0.1083 -0.0669
  148loPI   C1B 2365   3.239  11.835  10.954  0.0006 -0.3993 -0.1449
  148loPI   C2B 2366   3.147  11.768  10.545 -0.0297 -0.2421 -0.2084
  148loPI   C3B 2367   3.151  11.884  10.181 -0.2234 -0.1129 -0.0273
  148loPI   C4B 2368   3.225  11.978   9.844 -0.1212 -0.1541  0.0928
  149loPI    C1 2369  11.454  11.856  11.559 -0.0667 -0.2038  0.0045
  149loPI    C2 2370  11.666  11.604  11.332 -0.0614 -0.2213  0.0287
  149loPI    C3 2371  11.499  11.474  11.671  0.1675 -0.1272  0.1805
  149loPI   PO4 2372  11.425  12.059  11.366  0.0402 -0.0323  0.2326
  149loPI   GL1 2373  11.076  12.165  11.036 -0.1729 -0.0479  0.2563
  149loPI   GL2 2374  10.878  12.000  10.914  0.4941 -0.0623 -0.0422
  149loPI   C1A 2375  11.323  12.265  10.640 -0.0298 -0.0743  0.1353
  149loPI   C2A 2376  11.276  12.295  10.145 -0.3798 -0.1084  0.2355
  149loPI   C3A 2377  11.348  12.362   9.743  0.0132 -0.1629  0.0086
  149loPI   C4A 2378  11.287  12.366   9.403  0.1368 -0.1978 -0.1340
  149loPI   C5A 2379  10.995  12.487   8.993  0.1043  0.3393  0.2666
  149loPI   C6A 2380  10.813  12.792   8.709  0.1129  0.1237 -0.1187
  149loPI   C1B 2381  10.933  11.973  10.479 -0.0386 -0.0911  0.2085
  149loPI   C2B 2382  10.851  11.955  10.041 -0.0333 -0.0236  0.0333
  149loPI   C3B 2383  10.928  12.063   9.632 -0.0310  0.1538  0.0549
  149loPI   C4B 2384  10.909  12.045   9.170 -0.2175 -0.3677  0.0504
  150loPI    C1 2385   8.507   7.101  11.563  0.2043  0.1247 -0.2798
  150loPI    C2 2386   8.715   6.858  11.804  0.0160 -0.0519 -0.2928
  150loPI    C3 2387   8.647   7.237  11.913  0.0891 -0.0782 -0.1527
  150loPI   PO4 2388   8.601   7.110  11.344  0.1856  0.0070 -0.0142
  150loPI   GL1 2389   8.547   7.287  10.926 -0.0956  0.1993  0.2998
  150loPI   GL2 2390   8.839   7.255  10.696  0.0439  0.0281 -0.0858
  150loPI   C1A 2391   8.342   6.958  10.604 -0.0202 -0.0753  0.2525
  150loPI   C2A 2392   8.211   6.921  10.143  0.4118 -0.0429 -0.0259
  150loPI   C3A 2393   8.197   7.039   9.680  0.0351  0.1899 -0.2112
  150loPI   C4A 2394   8.224   7.066   9.206 -0.0259 -0.1978  0.1658
  150loPI   C5A 2395   8.294   7.317   8.811 -0.1367  0.1246  0.1296
  150loPI   C6A 2396   8.655   7.503   8.649 -0.0444 -0.2067 -0.2547
  150loPI   C1B 2397   8.744   7.335  10.258 -0.2554  0.0299 -0.1240
  150loPI   C2B 2398   8.621   7.243   9.837 -0.2173 -0.3430 -0.1879
  150loPI   C3B 2399   8.566   7.308   9.486  0.5256  0.1464 -0.0974
  150loPI   C4B 2400   8.561   7.518   9.161 -0.1737  0.0182  0.3402
  151loPI    C1 2401   6.641   5.022  11.778  0.1159 -0.1671 -0.1266
  151loPI    C2 2402   6.762   5.309  12.028 -0.2002  0.0057 -0.1668
  151loPI    C3 2403   6.524   5.017  12.161  0.0534 -0.1951 -0.1460
  151loPI   PO4 2404   6.600   5.137  11.578  0.1659  0.0722 -0.0270
  151loPI   GL1 2405   6.762   5.050  11.146  0.0285  0.3655  0.2679
  151loPI   GL2 2406   6.429   5.104  10.985  0.0588 -0.0456  0.2101
  151loPI   C1A 2407   6.960   4.965  10.739 -0.0569  0.0129 -0.0834
  151loPI   C2A 2408   6.956   4.883  10.323 -0.3746  0.0042 -0.1500
  151loPI   C3A 2409   6.945   4.890   9.890 -0.2376  0.0828  0.3507
  151loPI   C4A 2410   6.985   5.066   9.504 -0.0831 -0.0452 -0.2075
  151loPI   C5A 2411   7.010   5.021   8.992  0.3364 -0.1998  0.1096
  151loPI   C6A 2412   7.387   5.190   8.800 -0.0312  0.0463 -0.5254
  151loPI   C1B 2413   6.196   4.896  10.721 -0.0799 -0.0554  0.0490
  151loPI   C2B 2414   6.103   4.835  10.266  0.5964  0.1630 -0.2686
  151loPI   C3B 2415   6.020   4.935   9.805  0.1578  0.0466  0.1360
  151loPI   C4B 2416   6.079   5.020   9.361  0.2828  0.2468 -0.2091
  152loPI    C1 2417   9.676   7.055  11.181 -0.1800 -0.0663 -0.0021
  152loPI    C2 2418   9.647   7.247  11.531 -0.1006 -0.0606  0.0014
  152loPI    C3 2419   9.984   7.053  11.436 -0.1015 -0.0152 -0.0960
  152loPI   PO4 2420   9.547   7.131  10.990  0.1698 -0.0363  0.2503
  152loPI   GL1 2421   9.585   7.633  10.860  0.0616  0.1414  0.3313
  152loPI   GL2 2422   9.379   7.887  10.941 -0.3292  0.1226  0.0439
  152loPI   C1A 2423   9.642   7.400  10.375 -0.0870  0.0419 -0.1498
  152loPI   C2A 2424   9.582   7.494   9.991 -0.1689 -0.2025  0.0096
  152loPI   C3A 2425   9.467   7.561   9.567 -0.1628  0.1413 -0.1760
  152loPI   C4A 2426   9.402   7.494   9.099  0.1524 -0.1447  0.0820
  152loPI   C5A 2427   9.212   7.444   8.723  0.1909  0.2796  0.0442
  152loPI   C6A 2428   8.919   7.294   8.314 -0.0689 -0.1718  0.3540
  152loPI   C1B 2429   9.586   8.000  10.561  0.1870 -0.1239  0.0798
  152loPI   C2B 2430   9.492   8.055  10.130 -0.0606  0.0855 -0.1950
  152loPI   C3B 2431   9.390   8.141   9.721  0.3006 -0.2444 -0.0070
  152loPI   C4B 2432   9.296   8.011   9.365 -0.0113 -0.0334 -0.2487
  153loPI    C1 2433  15.277   1.402  11.696  0.0698  0.0704  0.0978
  153loPI    C2 2434  14.925   1.247  11.807  0.0748 -0.1147 -0.1345
  153loPI    C3 2435  14.979   1.644  11.807 -0.0881 -0.0912  0.0314
  153loPI   PO4 2436  15.327   1.342  11.431  0.4678 -0.2309  0.0315
  153loPI   GL1 2437  15.148   1.116  11.060 -0.3220  0.0404  0.2097
  153loPI   GL2 2438  15.192   1.418  10.911  0.3351 -0.2276 -0.2028
  153loPI   C1A 2439  15.217   0.961  10.686 -0.2746  0.1416  0.2265
  153loPI   C2A 2440  15.281   1.006  10.187 -0.0234 -0.2053  0.0412
  153loPI   C3A 2441  15.457   1.017   9.802  0.0571 -0.3096 -0.2814
  153loPI   C4A 2442  15.605   0.940   9.388 -0.1837 -0.1831  0.2533
  153loPI   C5A 2443  15.856   1.059   8.979 -0.0802 -0.1457  0.0748
  153loPI   C6A 2444  16.283   1.214   9.234  0.0047  0.0532 -0.0558
  153loPI   C1B 2445  15.220   1.442  10.502 -0.2874  0.1557  0.0533
  153loPI   C2B 2446  15.481   1.486  10.099  0.0390  0.1046  0.0736
  153loPI   C3B 2447  15.509   1.529   9.672  0.3501  0.1027 -0.3509
  153loPI   C4B 2448  15.615   1.441   9.233  0.0580  0.1302  0.1793
  154loPI    C1 2449   6.603   9.464  11.487 -0.1459 -0.1135 -0.0315
  154loPI    C2 2450   6.579   9.593  11.865 -0.1007 -0.0464 -0.0513
  154loPI    C3 2451   6.268   9.404  11.698 -0.1066 -0.1112  0.0319
  154loPI   PO4 2452   6.748   9.702  11.327 -0.1367  0.2807  0.0192
  154loPI   GL1 2453   6.702   9.843  10.942  0.1997  0.3188 -0.4158
  154loPI   GL2 2454   7.013   9.963  10.979 -0.0797 -0.0748  0.3146
  154loPI   C1A 2455   6.727   9.817  10.571  0.3743 -0.1371  0.3508
  154loPI   C2A 2456   6.661   9.777  10.186  0.3366  0.3180  0.0431
  154loPI   C3A 2457   6.556   9.768   9.721 -0.1263  0.2005  0.2524
  154loPI   C4A 2458   6.404   9.927   9.258 -0.1269 -0.1259  0.2924
  154loPI   C5A 2459   6.027   9.999   8.967  0.0334  0.3876  0.0185
  154loPI   C6A 2460   5.892  10.224   8.727 -0.1410  0.4583 -0.1099
  154loPI   C1B 2461   7.063  10.204  10.615  0.1742  0.1971  0.1761
  154loPI   C2B 2462   7.038  10.068  10.194  0.0800 -0.1952 -0.0104
  154loPI   C3B 2463   6.915  10.123   9.834  0.1782  0.1931 -0.0009
  154loPI   C4B 2464   6.901  10.167   9.383  0.0861 -0.3154 -0.0789
  155loPI    C1 2465   6.575   6.666  11.678  0.1840 -0.0596 -0.1706
  155loPI    C2 2466   6.440   6.329  11.846  0.0171  0.0876 -0.0048
  155loPI    C3 2467   6.825   6.431  11.884 -0.0003  0.0757  0.2160
  155loPI   PO4 2468   6.526   6.680  11.459  0.1164 -0.0916 -0.1408
  155loPI   GL1 2469   6.470   6.885  11.032 -0.2362  0.1178  0.1132
  155loPI   GL2 2470   6.865   7.049  10.968  0.2420 -0.1493 -0.3740
  155loPI   C1A 2471   6.573   6.838  10.629  0.2263  0.2583  0.0053
  155loPI   C2A 2472   6.549   6.805  10.243 -0.0736 -0.1062  0.3778
  155loPI   C3A 2473   6.481   6.804   9.877  0.1446  0.0985  0.0670
  155loPI   C4A 2474   6.324   6.852   9.511  0.0222  0.1888 -0.0349
  155loPI   C5A 2475   6.463   6.942   9.133  0.0773 -0.1221  0.1533
  155loPI   C6A 2476   6.475   7.142   8.788  0.1175  0.0538 -0.0199
  155loPI   C1B 2477   6.949   7.101  10.521 -0.4178 -0.1135 -0.1135
  155loPI   C2B 2478   6.923   7.093  10.033 -0.0938  0.0089 -0.0793
  155loPI   C3B 2479   6.816   7.157   9.594 -0.0589 -0.1652  0.2661
  155loPI   C4B 2480   6.788   7.313   9.146  0.0601 -0.0699  0.1038
  156loPI    C1 2481   7.196   3.786  11.705 -0.0033 -0.1897 -0.3466
  156loPI    C2 2482   7.109   3.405  11.792 -0.1542 -0.0998 -0.0920
  156loPI    C3 2483   7.228   3.654  12.081 -0.2253  0.0919 -0.2252
  156loPI   PO4 2484   7.304   3.739  11.360 -0.1221  0.0454 -0.0052
  156loPI   GL1 2485   7.089   3.385  11.185 -0.0486  0.1827  0.1703
  156loPI   GL2 2486   6.796   3.230  11.044 -0.2901 -0.1247 -0.3306
  156loPI   C1A 2487   7.186   3.403  10.768  0.0073 -0.0266  0.1223
  156loPI   C2A 2488   7.095   3.421  10.336  0.0499 -0.0543 -0.2680
  156loPI   C3A 2489   7.100   3.335   9.826 -0.0795 -0.1106  0.0493
  156loPI   C4A 2490   7.108   3.431   9.359 -0.0304  0.1286  0.2163
  156loPI   C5A 2491   6.696   3.402   9.099 -0.0785  0.3049  0.2084
  156loPI   C6A 2492   6.409   3.784   8.984 -0.0216 -0.0108  0.2066
  156loPI   C1B 2493   6.765   3.098  10.690  0.0284  0.2453 -0.4170
  156loPI   C2B 2494   6.671   3.076  10.336  0.2350  0.0986 -0.0336
  156loPI   C3B 2495   6.625   3.084   9.964 -0.2363  0.0404 -0.0015
  156loPI   C4B 2496   6.704   3.163   9.573  0.1078  0.2188  0.0085
  157loPI    C1 2497  16.920   2.288  11.853  0.0848 -0.0823 -0.1707
  157loPI    C2 2498  16.853   2.119  12.209  0.0639 -0.0824 -0.1747
  157loPI    C3 2499  17.016   2.484  12.188 -0.1370  0.0099 -0.1588
  157loPI   PO4 2500  17.023   2.067  11.658 -0.2060 -0.1871  0.2824
  157loPI   GL1 2501  16.912   2.071  11.254 -0.3310 -0.2432  0.1738
  157loPI   GL2 2502  16.568   1.934  11.168 -0.0244 -0.0795  0.1264
  157loPI   C1A 2503  16.996   2.059  10.754 -0.0335 -0.0088 -0.0288
  157loPI   C2A 2504  17.134   2.009  10.348 -0.1951  0.0758  0.0073
  157loPI   C3A 2505  17.198   2.086   9.950 -0.1108  0.2578  0.1700
  157loPI   C4A 2506  17.231   2.064   9.550 -0.0112  0.0917 -0.0382
  157loPI   C5A 2507  17.348   1.906   9.286 -0.1176  0.1058 -0.0696
  157loPI   C6A 2508  17.146   1.535   8.891 -0.0571 -0.1496 -0.2749
  157loPI   C1B 2509  16.596   1.773  10.730  0.4047 -0.2821  0.5096
  157loPI   C2B 2510  16.688   1.880  10.289  0.0389 -0.0225 -0.2143
  157loPI   C3B 2511  16.787   1.840   9.869 -0.2420 -0.1017 -0.1892
  157loPI   C4B 2512  16.888   1.769   9.398 -0.0938 -0.2033 -0.1820
  158loPI    C1 2513   4.437  11.517  12.007  0.3926 -0.2270  0.0992
  158loPI    C2 2514   4.604  11.800  12.235 -0.3146  0.1206  0.2150
  158loPI    C3 2515   4.504  11.447  12.395 -0.1476  0.0933  0.2615
  158loPI   PO4 2516   4.581  11.538  11.805  0.0552 -0.1200  0.1435
  158loPI   GL1 2517   4.560  11.684  11.390  0.1439  0.1699  0.3387
  158loPI   GL2 2518   4.407  11.923  11.429  0.1044  0.1569  0.0368
  158loPI   C1A 2519   4.560  11.683  10.916 -0.0559  0.0744 -0.2635
  158loPI   C2A 2520   4.552  11.714  10.444 -0.1433  0.1960 -0.2257
  158loPI   C3A 2521   4.502  11.729  10.059  0.1436  0.0396 -0.1491
  158loPI   C4A 2522   4.489  11.866   9.666  0.0687  0.2039  0.0271
  158loPI   C5A 2523   4.120  12.011   9.395 -0.0698 -0.1369  0.1404
  158loPI   C6A 2524   3.784  11.906   9.046 -0.0088  0.1456  0.0757
  158loPI   C1B 2525   4.116  11.836  11.111 -0.0666  0.0303 -0.1225
  158loPI   C2B 2526   4.104  11.936  10.748 -0.2139  0.1734  0.1008
  158loPI   C3B 2527   3.980  11.988  10.323 -0.2354  0.1968 -0.1157
  158loPI   C4B 2528   4.081  12.005   9.852  0.2014  0.0330 -0.2329
  159loPI    C1 2529   8.751   9.573  11.397  0.2788  0.0080 -0.2646
  159loPI    C2 2530   8.535   9.246  11.476  0.0477  0.2022 -0.0763
  159loPI    C3 2531   8.683   9.465  11.776  0.1299  0.3177 -0.2001
  159loPI   PO4 2532   8.591   9.672  11.253 -0.0920 -0.0516 -0.1565
  159loPI   GL1 2533   8.414   9.794  10.863  0.0357 -0.1057  0.0172
  159loPI   GL2 2534   8.513  10.085  10.794 -0.1476 -0.0303 -0.1478
  159loPI   C1A 2535   8.462   9.447  10.537 -0.1087  0.1125  0.0226
  159loPI   C2A 2536   8.504   9.380  10.174  0.0389  0.0039  0.1043
  159loPI   C3A 2537   8.418   9.453   9.861  0.2963  0.0595 -0.0427
  159loPI   C4A 2538   8.403   9.442   9.464 -0.0115 -0.3212 -0.1641
  159loPI   C5A 2539   8.487   9.329   9.022 -0.1875  0.0999  0.2532
  159loPI   C6A 2540   8.815   9.024   8.825  0.0968  0.0574 -0.0563
  159loPI   C1B 2541   8.397  10.027  10.369  0.1442  0.2059 -0.0782
  159loPI   C2B 2542   8.376  10.019   9.931 -0.1906 -0.0590  0.1537
  159loPI   C3B 2543   8.330   9.916   9.477  0.0022 -0.2289  0.0039
  159loPI   C4B 2544   8.212   9.907   9.044  0.0840 -0.3654 -0.1133
  160loPI    C1 2545  15.915  12.367  11.938 -0.0481 -0.0854 -0.0612
  160loPI    C2 2546  15.521  12.433  11.953 -0.0293  0.0263 -0.0463
  160loPI    C3 2547  15.660  12.062  11.895 -0.1323 -0.0751  0.3326
  160loPI   PO4 2548  16.063  12.487  11.685  0.1610 -0.3672 -0.3101
  160loPI   GL1 2549  16.043  12.495  11.285 -0.1027 -0.2681 -0.3958
  160loPI   GL2 2550  16.342  12.266  11.138 -0.4559 -0.1147 -0.0175
  160loPI   C1A 2551  16.001  12.588  10.770 -0.0270  0.3288  0.1179
  160loPI   C2A 2552  16.088  12.678  10.338 -0.1275  0.4144 -0.0533
  160loPI   C3A 2553  16.138  12.735   9.847 -0.1500  0.0044 -0.2287
  160loPI   C4A 2554  16.294  12.765   9.405  0.1182 -0.1130  0.2704
  160loPI   C5A 2555  16.650  12.693   9.031  0.3551 -0.0128  0.0868
  160loPI   C6A 2556  17.071  12.554   9.087  0.0299  0.1149  0.2303
  160loPI   C1B 2557  16.452  12.392  10.878  0.0019 -0.2375 -0.1073
  160loPI   C2B 2558  16.603  12.420  10.413  0.0038  0.0874 -0.1716
  160loPI   C3B 2559  16.614  12.547  10.036 -0.1009  0.0190 -0.3190
  160loPI   C4B 2560  16.693  12.603   9.609 -0.3225  0.1065  0.0141
  161loPI    C1 2561  11.242  15.870  11.473  0.5145  0.0009 -0.0605
  161loPI    C2 2562  11.137  15.487  11.424  0.2409  0.0376  0.2047
  161loPI    C3 2563  11.442  15.581  11.665  0.1541  0.0006  0.3298
  161loPI   PO4 2564  11.237  15.999  11.183  0.5287  0.2411  0.1574
  161loPI   GL1 2565  11.152  15.950  10.747  0.2612 -0.0357  0.1126
  161loPI   GL2 2566  10.771  16.003  10.705  0.0679  0.0420 -0.0086
  161loPI   C1A 2567  11.172  15.951  10.329 -0.2404 -0.0705 -0.1615
  161loPI   C2A 2568  11.208  15.911   9.934  0.2186  0.4040 -0.1337
  161loPI   C3A 2569  11.276  15.759   9.475 -0.2677 -0.0597 -0.0816
  161loPI   C4A 2570  11.227  15.800   9.045 -0.0056  0.1276 -0.0556
  161loPI   C5A 2571  11.045  15.572   8.788 -0.1629  0.3121  0.0763
  161loPI   C6A 2572  10.686  15.697   8.559  0.1991 -0.0283 -0.1513
  161loPI   C1B 2573  10.693  16.152  10.301 -0.1159  0.0208  0.3381
  161loPI   C2B 2574  10.665  16.162   9.824  0.0090  0.0043 -0.1552
  161loPI   C3B 2575  10.857  15.962   9.529 -0.0499  0.3509  0.1876
  161loPI   C4B 2576  10.760  15.970   9.056 -0.0653 -0.1277  0.0665
  162loPI    C1 2577  13.927   4.824  11.325  0.0770 -0.0409  0.2473
  162loPI    C2 2578  14.297   4.816  11.478  0.2058 -0.1508 -0.0631
  162loPI    C3 2579  13.988   4.685  11.695  0.3560 -0.1134  0.1765
  162loPI   PO4 2580  13.985   4.684  11.062  0.0675 -0.0680 -0.3631
  162loPI   GL1 2581  14.147   4.713  10.667 -0.0426  0.0992  0.2383
  162loPI   GL2 2582  13.826   4.605  10.495 -0.2688 -0.3554 -0.0966
  162loPI   C1A 2583  14.178   4.925  10.266 -0.2620 -0.0591  0.0432
  162loPI   C2A 2584  14.291   4.913   9.904 -0.1616  0.2394  0.1682
  162loPI   C3A 2585  14.368   4.928   9.490 -0.0531 -0.0187  0.0811
  162loPI   C4A 2586  14.664   4.893   9.145 -0.1075 -0.2195 -0.2908
  162loPI   C5A 2587  14.894   4.946   8.690  0.2068  0.0516  0.0695
  162loPI   C6A 2588  15.100   5.318   8.557 -0.0376  0.0898 -0.3333
  162loPI   C1B 2589  13.905   4.506  10.018 -0.2127  0.0560 -0.2073
  162loPI   C2B 2590  13.965   4.499   9.595  0.5412  0.3067  0.0881
  162loPI   C3B 2591  13.892   4.407   9.092  0.1798 -0.0695  0.1405
  162loPI   C4B 2592  14.152   4.348   8.725  0.1308  0.1311 -0.1910
  163loPI    C1 2593  10.747  12.390  11.395  0.0841  0.0511  0.0272
  163loPI    C2 2594  10.778  12.609  11.728 -0.0978  0.1587 -0.0251
  163loPI    C3 2595  11.097  12.557  11.493  0.0624 -0.0180  0.2266
  163loPI   PO4 2596  10.458  12.350  11.414 -0.2605  0.0023  0.0940
  163loPI   GL1 2597  10.104  12.588  11.199  0.0825 -0.3491  0.0250
  163loPI   GL2 2598   9.997  12.857  11.209 -0.3832  0.2975 -0.1919
  163loPI   C1A 2599  10.352  12.572  10.842  0.0642 -0.1166  0.3099
  163loPI   C2A 2600  10.299  12.566  10.448 -0.0005 -0.3307 -0.2787
  163loPI   C3A 2601  10.365  12.562  10.107 -0.2014 -0.2112  0.2135
  163loPI   C4A 2602  10.335  12.551   9.748  0.1459  0.0722 -0.2983
  163loPI   C5A 2603  10.357  12.778   9.454 -0.1936  0.1120  0.3198
  163loPI   C6A 2604  10.336  12.697   9.048  0.0869 -0.0430  0.1400
  163loPI   C1B 2605   9.858  12.708  10.775  0.5199  0.0158  0.0863
  163loPI   C2B 2606   9.864  12.797  10.367 -0.0699 -0.0716 -0.0813
  163loPI   C3B 2607   9.913  12.727   9.959  0.1049 -0.2484 -0.3414
  163loPI   C4B 2608   9.845  12.868   9.592 -0.0435 -0.2228  0.0932
  164loPI    C1 2609  15.487   4.132  11.387 -0.1194 -0.0284 -0.1456
  164loPI    C2 2610  15.179   4.076  11.636  0.0873  0.1135  0.1478
  164loPI    C3 2611  15.515   4.247  11.769  0.2499  0.0722 -0.1995
  164loPI   PO4 2612  15.411   4.200  11.199  0.0739  0.0113  0.1617
  164loPI   GL1 2613  15.309   4.222  10.779 -0.0068  0.0285 -0.1948
  164loPI   GL2 2614  15.437   4.564  10.777 -0.1809 -0.1264 -0.2398
  164loPI   C1A 2615  15.399   4.123  10.324 -0.0630  0.1778 -0.0418
  164loPI   C2A 2616  15.522   4.167   9.884 -0.0434 -0.0622  0.1958
  164loPI   C3A 2617  15.833   4.211   9.646 -0.0968 -0.0133 -0.2259
  164loPI   C4A 2618  16.058   4.424   9.362 -0.0467  0.1308 -0.0420
  164loPI   C5A 2619  15.862   4.509   8.988 -0.1268  0.0336 -0.1677
  164loPI   C6A 2620  15.751   4.606   8.581 -0.1485  0.1355  0.3372
  164loPI   C1B 2621  15.601   4.644  10.421 -0.0062 -0.0634  0.1417
  164loPI   C2B 2622  15.783   4.575  10.002  0.1987 -0.1882  0.2389
  164loPI   C3B 2623  15.900   4.779   9.709 -0.2743 -0.1708  0.0586
  164loPI   C4B 2624  16.037   4.957   9.311 -0.1132 -0.2504  0.0255
  165loPI    C1 2625   1.596  11.313  12.055  0.0876  0.0481  0.0379
  165loPI    C2 2626   1.593  11.007  12.313  0.1515 -0.0065 -0.0254
  165loPI    C3 2627   1.490  11.374  12.436 -0.0796 -0.0826  0.0133
  165loPI   PO4 2628   1.559  11.227  11.853 -0.2420  0.2121  0.0719
  165loPI   GL1 2629   1.563  11.576  11.436 -0.1163  0.2402 -0.0259
  165loPI   GL2 2630   1.311  11.817  11.332 -0.2819  0.4504  0.2302
  165loPI   C1A 2631   1.722  11.447  11.161  0.0376  0.0784  0.3407
  165loPI   C2A 2632   1.913  11.425  10.846  0.2774 -0.2935  0.0438
  165loPI   C3A 2633   1.914  11.330  10.503  0.0389  0.0805  0.0817
  165loPI   C4A 2634   1.898  11.389  10.197  0.0655  0.0010 -0.0315
  165loPI   C5A 2635   1.901  11.381   9.762  0.0790 -0.1386  0.2564
  165loPI   C6A 2636   1.890  11.631   9.445 -0.0079  0.0985 -0.0970
  165loPI   C1B 2637   1.328  11.723  10.938  0.1037  0.1908 -0.2204
  165loPI   C2B 2638   1.337  11.640  10.511  0.2184  0.0372 -0.2750
  165loPI   C3B 2639   1.255  11.680  10.074  0.0197  0.0507 -0.0277
  165loPI   C4B 2640   1.342  11.705   9.622 -0.1274  0.1696  0.2435
  166loPI    C1 2641   0.267   1.559  11.996  0.2104 -0.0665 -0.1797
  166loPI    C2 2642   0.381   1.850  11.747  0.1915  0.3178  0.2494
  166loPI    C3 2643   0.118   1.927  12.038 -0.1856 -0.2489  0.0758
  166loPI   PO4 2644   0.232   1.409  11.832 -0.1911 -0.0765 -0.0503
  166loPI   GL1 2645   0.058   1.541  11.437  0.1015 -0.2068 -0.2152
  166loPI   GL2 2646   0.268   1.307  11.323  0.1166 -0.0457  0.0593
  166loPI   C1A 2647  -0.083   1.652  11.060 -0.0782 -0.0385  0.0846
  166loPI   C2A 2648  -0.146   1.594  10.573 -0.2123  0.1539  0.0198
  166loPI   C3A 2649   0.004   1.581  10.168  0.5459  0.2751 -0.0218
  166loPI   C4A 2650   0.025   1.536   9.689 -0.2435  0.0389 -0.1159
  166loPI   C5A 2651   0.122   1.267   9.277  0.1280  0.0779  0.0369
  166loPI   C6A 2652   0.344   1.175   8.894 -0.0550  0.2036 -0.1091
  166loPI   C1B 2653   0.401   1.020  11.076 -0.0056  0.1346 -0.6867
  166loPI   C2B 2654   0.475   0.797  10.680 -0.0032  0.1136 -0.1690
  166loPI   C3B 2655   0.605   0.864  10.237  0.1716 -0.0527  0.1954
  166loPI   C4B 2656   0.610   0.727   9.777 -0.0457 -0.0176 -0.0512
  167loPI    C1 2657  12.676  13.206  11.690 -0.1426 -0.1786 -0.0820
  167loPI    C2 2658  12.986  12.969  11.603  0.1012  0.2013 -0.2757
  167loPI    C3 2659  12.917  13.078  11.982 -0.0478 -0.2173 -0.1767
  167loPI   PO4 2660  12.475  13.112  11.557 -0.0550  0.0217  0.0333
  167loPI   GL1 2661  12.437  13.352  11.201  0.0948  0.0527  0.1442
  167loPI   GL2 2662  12.632  13.143  11.049 -0.0616  0.4370 -0.0259
  167loPI   C1A 2663  12.057  13.416  10.839 -0.0513  0.0247  0.0856
  167loPI   C2A 2664  12.009  13.491  10.415 -0.2246 -0.1427 -0.0169
  167loPI   C3A 2665  12.048  13.528   9.986  0.3499  0.2485  0.2926
  167loPI   C4A 2666  11.990  13.632   9.611 -0.0835  0.1659  0.1427
  167loPI   C5A 2667  11.995  13.603   9.283 -0.2097  0.0757  0.2175
  167loPI   C6A 2668  11.893  13.358   8.995 -0.0215  0.1268 -0.0638
  167loPI   C1B 2669  12.537  13.305  10.643  0.0164  0.1272 -0.3649
  167loPI   C2B 2670  12.550  13.417  10.211 -0.1372 -0.1298 -0.1613
  167loPI   C3B 2671  12.536  13.429   9.736 -0.3105  0.2515 -0.1927
  167loPI   C4B 2672  12.518  13.390   9.317  0.0580  0.0803 -0.1382
  168loPI    C1 2673   9.312  10.069  11.619 -0.1373  0.1585  0.1354
  168loPI    C2 2674   9.001   9.840  11.722 -0.0901  0.0368  0.0105
  168loPI    C3 2675   9.255   9.971  12.002 -0.0877 -0.1072  0.0767
  168loPI   PO4 2676   9.314  10.244  11.446  0.1787 -0.0756  0.0065
  168loPI   GL1 2677   9.560  10.331  11.151  0.2931 -0.1923 -0.1429
  168loPI   GL2 2678   9.410  10.073  11.007  0.2618 -0.0697 -0.0487
  168loPI   C1A 2679   9.775  10.486  10.831  0.1484  0.1333  0.1786
  168loPI   C2A 2680   9.776  10.457  10.439 -0.0029 -0.2110 -0.0768
  168loPI   C3A 2681   9.679  10.368  10.076  0.0684 -0.0350 -0.0199
  168loPI   C4A 2682   9.526  10.373   9.681 -0.0154  0.0915 -0.0584
  168loPI   C5A 2683   9.297  10.447   9.233 -0.1391 -0.4098 -0.2351
  168loPI   C6A 2684   9.171  10.507   8.785  0.2253  0.1333 -0.0026
  168loPI   C1B 2685   9.357  10.055  10.588  0.3408 -0.0453  0.2019
  168loPI   C2B 2686   9.283   9.997  10.209  0.2401 -0.0055  0.0810
  168loPI   C3B 2687   9.220  10.038   9.845 -0.3133 -0.3523  0.2026
  168loPI   C4B 2688   9.146  10.097   9.499  0.3421 -0.0997 -0.0330
  169loPI    C1 2689  13.406  12.628  11.620  0.1073  0.1933 -0.0380
  169loPI    C2 2690  13.697  12.725  11.877  0.0606  0.1746  0.0223
  169loPI    C3 2691  13.314  12.775  11.981  0.0404  0.1127 -0.0218
  169loPI   PO4 2692  13.437  12.704  11.410 -0.0510  0.1614 -0.0696
  169loPI   GL1 2693  13.069  12.722  11.126  0.2099 -0.2872 -0.2470
  169loPI   GL2 2694  13.403  12.870  10.933  0.0710  0.1083  0.1271
  169loPI   C1A 2695  13.099  12.573  10.720 -0.0184  0.0819  0.0196
  169loPI   C2A 2696  13.139  12.548  10.342 -0.0332  0.3831  0.1220
  169loPI   C3A 2697  13.124  12.589   9.964 -0.0076  0.1973 -0.1579
  169loPI   C4A 2698  13.061  12.701   9.532 -0.2186 -0.0302  0.2929
  169loPI   C5A 2699  13.023  12.898   9.106  0.0840  0.0278 -0.0008
  169loPI   C6A 2700  12.653  13.118   8.924  0.2847 -0.1635  0.0128
  169loPI   C1B 2701  13.446  12.906  10.533 -0.2825 -0.2670 -0.1290
  169loPI   C2B 2702  13.450  12.981  10.092 -0.0712  0.3315  0.4489
  169loPI   C3B 2703  13.467  12.964   9.727 -0.0232  0.0936  0.1398
  169loPI   C4B 2704  13.490  12.998   9.282  0.1915 -0.4748 -0.2638
  170loPI    C1 2705   9.625   6.296  11.295  0.2367  0.0382  0.1943
  170loPI    C2 2706   9.742   6.655  11.426  0.0283  0.0540  0.3411
  170loPI    C3 2707   9.550   6.405  11.672 -0.2384  0.0258  0.1090
  170loPI   PO4 2708   9.772   6.203  11.136 -0.2237 -0.1842  0.2790
  170loPI   GL1 2709  10.045   6.283  10.752  0.1803  0.2525  0.0694
  170loPI   GL2 2710  10.253   5.933  10.686  0.2752 -0.0585  0.0905
  170loPI   C1A 2711  10.001   6.331  10.295 -0.0877  0.2040 -0.1797
  170loPI   C2A 2712   9.805   6.372   9.968 -0.2921 -0.1028 -0.0161
  170loPI   C3A 2713   9.632   6.378   9.554 -0.1956 -0.0833 -0.3154
  170loPI   C4A 2714   9.587   6.545   9.211  0.0680  0.2342  0.3133
  170loPI   C5A 2715   9.890   6.681   8.956 -0.0669  0.3504 -0.0268
  170loPI   C6A 2716  10.036   6.891   8.633  0.1899 -0.1294  0.0640
  170loPI   C1B 2717  10.193   5.634  10.291  0.2166  0.0541  0.1382
  170loPI   C2B 2718  10.134   5.377   9.973 -0.0456 -0.0126  0.0302
  170loPI   C3B 2719  10.095   5.475   9.491 -0.0701 -0.0200 -0.1443
  170loPI   C4B 2720  10.145   5.707   9.214  0.2375 -0.1392 -0.1649
  171loPI    C1 2721   7.310   1.928  11.255 -0.0735 -0.2344  0.1651
  171loPI    C2 2722   7.085   1.888  11.583 -0.3437 -0.1022 -0.0004
  171loPI    C3 2723   6.956   2.113  11.279  0.1268  0.1829  0.0020
  171loPI   PO4 2724   7.506   2.079  11.301  0.2590  0.0454  0.0566
  171loPI   GL1 2725   7.821   2.082  10.989  0.3598  0.3071 -0.1058
  171loPI   GL2 2726   7.923   1.819  10.919 -0.0797 -0.4660  0.0146
  171loPI   C1A 2727   7.771   2.158  10.558  0.0636  0.1840 -0.2055
  171loPI   C2A 2728   7.742   2.284  10.192  0.0355  0.1060 -0.0673
  171loPI   C3A 2729   7.708   2.141   9.778 -0.1604  0.2090 -0.0622
  171loPI   C4A 2730   7.714   2.180   9.352  0.0905  0.0131 -0.0604
  171loPI   C5A 2731   7.820   2.024   9.017  0.0002 -0.2199 -0.3154
  171loPI   C6A 2732   7.768   1.766   8.708 -0.1454 -0.0560 -0.2387
  171loPI   C1B 2733   7.832   1.665  10.523 -0.3329  0.0481  0.0464
  171loPI   C2B 2734   7.724   1.660  10.073 -0.1004 -0.4177 -0.1178
  171loPI   C3B 2735   7.691   1.625   9.638 -0.1681  0.2462  0.1231
  171loPI   C4B 2736   7.739   1.572   9.196 -0.0511  0.0563 -0.1383
  172loPI    C1 2737   7.193   1.375  11.687  0.2351  0.0504  0.0377
  172loPI    C2 2738   6.940   1.136  11.885 -0.0821  0.2001 -0.1782
  172loPI    C3 2739   6.926   1.532  11.941  0.0351  0.2178 -0.2704
  172loPI   PO4 2740   7.115   1.329  11.449  0.2722  0.1280 -0.4111
  172loPI   GL1 2741   6.998   1.594  11.135  0.0233  0.0937  0.1992
  172loPI   GL2 2742   7.133   1.503  10.955  0.3579 -0.5854 -0.0605
  172loPI   C1A 2743   6.973   1.962  10.781  0.1173  0.0172  0.0407
  172loPI   C2A 2744   6.793   2.021  10.381 -0.1043 -0.2320 -0.2165
  172loPI   C3A 2745   6.786   2.043   9.988  0.1737 -0.2745 -0.0712
  172loPI   C4A 2746   6.834   2.057   9.593  0.0021 -0.1833 -0.1084
  172loPI   C5A 2747   6.887   1.998   9.187  0.1567 -0.1098 -0.2846
  172loPI   C6A 2748   6.583   2.088   8.909 -0.0464 -0.1338 -0.0125
  172loPI   C1B 2749   6.921   1.566  10.513 -0.3724 -0.3876 -0.2061
  172loPI   C2B 2750   6.944   1.626  10.137  0.2921 -0.1481  0.2095
  172loPI   C3B 2751   6.810   1.583   9.696  0.2317 -0.0273 -0.1289
  172loPI   C4B 2752   6.778   1.535   9.356 -0.1756 -0.0973 -0.1969
  173loPI    C1 2753   4.296  15.617  11.668  0.3418  0.1244  0.0477
  173loPI    C2 2754   4.282  15.450  12.031  0.1927  0.0354  0.0019
  173loPI    C3 2755   3.943  15.552  11.845  0.2776  0.2981 -0.0137
  173loPI   PO4 2756   4.396  15.811  11.672 -0.3053  0.1317 -0.1872
  173loPI   GL1 2757   4.511  16.136  11.458 -0.1428  0.3080 -0.0677
  173loPI   GL2 2758   4.195  16.143  11.325  0.0968  0.4401  0.1162
  173loPI   C1A 2759   4.620  16.308  11.079 -0.2006  0.0179 -0.2313
  173loPI   C2A 2760   4.514  16.362  10.625 -0.0251 -0.2214 -0.1748
  173loPI   C3A 2761   4.439  16.294  10.212 -0.0842  0.1703  0.2076
  173loPI   C4A 2762   4.435  16.353   9.756 -0.0617  0.1547  0.0891
  173loPI   C5A 2763   4.653  16.334   9.344  0.0498  0.0211 -0.0650
  173loPI   C6A 2764   4.770  16.140   8.972 -0.0743 -0.0604  0.0133
  173loPI   C1B 2765   4.240  16.045  10.941 -0.0499 -0.0593 -0.1614
  173loPI   C2B 2766   4.074  16.098  10.601 -0.0227  0.1416  0.2290
  173loPI   C3B 2767   4.051  15.941  10.244 -0.1971  0.1625 -0.0590
  173loPI   C4B 2768   3.978  15.896   9.802  0.0019  0.0902  0.1136
  174loPI    C1 2769   6.569   5.585  11.287 -0.0295 -0.0765 -0.0021
  174loPI    C2 2770   6.968   5.611  11.277 -0.0327  0.0204  0.1024
  174loPI    C3 2771   6.777   5.593  11.628 -0.1310  0.1429  0.0561
  174loPI   PO4 2772   6.437   5.780  11.226  0.2156  0.1223  0.0990
  174loPI   GL1 2773   6.245   6.070  10.881  0.0605  0.3208  0.2411
  174loPI   GL2 2774   6.491   5.910  10.721 -0.0979  0.1292  0.2029
  174loPI   C1A 2775   6.001   5.961  10.528 -0.2528  0.0149 -0.0167
  174loPI   C2A 2776   6.046   5.982  10.090 -0.2546  0.0907  0.3343
  174loPI   C3A 2777   5.949   6.031   9.673  0.3258  0.0094 -0.1733
  174loPI   C4A 2778   5.886   6.103   9.179 -0.2986 -0.1521  0.2126
  174loPI   C5A 2779   5.899   5.755   8.898 -0.1392  0.2896 -0.0993
  174loPI   C6A 2780   5.661   5.370   9.165 -0.2620 -0.1610 -0.2245
  174loPI   C1B 2781   6.536   5.741  10.338 -0.0957  0.1861 -0.2202
  174loPI   C2B 2782   6.418   5.881   9.867 -0.1296 -0.1112  0.0247
  174loPI   C3B 2783   6.459   5.712   9.515  0.1330  0.0590  0.0453
  174loPI   C4B 2784   6.424   5.693   9.054  0.0913  0.2997  0.0939
  175loPI    C1 2785   5.502  16.995  11.639 -0.3794 -0.0352  0.0518
  175loPI    C2 2786   5.516  16.640  11.823 -0.0820  0.0144  0.1302
  175loPI    C3 2787   5.760  16.935  11.938 -0.2339  0.2031 -0.0233
  175loPI   PO4 2788   5.507  17.032  11.406 -0.2138  0.1985  0.3617
  175loPI   GL1 2789   5.723  16.897  11.000  0.0087  0.0919 -0.0975
  175loPI   GL2 2790   5.993  16.986  10.890 -0.3096  0.1025 -0.1305
  175loPI   C1A 2791   5.382  17.043  10.749 -0.5196 -0.2170 -0.1317
  175loPI   C2A 2792   5.423  17.389  10.504  0.2643  0.2688  0.0181
  175loPI   C3A 2793   5.200  17.453  10.092  0.6849  0.3609 -0.1755
  175loPI   C4A 2794   5.088  17.484   9.753 -0.0562 -0.1791  0.2079
  175loPI   C5A 2795   5.006  17.277   9.442 -0.0819  0.2526 -0.1865
  175loPI   C6A 2796   5.323  16.951   9.268 -0.1318  0.0652  0.1388
  175loPI   C1B 2797   5.800  17.010  10.479  0.0829 -0.0990 -0.0474
  175loPI   C2B 2798   5.582  17.138  10.108 -0.0206  0.1116  0.0719
  175loPI   C3B 2799   5.566  17.348   9.675 -0.2005 -0.1038  0.0354
  175loPI   C4B 2800   5.453  17.472   9.240  0.2165 -0.2605 -0.1549
  176loPI    C1 2801   2.669  16.738  12.136 -0.4902  0.0550 -0.1606
  176loPI    C2 2802   2.564  16.868  12.500 -0.1405  0.0359 -0.0497
  176loPI    C3 2803   2.740  17.117  12.241 -0.0313 -0.0526 -0.0617
  176loPI   PO4 2804   2.478  16.611  12.009  0.1604 -0.0478 -0.1294
  176loPI   GL1 2805   2.365  16.504  11.586  0.0282  0.1361 -0.1264
  176loPI   GL2 2806   2.160  16.245  11.502  0.3241  0.1260  0.0714
  176loPI   C1A 2807   2.602  16.555  11.198 -0.0945 -0.0507  0.2579
  176loPI   C2A 2808   2.692  16.542  10.769 -0.1593 -0.1240 -0.2386
  176loPI   C3A 2809   2.614  16.562  10.377 -0.0233  0.1286  0.0767
  176loPI   C4A 2810   2.577  16.633   9.976  0.0309  0.2927 -0.0813
  176loPI   C5A 2811   2.637  16.655   9.591 -0.1881 -0.2285  0.0203
  176loPI   C6A 2812   2.681  16.834   9.206  0.0111  0.1528 -0.1750
  176loPI   C1B 2813   2.275  16.211  11.113 -0.0217 -0.5951 -0.1001
  176loPI   C2B 2814   2.272  16.287  10.615  0.1930 -0.1545 -0.1434
  176loPI   C3B 2815   2.186  16.302  10.162  0.2005 -0.0442  0.3529
  176loPI   C4B 2816   2.254  16.332   9.729  0.0250 -0.1597  0.1127
  177loPI    C1 2817   5.250   6.174  11.754 -0.1385 -0.1443 -0.0032
  177loPI    C2 2818   5.095   6.465  11.982  0.2691  0.0551  0.0300
  177loPI    C3 2819   5.216   6.123  12.150 -0.2437 -0.1582 -0.0137
  177loPI   PO4 2820   4.995   6.212  11.592  0.1932  0.2295  0.0797
  177loPI   GL1 2821   4.985   6.498  11.287 -0.1829 -0.0808  0.2291
  177loPI   GL2 2822   4.760   6.296  11.130  0.2564 -0.1262 -0.1037
  177loPI   C1A 2823   5.203   6.462  10.948 -0.0796 -0.3071  0.2135
  177loPI   C2A 2824   5.030   6.426  10.590  0.1808  0.0511 -0.1589
  177loPI   C3A 2825   5.161   6.426  10.122  0.2241 -0.0959  0.0105
  177loPI   C4A 2826   5.039   6.466   9.784 -0.1407  0.2645  0.2952
  177loPI   C5A 2827   5.028   6.583   9.358  0.2317 -0.0876 -0.3920
  177loPI   C6A 2828   4.986   6.870   9.041  0.3178  0.0324  0.1339
  177loPI   C1B 2829   4.648   6.068  10.824 -0.1687 -0.1842 -0.0391
  177loPI   C2B 2830   4.658   6.060  10.470 -0.1035  0.2144 -0.1460
  177loPI   C3B 2831   4.648   6.009  10.093  0.1572 -0.1942 -0.0150
  177loPI   C4B 2832   4.593   6.189   9.777 -0.1532  0.1890 -0.1754
  178loPI    C1 2833   9.280   6.686  11.207 -0.0440  0.0604 -0.0374
  178loPI    C2 2834   8.940   6.714  11.417  0.0372  0.1258  0.0871
  178loPI    C3 2835   9.270   6.902  11.544  0.2174 -0.2336  0.1644
  178loPI   PO4 2836   9.191   6.628  10.965  0.1228  0.0362 -0.2464
  178loPI   GL1 2837   9.203   6.772  10.652  0.0124  0.1152  0.3595
  178loPI   GL2 2838   9.390   6.922  10.516  0.2199  0.0936 -0.5282
  178loPI   C1A 2839   8.821   6.872  10.438 -0.0777 -0.0524  0.0952
  178loPI   C2A 2840   8.645   6.675  10.064  0.0780  0.0295 -0.0770
  178loPI   C3A 2841   8.631   6.812   9.650 -0.1728 -0.0966  0.2995
  178loPI   C4A 2842   8.632   6.762   9.181  0.0503 -0.1341  0.1839
  178loPI   C5A 2843   8.436   6.797   8.732  0.0232  0.2561  0.0352
  178loPI   C6A 2844   8.446   7.109   8.350  0.0231  0.2183  0.1153
  178loPI   C1B 2845   9.213   7.173  10.196 -0.3389  0.2816  0.1751
  178loPI   C2B 2846   9.092   7.235   9.697 -0.1628  0.1678  0.2530
  178loPI   C3B 2847   9.028   7.162   9.275  0.4220 -0.1192  0.0532
  178loPI   C4B 2848   8.877   7.077   8.878  0.1463 -0.2083 -0.0758
  179loPI    C1 2849  11.195  10.593  11.665  0.0408 -0.0902  0.0543
  179loPI    C2 2850  11.124  10.415  12.016  0.0766 -0.4416 -0.1127
  179loPI    C3 2851  11.497  10.430  11.872  0.0584 -0.3190 -0.1476
  179loPI   PO4 2852  10.997  10.568  11.527 -0.4888 -0.0465 -0.0497
  179loPI   GL1 2853  10.957  10.682  11.167  0.1840  0.3442 -0.2294
  179loPI   GL2 2854  11.189  10.774  10.956  0.0357  0.3955 -0.1669
  179loPI   C1A 2855  10.743  10.622  10.765  0.2392  0.1988 -0.0686
  179loPI   C2A 2856  10.598  10.571  10.274  0.1908 -0.1325  0.2052
  179loPI   C3A 2857  10.627  10.551   9.863  0.1827  0.1978 -0.0134
  179loPI   C4A 2858  10.594  10.679   9.455  0.2819 -0.0491  0.3635
  179loPI   C5A 2859  10.687  10.822   9.079  0.0876 -0.0461 -0.1652
  179loPI   C6A 2860  10.733  11.230   9.035 -0.0743 -0.0492  0.0654
  179loPI   C1B 2861  11.097  10.883  10.494 -0.0770  0.0768 -0.2442
  179loPI   C2B 2862  10.978  10.903  10.099  0.0364 -0.0695  0.1021
  179loPI   C3B 2863  11.029  10.945   9.684  0.0946  0.0992 -0.2178
  179loPI   C4B 2864  11.131  10.958   9.346  0.1318  0.1589  0.0590
  180loPI    C1 2865  16.979   7.043  11.513  0.0600  0.0797 -0.0960
  180loPI    C2 2866  17.341   7.170  11.400  0.1058  0.1837  0.1597
  180loPI    C3 2867  17.276   7.066  11.781 -0.1108  0.0810  0.0960
  180loPI   PO4 2868  16.978   6.813  11.379  0.1107 -0.0159  0.0299
  180loPI   GL1 2869  16.807   6.717  11.018  0.2533 -0.1976 -0.0696
  180loPI   GL2 2870  16.641   6.438  11.162  0.1806 -0.1366  0.0645
  180loPI   C1A 2871  16.588   6.788  10.617  0.2419  0.1774  0.2723
  180loPI   C2A 2872  16.605   6.551  10.268 -0.0369 -0.0566 -0.0096
  180loPI   C3A 2873  16.825   6.444   9.837  0.2041  0.1157 -0.2498
  180loPI   C4A 2874  16.970   6.513   9.389 -0.0588 -0.2082 -0.2508
  180loPI   C5A 2875  16.943   6.447   8.946 -0.0845  0.1427 -0.0830
  180loPI   C6A 2876  16.836   6.555   8.536 -0.1652  0.0345  0.1574
  180loPI   C1B 2877  16.710   6.273  10.791 -0.0148 -0.0582  0.0083
  180loPI   C2B 2878  16.841   6.134  10.378  0.0518  0.0511 -0.0823
  180loPI   C3B 2879  16.870   5.935   9.985 -0.0064  0.0300 -0.0961
  180loPI   C4B 2880  16.944   6.059   9.554  0.3802 -0.1967  0.0842
  181loPI    C1 2881   0.641   6.986  11.775 -0.1342 -0.0577 -0.1835
  181loPI    C2 2882   0.927   7.197  11.959 -0.1344 -0.0821 -0.1549
  181loPI    C3 2883   0.548   7.224  12.083 -0.1096 -0.2246 -0.0454
  181loPI   PO4 2884   0.650   7.082  11.515  0.2675  0.2567  0.2104
  181loPI   GL1 2885   0.581   6.955  11.151  0.1708  0.1331  0.2708
  181loPI   GL2 2886   1.009   6.887  11.253 -0.0802  0.1184  0.2437
  181loPI   C1A 2887   0.406   7.008  10.677 -0.3396 -0.4188 -0.2748
  181loPI   C2A 2888   0.553   6.957  10.330  0.3037  0.0119  0.0884
  181loPI   C3A 2889   0.448   7.017   9.973  0.0857  0.1160 -0.0928
  181loPI   C4A 2890   0.488   7.106   9.646  0.0165 -0.1925  0.2586
  181loPI   C5A 2891   0.613   7.220   9.320  0.0794 -0.3800  0.0567
  181loPI   C6A 2892   0.696   7.103   8.919  0.1273 -0.3374 -0.1484
  181loPI   C1B 2893   0.989   6.831  10.818  0.0451  0.0713 -0.2862
  181loPI   C2B 2894   0.984   6.690  10.479 -0.3198 -0.0460  0.1853
  181loPI   C3B 2895   0.955   6.793  10.106  0.0737  0.1425 -0.0842
  181loPI   C4B 2896   0.981   6.833   9.690 -0.0636  0.0661  0.1321
  182loPI    C1 2897   6.902  16.356  11.622  0.2059 -0.2886  0.0147
  182loPI    C2 2898   6.998  16.467  11.994 -0.0278 -0.0406  0.0043
  182loPI    C3 2899   6.746  16.162  11.935 -0.0786 -0.0077  0.0519
  182loPI   PO4 2900   6.824  16.634  11.480 -0.0335  0.1866 -0.1930
  182loPI   GL1 2901   6.937  16.547  10.988  0.1475 -0.2664  0.1232
  182loPI   GL2 2902   6.651  16.740  10.893  0.0888  0.1265 -0.0451
  182loPI   C1A 2903   7.054  16.630  10.554  0.1448 -0.3542 -0.1679
  182loPI   C2A 2904   6.999  16.647  10.148  0.4201  0.1124 -0.0582
  182loPI   C3A 2905   6.878  16.639   9.745 -0.0406 -0.0019  0.1632
  182loPI   C4A 2906   6.840  16.506   9.393  0.3251 -0.3698 -0.1282
  182loPI   C5A 2907   7.022  16.240   9.078 -0.1890 -0.2903 -0.0777
  182loPI   C6A 2908   7.012  15.921   8.849 -0.1294 -0.3515 -0.1295
  182loPI   C1B 2909   6.517  16.471  10.609 -0.2614 -0.1760  0.0516
  182loPI   C2B 2910   6.482  16.551  10.118 -0.2350 -0.0402 -0.0985
  182loPI   C3B 2911   6.226  16.591   9.829  0.1649 -0.2239 -0.2856
  182loPI   C4B 2912   5.939  16.608   9.363 -0.2233  0.0688  0.1125
  183loPI    C1 2913   8.636  16.070  11.432 -0.0582  0.2894 -0.2770
  183loPI    C2 2914   8.628  16.449  11.561 -0.1839  0.1032  0.2860
  183loPI    C3 2915   8.328  16.200  11.651 -0.0608 -0.1571 -0.0046
  183loPI   PO4 2916   8.649  15.926  11.219  0.0175 -0.0008 -0.1206
  183loPI   GL1 2917   8.785  15.900  10.835  0.1621 -0.1268  0.0663
  183loPI   GL2 2918   8.637  15.683  10.810 -0.0094 -0.0723  0.0068
  183loPI   C1A 2919   8.747  16.034  10.414 -0.0053  0.1138  0.1938
  183loPI   C2A 2920   8.705  16.070  10.029  0.2848 -0.0488  0.2332
  183loPI   C3A 2921   8.532  16.018   9.678  0.0057 -0.0706 -0.0965
  183loPI   C4A 2922   8.562  16.029   9.229  0.0060 -0.4362 -0.0739
  183loPI   C5A 2923   8.389  15.754   8.859  0.1720  0.1039 -0.1895
  183loPI   C6A 2924   8.154  15.414   9.010 -0.3120  0.1171  0.0700
  183loPI   C1B 2925   8.798  15.491  10.509 -0.4657 -0.3424 -0.1606
  183loPI   C2B 2926   8.910  15.557  10.079 -0.0846 -0.0211 -0.1060
  183loPI   C3B 2927   8.901  15.673   9.693  0.2286 -0.1120  0.0017
  183loPI   C4B 2928   9.060  15.853   9.332 -0.0677 -0.1602  0.0801
  184loPI    C1 2929  11.430  10.961  11.887  0.0523  0.1424  0.0047
  184loPI    C2 2930  11.756  11.085  12.082 -0.0588  0.1127  0.2115
  184loPI    C3 2931  11.520  10.805  12.244  0.0031 -0.1215 -0.0956
  184loPI   PO4 2932  11.580  10.968  11.599 -0.3496 -0.0770 -0.2313
  184loPI   GL1 2933  11.627  11.112  11.208  0.0138 -0.0170 -0.0704
  184loPI   GL2 2934  11.878  11.235  10.976  0.3057  0.0740 -0.1843
  184loPI   C1A 2935  11.421  11.203  10.785 -0.0731 -0.1920  0.0240
  184loPI   C2A 2936  11.467  11.150  10.335 -0.0078 -0.1990  0.0541
  184loPI   C3A 2937  11.362  11.211   9.917 -0.0064  0.1428  0.2106
  184loPI   C4A 2938  11.486  11.358   9.521 -0.0866 -0.0767 -0.0362
  184loPI   C5A 2939  11.701  11.331   9.068  0.0281 -0.0329  0.1758
  184loPI   C6A 2940  11.603  10.877   8.815  0.0989  0.0439  0.1392
  184loPI   C1B 2941  11.950  11.141  10.493 -0.0030  0.0566 -0.1679
  184loPI   C2B 2942  11.898  11.219  10.042  0.3587  0.4899  0.0299
  184loPI   C3B 2943  11.912  11.223   9.671  0.0465 -0.0296 -0.0586
  184loPI   C4B 2944  12.200  11.253   9.294 -0.0278 -0.3899 -0.0536
  185loPI    C1 2945   8.527   1.889  11.591  0.1433 -0.2271  0.0138
  185loPI    C2 2946   8.614   2.071  11.937 -0.1402  0.0986 -0.0797
  185loPI    C3 2947   8.618   1.671  11.914 -0.1450  0.0728  0.3059
  185loPI   PO4 2948   8.623   2.059  11.330 -0.1040  0.1860 -0.0294
  185loPI   GL1 2949   8.315   2.215  11.055 -0.2013 -0.0399 -0.0870
  185loPI   GL2 2950   8.551   2.002  10.850  0.2259  0.0307  0.1868
  185loPI   C1A 2951   8.190   2.364  10.640  0.0574 -0.0298  0.2501
  185loPI   C2A 2952   8.275   2.535  10.241 -0.2870  0.0607  0.0740
  185loPI   C3A 2953   8.242   2.418   9.746 -0.1372 -0.0347 -0.0555
  185loPI   C4A 2954   8.308   2.373   9.381 -0.0263  0.1163  0.0835
  185loPI   C5A 2955   8.241   2.540   9.024  0.0279 -0.0960  0.0641
  185loPI   C6A 2956   8.198   2.713   8.751 -0.0543 -0.0439  0.4151
  185loPI   C1B 2957   8.339   1.957  10.439  0.1370 -0.0590 -0.0106
  185loPI   C2B 2958   8.155   1.973   9.976  0.0766 -0.1108  0.1403
  185loPI   C3B 2959   8.130   1.940   9.548  0.1888 -0.1239 -0.1777
  185loPI   C4B 2960   8.280   1.876   9.174 -0.3574 -0.4084  0.2348
  186loPI    C1 2961   3.879  13.279  12.002  0.0736  0.0928  0.0301
  186loPI    C2 2962   4.268  13.217  12.073  0.0146 -0.2462  0.0727
  186loPI    C3 2963   4.034  13.369  12.360  0.0677 -0.2659  0.1269
  186loPI   PO4 2964   3.920  13.409  11.738  0.0499  0.5077  0.1143
  186loPI   GL1 2965   3.845  13.273  11.399 -0.3009 -0.2664 -0.1791
  186loPI   GL2 2966   3.617  13.027  11.505  0.0084  0.3106 -0.1685
  186loPI   C1A 2967   3.851  13.559  10.993  0.1062  0.1328 -0.1802
  186loPI   C2A 2968   3.811  13.638  10.571  0.0064  0.0199  0.0415
  186loPI   C3A 2969   3.913  13.584  10.176  0.1784  0.4888 -0.0886
  186loPI   C4A 2970   3.966  13.533   9.697  0.2802  0.1932  0.2769
  186loPI   C5A 2971   3.874  13.508   9.241  0.0437  0.4507  0.1992
  186loPI   C6A 2972   3.929  13.114   8.963 -0.1816 -0.0094  0.0226
  186loPI   C1B 2973   3.483  13.172  11.093 -0.1616  0.0144  0.3453
  186loPI   C2B 2974   3.513  13.159  10.684 -0.0997 -0.0849 -0.1008
  186loPI   C3B 2975   3.494  13.260  10.264  0.1857  0.0247 -0.1765
  186loPI   C4B 2976   3.580  13.230   9.843  0.2391 -0.2009 -0.0763
  187loPI    C1 2977  15.653  15.597  11.931  0.0304  0.0062  0.2449
  187loPI    C2 2978  15.656  15.892  12.200 -0.0489  0.0726  0.1738
  187loPI    C3 2979  15.637  15.512  12.322 -0.1427  0.1045  0.2601
  187loPI   PO4 2980  15.730  15.764  11.670  0.2430  0.0333 -0.2285
  187loPI   GL1 2981  15.571  16.044  11.350 -0.1861  0.1744 -0.0294
  187loPI   GL2 2982  15.867  16.241  11.294  0.1174  0.0431  0.3003
  187loPI   C1A 2983  15.571  15.896  10.991 -0.2413  0.2215  0.0607
  187loPI   C2A 2984  15.630  15.832  10.528  0.0605 -0.2854  0.2195
  187loPI   C3A 2985  15.807  15.777  10.118  0.2412 -0.0994 -0.2487
  187loPI   C4A 2986  15.843  15.741   9.722  0.0211  0.1039 -0.0450
  187loPI   C5A 2987  16.028  15.473   9.364 -0.0589 -0.3529  0.0916
  187loPI   C6A 2988  16.010  15.054   9.253 -0.0398 -0.1394  0.0248
  187loPI   C1B 2989  16.072  16.134  10.854 -0.1676 -0.2335 -0.1035
  187loPI   C2B 2990  16.178  16.050  10.385 -0.0448 -0.2219  0.1805
  187loPI   C3B 2991  16.271  15.987   9.932 -0.0763 -0.0514  0.1592
  187loPI   C4B 2992  16.306  15.840   9.504  0.0399 -0.0183  0.0386
  188loPI    C1 2993   6.989  10.393  11.455  0.0254 -0.1281 -0.0669
  188loPI    C2 2994   7.335  10.324  11.267  0.0891 -0.0877  0.0345
  188loPI    C3 2995   7.319  10.313  11.666 -0.0298 -0.1029  0.0297
  188loPI   PO4 2996   6.818  10.283  11.397 -0.0931 -0.1058 -0.2695
  188loPI   GL1 2997   6.552  10.213  11.184 -0.1729 -0.1429 -0.0743
  188loPI   GL2 2998   6.244  10.340  11.233  0.1766  0.2877 -0.0574
  188loPI   C1A 2999   6.530  10.359  10.775  0.2716 -0.1289  0.1849
  188loPI   C2A 3000   6.628  10.345  10.400  0.0594  0.0180 -0.0532
  188loPI   C3A 3001   6.554  10.449  10.021 -0.0191  0.1260  0.2423
  188loPI   C4A 3002   6.416  10.341   9.650 -0.0638  0.2046  0.1355
  188loPI   C5A 3003   6.473  10.415   9.146  0.0374 -0.0401  0.1177
  188loPI   C6A 3004   6.485  10.090   8.807 -0.2181 -0.4037  0.1673
  188loPI   C1B 3005   6.164  10.613  10.970  0.2567 -0.3284  0.0874
  188loPI   C2B 3006   6.123  10.604  10.556  0.0362 -0.1940 -0.1233
  188loPI   C3B 3007   6.099  10.600  10.056  0.1483 -0.0604  0.1565
  188loPI   C4B 3008   5.961  10.738   9.641 -0.1447 -0.0878 -0.4229
  189loPI    C1 3009  12.996  14.725  11.779 -0.1187 -0.2111 -0.1264
  189loPI    C2 3010  12.959  14.347  11.903  0.1319 -0.1943  0.0058
  189loPI    C3 3011  12.961  14.645  12.169 -0.0321 -0.1011 -0.0956
  189loPI   PO4 3012  13.222  14.809  11.647 -0.0074  0.1319  0.0784
  189loPI   GL1 3013  13.274  14.883  11.225 -0.0592  0.1546  0.0696
  189loPI   GL2 3014  13.451  14.770  11.052  0.2431 -0.2829  0.1138
  189loPI   C1A 3015  13.040  15.019  10.872  0.0138  0.0168  0.0206
  189loPI   C2A 3016  13.142  15.055  10.456 -0.1420 -0.0252  0.4154
  189loPI   C3A 3017  13.331  15.075  10.021  0.0582 -0.0862  0.2532
  189loPI   C4A 3018  13.176  15.080   9.669 -0.0526 -0.0817  0.3621
  189loPI   C5A 3019  13.292  14.967   9.297  0.3042 -0.0250 -0.1197
  189loPI   C6A 3020  13.444  15.302   9.043  0.0281  0.0941  0.0234
  189loPI   C1B 3021  13.616  14.830  10.633  0.0869  0.0624 -0.1102
  189loPI   C2B 3022  13.785  14.808  10.208  0.2416  0.0534 -0.0382
  189loPI   C3B 3023  13.668  14.880   9.755  0.1322 -0.0962 -0.0020
  189loPI   C4B 3024  13.759  14.696   9.395 -0.0831  0.3385 -0.3475
  190loPI    C1 3025  10.714  13.787  11.752  0.1515  0.0177  0.1204
  190loPI    C2 3026  10.916  14.109  11.875  0.0663  0.0530  0.1684
  190loPI    C3 3027  10.620  13.961  12.100 -0.1378  0.1603 -0.0261
  190loPI   PO4 3028  10.745  13.925  11.403  0.0688 -0.1089  0.0128
  190loPI   GL1 3029  10.580  13.857  10.945 -0.0299  0.1700  0.0110
  190loPI   GL2 3030  10.272  13.593  10.858  0.0389  0.5886 -0.0601
  190loPI   C1A 3031  10.772  13.558  10.554 -0.0520  0.1001 -0.1855
  190loPI   C2A 3032  10.626  13.479  10.137 -0.0389 -0.1209 -0.0021
  190loPI   C3A 3033  10.614  13.687   9.742 -0.1248 -0.0439 -0.0420
  190loPI   C4A 3034  10.537  13.591   9.463  0.1157  0.2722 -0.1114
  190loPI   C5A 3035  10.434  13.495   9.089  0.1363  0.4667 -0.1117
  190loPI   C6A 3036  10.477  13.155   8.769  0.2432  0.1259 -0.0151
  190loPI   C1B 3037  10.326  13.789  10.484 -0.0455 -0.1786  0.0025
  190loPI   C2B 3038  10.230  13.808  10.081  0.2455  0.0584  0.2859
  190loPI   C3B 3039  10.090  13.651   9.672 -0.3959  0.0958  0.0656
  190loPI   C4B 3040  10.152  13.900   9.280 -0.1025  0.0574  0.0994
  191loPI    C1 3041   3.992   0.058  12.065  0.1254  0.1391 -0.0485
  191loPI    C2 3042   3.675  -0.082  12.266  0.1426 -0.1269 -0.2029
  191loPI    C3 3043   4.020  -0.013  12.458  0.0340  0.0296 -0.0615
  191loPI   PO4 3044   3.880   0.223  11.895 -0.2242 -0.3993  0.2635
  191loPI   GL1 3045   3.806   0.396  11.635  0.4023 -0.1560 -0.1595
  191loPI   GL2 3046   3.514   0.517  11.482 -0.0653  0.1289  0.0679
  191loPI   C1A 3047   3.880   0.322  11.206  0.0240  0.0945 -0.1319
  191loPI   C2A 3048   3.796   0.343  10.787  0.1637  0.2463  0.0932
  191loPI   C3A 3049   3.711   0.349  10.391  0.1164 -0.0375 -0.2167
  191loPI   C4A 3050   3.797   0.493   9.962 -0.1262 -0.0621  0.0864
  191loPI   C5A 3051   3.858   0.450   9.556  0.2701  0.1258 -0.1729
  191loPI   C6A 3052   3.958   0.758   9.282 -0.1784  0.0194  0.2743
  191loPI   C1B 3053   3.428   0.564  11.057  0.2702  0.0248 -0.0278
  191loPI   C2B 3054   3.307   0.537  10.648 -0.0804 -0.2671 -0.1231
  191loPI   C3B 3055   3.317   0.519  10.208  0.1270 -0.0054 -0.3527
  191loPI   C4B 3056   3.361   0.648   9.805 -0.1246 -0.3066  0.1089
  192loPI    C1 3057   6.045  10.535  11.804  0.2175 -0.0987 -0.0938
  192loPI    C2 3058   6.274  10.831  11.946 -0.0908  0.0379  0.1289
  192loPI    C3 3059   6.214  10.502  12.165  0.0279 -0.0719 -0.0016
  192loPI   PO4 3060   5.963  10.588  11.552 -0.1578  0.0793 -0.1432
  192loPI   GL1 3061   5.605  10.433  11.371  0.1680 -0.1927  0.3464
  192loPI   GL2 3062   5.765  10.382  11.133  0.0068 -0.0690 -0.1971
  192loPI   C1A 3063   5.331  10.634  11.079 -0.2010 -0.0712  0.1905
  192loPI   C2A 3064   5.204  10.401  10.667 -0.0238 -0.3461 -0.2078
  192loPI   C3A 3065   5.197  10.450  10.185 -0.2831 -0.5629  0.3370
  192loPI   C4A 3066   5.075  10.493   9.789  0.3463 -0.0135  0.1023
  192loPI   C5A 3067   4.957  10.547   9.329  0.1316 -0.0515  0.1456
  192loPI   C6A 3068   5.307  10.667   9.002 -0.4219 -0.1319 -0.0313
  192loPI   C1B 3069   5.807  10.321  10.771  0.1474 -0.0086 -0.2987
  192loPI   C2B 3070   5.777  10.284  10.342 -0.0495 -0.3570  0.2325
  192loPI   C3B 3071   5.654  10.420   9.964  0.1408  0.2091  0.0419
  192loPI   C4B 3072   5.476  10.168   9.635 -0.1205  0.0745  0.0160
  193loPI    C1 3073  10.204   1.522  11.035 -0.1165  0.0661 -0.0407
  193loPI    C2 3074  10.443   1.804  11.188 -0.0170  0.0347 -0.1375
  193loPI    C3 3075  10.112   1.696  11.384  0.1476 -0.0577  0.0940
  193loPI   PO4 3076  10.246   1.496  10.796 -0.2229 -0.1466 -0.0216
  193loPI   GL1 3077  10.102   1.255  10.436 -0.0951 -0.2639  0.2237
  193loPI   GL2 3078  10.018   1.008  10.408  0.3294  0.1838  0.3783
  193loPI   C1A 3079   9.656   1.427  10.305 -0.1569 -0.3321  0.0047
  193loPI   C2A 3080   9.513   1.537   9.898  0.0249  0.1668 -0.1571
  193loPI   C3A 3081   9.570   1.537   9.523  0.1021  0.0938  0.3485
  193loPI   C4A 3082   9.606   1.481   9.121  0.0514  0.2420  0.3124
  193loPI   C5A 3083   9.692   1.669   8.669  0.1435 -0.0100 -0.2104
  193loPI   C6A 3084   9.880   1.739   8.403  0.0522 -0.5063 -0.0817
  193loPI   C1B 3085   9.935   1.166   9.983 -0.2553  0.1643 -0.1874
  193loPI   C2B 3086   9.982   1.222   9.523 -0.0363 -0.0349  0.1769
  193loPI   C3B 3087  10.048   1.097   9.107  0.0652  0.2489  0.0110
  193loPI   C4B 3088   9.992   1.294   8.722 -0.1070  0.0577 -0.0291
  194loPI    C1 3089  13.990   0.518  11.316  0.3089 -0.3725 -0.0391
  194loPI    C2 3090  14.284   0.787  11.355  0.1101 -0.1771  0.1476
  194loPI    C3 3091  14.280   0.460  11.586  0.1429 -0.1451  0.1938
  194loPI   PO4 3092  13.964   0.487  11.123 -0.4474  0.1519  0.0429
  194loPI   GL1 3093  14.243   0.374  10.755  0.2958  0.0343  0.0389
  194loPI   GL2 3094  14.459   0.542  10.923 -0.2020  0.1325 -0.5353
  194loPI   C1A 3095  14.181   0.326  10.412  0.1028  0.1341 -0.0164
  194loPI   C2A 3096  14.381   0.313  10.073  0.1501  0.0117  0.5090
  194loPI   C3A 3097  14.423   0.468   9.643  0.0891  0.2985  0.1008
  194loPI   C4A 3098  14.620   0.379   9.288 -0.0603  0.1034  0.3888
  194loPI   C5A 3099  14.843   0.326   8.927 -0.1334  0.0249  0.1143
  194loPI   C6A 3100  15.257   0.211   8.747 -0.1051 -0.2601 -0.2515
  194loPI   C1B 3101  14.362   0.809  10.460  0.4278 -0.0406  0.0973
  194loPI   C2B 3102  14.372   0.803  10.032  0.0941  0.3621 -0.0766
  194loPI   C3B 3103  14.512   0.903   9.695 -0.0392  0.0916  0.1378
  194loPI   C4B 3104  14.719   0.905   9.205  0.4193  0.3900 -0.0977
  195loPI    C1 3105   2.349   9.493  12.103  0.0271  0.3240 -0.1106
  195loPI    C2 3106   2.644   9.253  12.226 -0.1261  0.2557  0.1317
  195loPI    C3 3107   2.619   9.627  12.365 -0.0118  0.3437 -0.0804
  195loPI   PO4 3108   2.429   9.474  11.846  0.1424 -0.1535  0.2111
  195loPI   GL1 3109   2.293   9.373  11.416 -0.2888 -0.1637 -0.0752
  195loPI   GL2 3110   2.019   9.392  11.280 -0.1013 -0.0261  0.1741
  195loPI   C1A 3111   2.548   9.137  11.008 -0.1985 -0.1309  0.1380
  195loPI   C2A 3112   2.555   9.035  10.632  0.0929 -0.1923  0.1859
  195loPI   C3A 3113   2.510   9.178  10.239 -0.1347  0.0976 -0.1474
  195loPI   C4A 3114   2.588   9.133   9.834 -0.0555 -0.3339 -0.1365
  195loPI   C5A 3115   2.515   9.286   9.410  0.0485  0.1095  0.1034
  195loPI   C6A 3116   2.577   9.458   8.937 -0.0099  0.1100 -0.0561
  195loPI   C1B 3117   2.034   9.325  10.884 -0.1835  0.0240 -0.0369
  195loPI   C2B 3118   2.009   9.273  10.418  0.0250 -0.3017 -0.3351
  195loPI   C3B 3119   2.057   9.356  10.015 -0.1506  0.1334 -0.3150
  195loPI   C4B 3120   2.101   9.343   9.702 -0.1790 -0.1573 -0.2456
  196loPI    C1 3121  10.747   4.239  11.201  0.0298 -0.0607  0.1560
  196loPI    C2 3122  10.554   3.910  11.321 -0.0801 -0.0474  0.0183
  196loPI    C3 3123  10.412   4.271  11.417  0.1312 -0.0391  0.3111
  196loPI   PO4 3124  10.872   4.113  10.951  0.3483 -0.1640  0.2475
  196loPI   GL1 3125  10.986   4.015  10.594 -0.3105  0.2819 -0.3725
  196loPI   GL2 3126  11.018   3.704  10.609 -0.1503  0.1540 -0.1696
  196loPI   C1A 3127  10.834   3.921  10.216  0.0910 -0.0279  0.0040
  196loPI   C2A 3128  10.758   4.076   9.833 -0.0065 -0.3027 -0.2442
  196loPI   C3A 3129  10.672   4.197   9.453  0.0728 -0.0337  0.2022
  196loPI   C4A 3130  10.746   4.266   9.037  0.1792 -0.1190  0.3444
  196loPI   C5A 3131  10.741   4.315   8.610 -0.0273  0.0532 -0.0408
  196loPI   C6A 3132  10.741   4.146   8.195  0.0879  0.2284 -0.0969
  196loPI   C1B 3133  11.200   3.454  10.190  0.0121  0.0059 -0.2294
  196loPI   C2B 3134  11.296   3.430   9.826  0.0612 -0.1667  0.0385
  196loPI   C3B 3135  11.234   3.454   9.395 -0.0834  0.1571 -0.1126
  196loPI   C4B 3136  11.147   3.415   9.106 -0.2455  0.0300  0.3241
  197loPI    C1 3137  16.947  10.358  11.781 -0.0391 -0.0629  0.2671
  197loPI    C2 3138  17.091  10.639  11.535 -0.2386 -0.2540 -0.0751
  197loPI    C3 3139  16.822  10.736  11.815 -0.1309 -0.0638 -0.0364
  197loPI   PO4 3140  16.833  10.208  11.610 -0.0460  0.1094 -0.0587
  197loPI   GL1 3141  17.068  10.259  11.127  0.4505  0.1949  0.1669
  197loPI   GL2 3142  16.750  10.230  11.046  0.0601  0.0871 -0.0933
  197loPI   C1A 3143  17.047  10.316  10.662  0.1638  0.2481 -0.1724
  197loPI   C2A 3144  17.110  10.255  10.277 -0.1895  0.0187 -0.1917
  197loPI   C3A 3145  17.083  10.074   9.854  0.3303 -0.2042  0.1624
  197loPI   C4A 3146  17.023  10.018   9.478 -0.1435 -0.1272  0.0378
  197loPI   C5A 3147  16.992   9.767   9.126  0.2024 -0.1000  0.2482
  197loPI   C6A 3148  17.195   9.515   8.752  0.4761 -0.1069  0.3201
  197loPI   C1B 3149  16.583  10.202  10.616  0.1342  0.2515 -0.0335
  197loPI   C2B 3150  16.586  10.076  10.224 -0.0808  0.1004  0.2435
  197loPI   C3B 3151  16.626   9.992   9.819 -0.0387  0.0008  0.1231
  197loPI   C4B 3152  16.507  10.000   9.389 -0.0167 -0.1265 -0.0688
  198loPI    C1 3153   0.653  15.236  12.459 -0.0627 -0.0168 -0.0475
  198loPI    C2 3154   0.774  14.861  12.387  0.1230  0.0176  0.0788
  198loPI    C3 3155   0.770  15.002  12.762 -0.3477  0.0072  0.0843
  198loPI   PO4 3156   0.719  15.405  12.303  0.0011  0.1964 -0.0254
  198loPI   GL1 3157   0.664  15.512  11.853 -0.0349 -0.0648 -0.0284
  198loPI   GL2 3158   0.458  15.705  11.657 -0.0993  0.0354  0.4820
  198loPI   C1A 3159   0.850  15.554  11.424  0.2934 -0.1306 -0.2902
  198loPI   C2A 3160   0.842  15.453  11.036 -0.1521  0.0214  0.0384
  198loPI   C3A 3161   0.804  15.338  10.607  0.1840  0.2678 -0.1526
  198loPI   C4A 3162   1.040  15.402  10.181  0.2103 -0.0827 -0.3186
  198loPI   C5A 3163   1.004  15.343   9.767  0.1752 -0.0126  0.0434
  198loPI   C6A 3164   1.298  15.399   9.441 -0.0284 -0.1083 -0.0342
  198loPI   C1B 3165   0.334  15.727  11.271 -0.2322 -0.1063 -0.1305
  198loPI   C2B 3166   0.391  15.613  10.797 -0.4116  0.0585 -0.1219
  198loPI   C3B 3167   0.470  15.551  10.329  0.0981  0.0500 -0.1919
  198loPI   C4B 3168   0.534  15.590   9.888  0.1121 -0.0260  0.0976
  199loPI    C1 3169   1.554   8.854  11.583  0.1464  0.0712 -0.0266
  199loPI    C2 3170   1.532   9.079  11.912  0.1237  0.0936 -0.0435
  199loPI    C3 3171   1.614   9.248  11.559  0.0538  0.0832 -0.0650
  199loPI   PO4 3172   1.380   8.667  11.602 -0.0246  0.0370 -0.2473
  199loPI   GL1 3173   1.438   8.343  11.300  0.2321  0.0088  0.0680
  199loPI   GL2 3174   1.322   8.173  11.061  0.1286  0.0156 -0.2085
  199loPI   C1A 3175   1.730   8.488  10.977 -0.2228 -0.3099 -0.1410
  199loPI   C2A 3176   1.686   8.534  10.523  0.2426  0.2650 -0.3121
  199loPI   C3A 3177   1.745   8.515  10.012  0.0584  0.0023  0.0042
  199loPI   C4A 3178   1.815   8.340   9.581  0.1913  0.3677  0.0789
  199loPI   C5A 3179   1.958   8.135   9.248  0.2505 -0.0755 -0.1808
  199loPI   C6A 3180   2.353   7.996   9.020 -0.0108  0.0616 -0.0691
  199loPI   C1B 3181   1.301   8.145  10.653  0.0309  0.0542 -0.1571
  199loPI   C2B 3182   1.235   8.075  10.181 -0.3133  0.2290  0.2677
  199loPI   C3B 3183   1.312   8.134   9.820 -0.1810  0.1754  0.0008
  199loPI   C4B 3184   1.215   8.221   9.432 -0.1308 -0.1025  0.2058
  200loPI    C1 3185   0.137   6.207  11.947  0.1798 -0.1473  0.1156
  200loPI    C2 3186  -0.019   5.855  12.055  0.1366 -0.1067  0.1874
  200loPI    C3 3187  -0.202   6.194  12.159  0.1975 -0.0619  0.1492
  200loPI   PO4 3188   0.227   6.218  11.751 -0.1208  0.1550  0.2913
  200loPI   GL1 3189   0.394   6.154  11.331 -0.4302  0.2664 -0.0051
  200loPI   GL2 3190   0.633   6.459  11.243  0.0448  0.0091 -0.1256
  200loPI   C1A 3191   0.529   6.052  10.943 -0.0524 -0.0428 -0.0864
  200loPI   C2A 3192   0.599   5.914  10.614  0.0941 -0.1529 -0.1043
  200loPI   C3A 3193   0.608   5.865  10.259 -0.1184  0.2325  0.2119
  200loPI   C4A 3194   0.638   5.981   9.848  0.0759  0.0911  0.1158
  200loPI   C5A 3195   0.636   5.939   9.402 -0.0916 -0.1729 -0.0345
  200loPI   C6A 3196   0.979   5.915   9.031  0.1313  0.0965 -0.0264
  200loPI   C1B 3197   0.560   6.494  10.749 -0.1434  0.0658  0.1310
  200loPI   C2B 3198   0.588   6.431  10.375  0.4354  0.0151  0.0723
  200loPI   C3B 3199   0.565   6.523  10.028 -0.0281  0.0352  0.1590
  200loPI   C4B 3200   0.611   6.559   9.558 -0.0940 -0.1535 -0.0342
  201loPI    C1 3201   4.034   5.005  11.974 -0.0278  0.0113  0.2242
  201loPI    C2 3202   3.720   4.868  12.181 -0.0892  0.1505  0.2243
  201loPI    C3 3203   3.721   5.245  12.046 -0.0132  0.0864  0.0434
  201loPI   PO4 3204   4.044   4.884  11.711  0.0170 -0.0904  0.2315
  201loPI   GL1 3205   3.831   4.753  11.358 -0.0674  0.1519  0.1211
  201loPI   GL2 3206   3.930   5.013  11.215 -0.0373  0.0503  0.2138
  201loPI   C1A 3207   3.967   4.479  11.018  0.0965  0.0835 -0.2167
  201loPI   C2A 3208   3.917   4.456  10.573  0.1737 -0.0820 -0.0593
  201loPI   C3A 3209   3.945   4.394  10.240  0.0529 -0.1622 -0.0401
  201loPI   C4A 3210   3.886   4.315   9.772 -0.0778  0.3551  0.2033
  201loPI   C5A 3211   3.990   4.304   9.356 -0.0111 -0.1310  0.2471
  201loPI   C6A 3212   3.989   4.508   9.019 -0.2460  0.0920  0.1097
  201loPI   C1B 3213   3.974   4.893  10.844 -0.0571 -0.1878  0.1361
  201loPI   C2B 3214   3.882   4.874  10.399  0.2809 -0.2119 -0.0741
  201loPI   C3B 3215   3.817   4.915  10.052 -0.0120 -0.3510 -0.0526
  201loPI   C4B 3216   3.925   5.003   9.637  0.1516 -0.1359 -0.0342
  202loPI    C1 3217  10.661   4.690  11.007  0.0063  0.1745 -0.0617
  202loPI    C2 3218  10.596   4.777  11.391  0.0405 -0.2203  0.0380
  202loPI    C3 3219  10.968   4.704  11.263  0.0269 -0.1079 -0.0673
  202loPI   PO4 3220  10.372   4.631  10.960 -0.0829 -0.1050  0.0241
  202loPI   GL1 3221  10.075   4.661  10.572  0.1131 -0.1294 -0.2422
  202loPI   GL2 3222  10.009   4.349  10.545  0.2338  0.1280 -0.1721
  202loPI   C1A 3223  10.154   4.867  10.240  0.1099 -0.0581 -0.2772
  202loPI   C2A 3224  10.239   4.908   9.831 -0.0072  0.1363 -0.1991
  202loPI   C3A 3225  10.213   5.016   9.461  0.0453  0.0166  0.0649
  202loPI   C4A 3226  10.278   5.173   9.096  0.3346  0.2178 -0.2064
  202loPI   C5A 3227  10.403   5.264   8.669  0.0980 -0.0011 -0.0948
  202loPI   C6A 3228  10.768   5.393   8.415  0.0755 -0.2008  0.0650
  202loPI   C1B 3229   9.857   4.376  10.105 -0.2393 -0.0942 -0.0795
  202loPI   C2B 3230   9.699   4.600   9.806  0.2261 -0.0719  0.0164
  202loPI   C3B 3231   9.745   4.747   9.414  0.1927 -0.1465 -0.1720
  202loPI   C4B 3232   9.667   4.862   9.054  0.1097 -0.0675 -0.4181
  203loPI    C1 3233   8.805  13.679  11.266  0.0138 -0.2333  0.0303
  203loPI    C2 3234   8.649  13.813  11.609  0.0355 -0.0113 -0.0446
  203loPI    C3 3235   8.889  14.049  11.394 -0.0339 -0.1238 -0.2483
  203loPI   PO4 3236   8.695  13.676  11.078  0.1893 -0.1050 -0.1147
  203loPI   GL1 3237   8.597  13.397  10.825  0.0702 -0.0799  0.0405
  203loPI   GL2 3238   8.729  13.160  10.674 -0.0993  0.1703 -0.1259
  203loPI   C1A 3239   8.155  13.276  10.690 -0.1240  0.3926 -0.0007
  203loPI   C2A 3240   8.006  13.355  10.240 -0.0456 -0.2130 -0.1318
  203loPI   C3A 3241   8.098  13.378   9.771  0.0961 -0.0886 -0.0808
  203loPI   C4A 3242   8.050  13.557   9.465 -0.1110  0.0247  0.1360
  203loPI   C5A 3243   7.921  13.725   9.030  0.0528  0.1576  0.0545
  203loPI   C6A 3244   7.852  13.484   8.663 -0.1168  0.1596 -0.1016
  203loPI   C1B 3245   8.546  13.351  10.321 -0.1255  0.3822 -0.0746
  203loPI   C2B 3246   8.574  13.423   9.923 -0.0857  0.2409 -0.1633
  203loPI   C3B 3247   8.508  13.429   9.458 -0.2056  0.2121 -0.2694
  203loPI   C4B 3248   8.370  13.242   9.134  0.0835 -0.3163  0.0995
  204loPI    C1 3249   1.397   6.280  11.829  0.3699  0.0997 -0.0879
  204loPI    C2 3250   1.745   6.356  12.010  0.2799 -0.0471  0.1526
  204loPI    C3 3251   1.466   6.140  12.198 -0.0282  0.2549  0.0509
  204loPI   PO4 3252   1.503   6.219  11.571 -0.0565 -0.0416  0.0047
  204loPI   GL1 3253   1.701   6.183  11.160 -0.2356  0.1962  0.1148
  204loPI   GL2 3254   1.505   6.026  10.956  0.1184  0.0383  0.2144
  204loPI   C1A 3255   1.893   6.286  10.796 -0.3156  0.0871  0.3307
  204loPI   C2A 3256   1.884   6.305  10.317 -0.0165 -0.0241 -0.1017
  204loPI   C3A 3257   1.864   6.373   9.907 -0.3278 -0.0608 -0.0657
  204loPI   C4A 3258   2.013   6.449   9.574  0.1300 -0.0757  0.1254
  204loPI   C5A 3259   1.968   6.535   9.078  0.1865  0.3246  0.1047
  204loPI   C6A 3260   1.736   6.157   8.808 -0.0103 -0.2029 -0.0235
  204loPI   C1B 3261   1.524   6.061  10.565  0.2616 -0.4746  0.2317
  204loPI   C2B 3262   1.487   6.099  10.052  0.0581 -0.3099  0.3722
  204loPI   C3B 3263   1.517   6.108   9.646 -0.0972  0.0164  0.2268
  204loPI   C4B 3264   1.499   6.085   9.274  0.1538  0.0524 -0.1450
  205loPI    C1 3265  10.877  17.080  10.998 -0.1479  0.1533 -0.2087
  205loPI    C2 3266  11.108  17.246  11.279 -0.0318 -0.0213 -0.1989
  205loPI    C3 3267  10.741  17.115  11.372 -0.0435  0.0389 -0.1592
  205loPI   PO4 3268  11.030  16.959  10.882  0.1477 -0.0696  0.0953
  205loPI   GL1 3269  11.206  17.057  10.510  0.1605 -0.1020  0.0015
  205loPI   GL2 3270  11.367  17.377  10.484 -0.3305  0.1102 -0.0325
  205loPI   C1A 3271  11.106  16.954  10.079 -0.0602  0.3777 -0.1276
  205loPI   C2A 3272  11.178  16.932   9.607  0.2772  0.1780 -0.5922
  205loPI   C3A 3273  11.239  16.939   9.240  0.4113 -0.1281 -0.0119
  205loPI   C4A 3274  11.208  16.854   8.874 -0.0790  0.1774  0.1037
  205loPI   C5A 3275  11.053  16.494   8.655  0.3711 -0.0792 -0.0540
  205loPI   C6A 3276  11.104  16.086   8.440 -0.1253  0.4439 -0.3925
  205loPI   C1B 3277  11.537  17.335  10.068  0.2087  0.3020  0.2883
  205loPI   C2B 3278  11.592  17.276   9.646 -0.1756 -0.2329  0.2310
  205loPI   C3B 3279  11.648  17.197   9.276  0.1515  0.3554 -0.1474
  205loPI   C4B 3280  11.692  17.091   8.894  0.0827 -0.0089 -0.0413
  206loPI    C1 3281   0.071  13.505  11.900 -0.0396 -0.1047  0.0977
  206loPI    C2 3282   0.010  13.310  12.244 -0.0227 -0.2115  0.0408
  206loPI    C3 3283  -0.298  13.479  12.052 -0.0227 -0.0983  0.1395
  206loPI   PO4 3284   0.294  13.550  11.918  0.0423 -0.3531 -0.1164
  206loPI   GL1 3285   0.384  13.628  11.546 -0.1729  0.1031 -0.1282
  206loPI   GL2 3286   0.372  13.955  11.503 -0.1106 -0.1605 -0.0801
  206loPI   C1A 3287   0.156  13.441  11.240 -0.2253 -0.1975  0.2002
  206loPI   C2A 3288   0.118  13.587  10.772  0.0213  0.4237  0.0039
  206loPI   C3A 3289   0.242  13.656  10.383 -0.0234  0.2366  0.3284
  206loPI   C4A 3290   0.199  13.635   9.885  0.2252  0.1440  0.0160
  206loPI   C5A 3291   0.175  13.846   9.550  0.3102  0.0254  0.1598
  206loPI   C6A 3292   0.377  14.195   9.261 -0.3948  0.1839 -0.1654
  206loPI   C1B 3293   0.473  13.914  11.082 -0.0234 -0.3865 -0.2215
  206loPI   C2B 3294   0.571  13.977  10.681 -0.0850  0.1054 -0.0664
  206loPI   C3B 3295   0.501  14.036  10.288  0.0638  0.0526  0.1202
  206loPI   C4B 3296   0.606  13.917   9.904  0.2664  0.3774 -0.5007
  207loPI    C1 3297  15.261   4.810  11.171  0.3124 -0.0059  0.0134
  207loPI    C2 3298  15.273   4.641  11.533  0.1258  0.1692  0.1033
  207loPI    C3 3299  15.364   5.028  11.490  0.1323  0.1527 -0.0352
  207loPI   PO4 3300  15.062   4.642  11.068 -0.0028  0.0021 -0.3196
  207loPI   GL1 3301  14.909   4.539  10.719  0.0175 -0.1205  0.0054
  207loPI   GL2 3302  14.668   4.765  10.518  0.0126  0.3766 -0.1295
  207loPI   C1A 3303  15.114   4.549  10.427 -0.0739 -0.0457  0.1004
  207loPI   C2A 3304  15.278   4.558   9.969  0.3189  0.0667  0.2281
  207loPI   C3A 3305  15.319   4.553   9.622  0.0233  0.2629 -0.1821
  207loPI   C4A 3306  15.605   4.729   9.323  0.0072  0.0848 -0.3393
  207loPI   C5A 3307  15.618   5.008   8.933  0.2000  0.2628 -0.1468
  207loPI   C6A 3308  15.597   5.171   8.566  0.0325  0.1474 -0.2067
  207loPI   C1B 3309  14.766   4.726  10.066 -0.0172 -0.1143  0.0739
  207loPI   C2B 3310  14.790   4.708   9.660 -0.0208 -0.1567 -0.2676
  207loPI   C3B 3311  14.905   4.494   9.330 -0.0597 -0.1615  0.0228
  207loPI   C4B 3312  15.181   4.618   8.940  0.1749 -0.0016 -0.1296
  208loPI    C1 3313  13.498   0.957  11.436 -0.1118  0.2563  0.0492
  208loPI    C2 3314  13.639   1.253  11.664 -0.0737  0.1412  0.1762
  208loPI    C3 3315  13.449   0.944  11.832  0.2817 -0.1286  0.0926
  208loPI   PO4 3316  13.614   0.874  11.218 -0.0883 -0.3455 -0.0506
  208loPI   GL1 3317  13.577   0.874  10.858 -0.0289 -0.0792  0.3426
  208loPI   GL2 3318  13.414   1.103  10.735  0.3590 -0.0374 -0.1049
  208loPI   C1A 3319  13.865   0.643  10.510 -0.1521 -0.1979  0.2667
  208loPI   C2A 3320  13.889   0.505  10.095 -0.0412  0.2696 -0.3494
  208loPI   C3A 3321  13.900   0.593   9.673 -0.0380  0.2937 -0.0233
  208loPI   C4A 3322  13.806   0.648   9.336 -0.0886 -0.0044 -0.0134
  208loPI   C5A 3323  13.871   0.800   8.843 -0.1946 -0.0356 -0.0048
  208loPI   C6A 3324  13.963   1.021   8.490  0.3466  0.2004 -0.2806
  208loPI   C1B 3325  13.394   0.920  10.376 -0.1636  0.0274 -0.0851
  208loPI   C2B 3326  13.479   0.834  10.006 -0.1014  0.1682 -0.0519
  208loPI   C3B 3327  13.422   0.709   9.604  0.0332  0.1256 -0.0444
  208loPI   C4B 3328  13.364   0.795   9.109 -0.2843 -0.0296  0.0217
  209loPI    C1 3329  10.120  10.369  11.730 -0.0642 -0.0595  0.0087
  209loPI    C2 3330  10.172  10.412  12.124  0.1983  0.2024 -0.0513
  209loPI    C3 3331  10.279  10.071  11.945  0.1247  0.1013  0.0945
  209loPI   PO4 3332   9.870  10.530  11.621 -0.0988  0.0033 -0.0514
  209loPI   GL1 3333  10.021  10.668  11.225  0.0766  0.0013 -0.1569
  209loPI   GL2 3334   9.784  10.898  11.157 -0.1612  0.0022  0.3310
  209loPI   C1A 3335  10.253  10.795  10.792  0.0808 -0.0301 -0.1329
  209loPI   C2A 3336  10.185  10.802  10.432  0.2682  0.4020  0.0158
  209loPI   C3A 3337  10.131  10.768   9.902  0.0993  0.0058  0.2839
  209loPI   C4A 3338   9.920  10.753   9.501  0.2066  0.0533 -0.4494
  209loPI   C5A 3339   9.769  10.956   9.133  0.1217 -0.2493 -0.0397
  209loPI   C6A 3340   9.883  11.025   8.685  0.2317  0.0741 -0.1912
  209loPI   C1B 3341   9.797  10.981  10.723 -0.1280 -0.0792  0.3278
  209loPI   C2B 3342   9.758  10.967  10.290  0.2121  0.2854  0.0240
  209loPI   C3B 3343   9.640  10.926   9.885  0.2447 -0.1361  0.2263
  209loPI   C4B 3344   9.440  10.895   9.465 -0.2434  0.1442  0.0493
  210loPI    C1 3345  16.139   5.657  11.389 -0.1547 -0.0634  0.0104
  210loPI    C2 3346  16.246   5.365  11.641  0.0070  0.0756  0.1046
  210loPI    C3 3347  16.498   5.483  11.353  0.0093  0.2342  0.1705
  210loPI   PO4 3348  15.899   5.761  11.311 -0.0347  0.1097 -0.0177
  210loPI   GL1 3349  15.520   5.887  11.073 -0.1459  0.0021  0.0999
  210loPI   GL2 3350  15.473   6.278  11.112  0.0817 -0.2439  0.0739
  210loPI   C1A 3351  15.383   5.930  10.620 -0.2536  0.0837  0.0144
  210loPI   C2A 3352  15.455   5.978  10.143 -0.4494 -0.0915  0.2146
  210loPI   C3A 3353  15.540   5.979   9.735  0.0168  0.0211  0.0081
  210loPI   C4A 3354  15.631   5.721   9.379 -0.1164 -0.0857 -0.1124
  210loPI   C5A 3355  15.520   5.922   8.937 -0.1158 -0.1537 -0.1596
  210loPI   C6A 3356  15.250   6.269   8.843  0.1060 -0.0593  0.2444
  210loPI   C1B 3357  15.373   6.578  10.740  0.0085 -0.1185 -0.4725
  210loPI   C2B 3358  15.332   6.428  10.300 -0.0422  0.0680  0.1502
  210loPI   C3B 3359  15.462   6.478   9.885 -0.1830 -0.0434  0.0683
  210loPI   C4B 3360  15.504   6.376   9.441 -0.3768 -0.3150 -0.4141
  211loPI    C1 3361  10.407   3.141  10.896  0.1368  0.0270  0.0825
  211loPI    C2 3362  10.616   2.800  10.889  0.1288  0.0200  0.1822
  211loPI    C3 3363  10.508   2.962  11.239  0.2455  0.1939  0.1388
  211loPI   PO4 3364  10.388   3.192  10.672  0.0436  0.1683  0.0923
  211loPI   GL1 3365  10.177   3.220  10.349  0.1729  0.0843 -0.3585
  211loPI   GL2 3366   9.948   3.294  10.255 -0.2525 -0.0621  0.3491
  211loPI   C1A 3367  10.429   3.227   9.996  0.2192 -0.2714  0.1678
  211loPI   C2A 3368  10.373   3.341   9.564 -0.3580  0.1048  0.0503
  211loPI   C3A 3369  10.157   3.382   9.203  0.0626  0.2853 -0.0072
  211loPI   C4A 3370   9.740   3.386   8.984 -0.2927 -0.1940  0.1016
  211loPI   C5A 3371   9.663   3.065   8.695 -0.1943 -0.0299 -0.1615
  211loPI   C6A 3372   9.562   2.618   8.554  0.0540  0.1531 -0.1175
  211loPI   C1B 3373   9.918   3.408   9.872 -0.0807  0.2816  0.1864
  211loPI   C2B 3374   9.796   3.487   9.498 -0.1580 -0.2309  0.0984
  211loPI   C3B 3375   9.826   3.794   9.272  0.1667 -0.1010 -0.1409
  211loPI   C4B 3376   9.709   3.927   8.831 -0.0420  0.0254  0.1272
  212loPI    C1 3377  13.164  16.150  11.596 -0.0124 -0.1038  0.2786
  212loPI    C2 3378  12.766  16.113  11.573 -0.0041  0.0469 -0.2149
  212loPI    C3 3379  12.990  15.802  11.686 -0.2508 -0.0783 -0.0639
  212loPI   PO4 3380  13.294  16.302  11.266  0.0224 -0.2685 -0.1093
  212loPI   GL1 3381  13.520  16.325  10.940 -0.4012  0.1602  0.0698
  212loPI   GL2 3382  13.429  16.607  10.843 -0.1817 -0.0565  0.2305
  212loPI   C1A 3383  13.558  16.326  10.490 -0.0805 -0.0497 -0.3793
  212loPI   C2A 3384  13.542  16.344  10.097  0.2432 -0.1204  0.0982
  212loPI   C3A 3385  13.572  16.327   9.715  0.0138  0.4032  0.0184
  212loPI   C4A 3386  13.496  16.330   9.281  0.2661  0.0491  0.1852
  212loPI   C5A 3387  13.326  16.540   8.952  0.0508 -0.0640 -0.0637
  212loPI   C6A 3388  13.137  16.747   8.644 -0.0702  0.3677  0.1863
  212loPI   C1B 3389  13.400  16.885  10.486 -0.0216 -0.0128 -0.2611
  212loPI   C2B 3390  13.523  16.836  10.103 -0.2858 -0.0010  0.2502
  212loPI   C3B 3391  13.457  16.831   9.656 -0.2718 -0.0729 -0.1840
  212loPI   C4B 3392  13.446  16.946   9.250  0.2472  0.1767 -0.0431
  213loPI    C1 3393  17.162   2.929  11.632 -0.2739  0.3813 -0.0279
  213loPI    C2 3394  17.048   2.585  11.461  0.0501  0.2333  0.0452
  213loPI    C3 3395  16.821   2.753  11.745 -0.1048  0.0752  0.0164
  213loPI   PO4 3396  17.165   3.084  11.433 -0.4136 -0.0999 -0.0468
  213loPI   GL1 3397  17.518   3.050  11.194  0.0379 -0.0021  0.1152
  213loPI   GL2 3398  17.628   2.803  11.296  0.2177  0.0278  0.0736
  213loPI   C1A 3399  17.471   2.928  10.772 -0.2066  0.3494 -0.0655
  213loPI   C2A 3400  17.687   2.860  10.406 -0.0104 -0.0336  0.1440
  213loPI   C3A 3401  17.913   2.744  10.011 -0.0480 -0.0573  0.0649
  213loPI   C4A 3402  18.089   2.686   9.643  0.1501 -0.2109 -0.2196
  213loPI   C5A 3403  18.054   2.440   9.206 -0.1881 -0.0872  0.0223
  213loPI   C6A 3404  18.332   2.240   8.839  0.1746  0.0805 -0.1407
  213loPI   C1B 3405  17.679   2.469  10.881 -0.0025  0.1113 -0.2248
  213loPI   C2B 3406  17.706   2.363  10.442  0.0943 -0.0478  0.2034
  213loPI   C3B 3407  17.977   2.219  10.097 -0.0281  0.1988  0.0725
  213loPI   C4B 3408  18.059   2.135   9.653  0.3288  0.1091 -0.4191
  214loPI    C1 3409   6.185  11.414  11.719  0.0049 -0.0778 -0.0075
  214loPI    C2 3410   6.055  11.286  12.075 -0.1064  0.0014 -0.0191
  214loPI    C3 3411   5.946  11.094  11.742  0.1726 -0.2041  0.0035
  214loPI   PO4 3412   6.441  11.397  11.707  0.2447  0.3535  0.0987
  214loPI   GL1 3413   6.543  11.209  11.212 -0.0937  0.1298 -0.0111
  214loPI   GL2 3414   6.300  11.032  11.297 -0.1819  0.2150  0.0294
  214loPI   C1A 3415   6.584  11.420  10.827  0.0541 -0.1454 -0.0100
  214loPI   C2A 3416   6.460  11.421  10.461  0.1923 -0.1002  0.2951
  214loPI   C3A 3417   6.347  11.456  10.002 -0.0907  0.1475  0.2777
  214loPI   C4A 3418   6.505  11.544   9.580  0.2214 -0.2730 -0.2246
  214loPI   C5A 3419   6.548  11.376   9.269 -0.3309 -0.0278  0.3609
  214loPI   C6A 3420   6.720  11.003   9.031 -0.2380  0.1100  0.0369
  214loPI   C1B 3421   6.067  11.186  10.950  0.0018  0.0927  0.1128
  214loPI   C2B 3422   5.964  11.160  10.460 -0.3670  0.1694 -0.2896
  214loPI   C3B 3423   5.977  11.140  10.105 -0.0810  0.0640  0.2609
  214loPI   C4B 3424   6.001  11.230   9.660  0.0469 -0.1793  0.0160
  215loPI    C1 3425   1.106   4.380  11.528 -0.2100 -0.0201  0.3227
  215loPI    C2 3426   1.046   4.543  11.168 -0.1343 -0.1690  0.2416
  215loPI    C3 3427   1.226   4.755  11.456  0.1513 -0.1778  0.0736
  215loPI   PO4 3428   1.156   4.134  11.473 -0.2980 -0.0154 -0.2738
  215loPI   GL1 3429   1.130   3.820  11.158 -0.2620 -0.4219  0.2373
  215loPI   GL2 3430   1.055   4.047  10.902  0.2116  0.3094  0.2483
  215loPI   C1A 3431   1.220   3.444  10.959 -0.1029 -0.0771 -0.0515
  215loPI   C2A 3432   1.220   3.170  10.626  0.1078  0.0300  0.4820
  215loPI   C3A 3433   1.223   3.056  10.164 -0.5334 -0.4836  0.1061
  215loPI   C4A 3434   1.303   3.043   9.742 -0.1673  0.0362  0.0808
  215loPI   C5A 3435   1.319   2.875   9.390 -0.3768  0.0186 -0.2108
  215loPI   C6A 3436   1.076   2.862   9.087  0.2506 -0.1066 -0.0187
  215loPI   C1B 3437   1.024   4.161  10.527  0.4630 -0.1481  0.0457
  215loPI   C2B 3438   0.855   4.158  10.139  0.0348  0.1248 -0.0839
  215loPI   C3B 3439   0.789   4.231   9.810  0.1885  0.2640 -0.0182
  215loPI   C4B 3440   0.719   4.514   9.498  0.4570  0.1000  0.3020
  216loPI    C1 3441   9.563   2.242  11.151  0.0678  0.0413  0.1748
  216loPI    C2 3442   9.271   2.229  11.424 -0.1682  0.0386 -0.0733
  216loPI    C3 3443   9.636   2.356  11.527 -0.2190 -0.0855  0.2715
  216loPI   PO4 3444   9.385   2.251  10.918  0.3571 -0.0878 -0.0033
  216loPI   GL1 3445   9.430   2.256  10.443  0.0485 -0.1060  0.0381
  216loPI   GL2 3446   9.331   1.969  10.472  0.0385  0.0521 -0.1824
  216loPI   C1A 3447   9.217   2.293   9.947  0.0903 -0.1145 -0.1392
  216loPI   C2A 3448   9.149   2.288   9.509 -0.0889 -0.1288  0.1591
  216loPI   C3A 3449   9.257   2.402   9.104 -0.3093 -0.1173  0.0297
  216loPI   C4A 3450   9.059   2.443   8.722 -0.0948  0.1508  0.1391
  216loPI   C5A 3451   9.068   2.893   8.461  0.2383 -0.3427  0.2251
  216loPI   C6A 3452   9.145   3.311   8.532  0.1048  0.0350  0.1752
  216loPI   C1B 3453   9.658   1.981  10.109 -0.0970  0.0967  0.0021
  216loPI   C2B 3454   9.621   2.082   9.701  0.0092  0.2693 -0.0589
  216loPI   C3B 3455   9.570   1.974   9.323  0.0374  0.1630 -0.0189
  216loPI   C4B 3456   9.683   2.157   8.918 -0.1465  0.2679  0.2839
  217loPI    C1 3457  10.111  15.733  11.524  0.0307 -0.1985 -0.1635
  217loPI    C2 3458  10.210  15.404  11.728 -0.1054 -0.0911  0.0809
  217loPI    C3 3459   9.840  15.552  11.757  0.0711  0.3210  0.3082
  217loPI   PO4 3460  10.276  15.690  11.326 -0.0200 -0.1422 -0.1729
  217loPI   GL1 3461  10.312  15.827  10.890 -0.1628  0.0202 -0.3074
  217loPI   GL2 3462  10.425  15.577  10.787 -0.2656 -0.0183 -0.0225
  217loPI   C1A 3463  10.167  15.848  10.487  0.4613 -0.1679 -0.2892
  217loPI   C2A 3464  10.310  15.896  10.024  0.0553  0.0214 -0.1517
  217loPI   C3A 3465  10.394  15.612   9.715  0.0581  0.0010 -0.1017
  217loPI   C4A 3466  10.399  15.656   9.312  0.7366  0.0237  0.3673
  217loPI   C5A 3467  10.125  15.880   8.991 -0.0836  0.1701 -0.4226
  217loPI   C6A 3468   9.848  15.730   8.629  0.0029 -0.2103  0.0540
  217loPI   C1B 3469  10.582  15.680  10.400  0.0825  0.3979 -0.0443
  217loPI   C2B 3470  10.772  15.637  10.062  0.0548  0.0621 -0.2852
  217loPI   C3B 3471  10.893  15.492   9.721 -0.3009 -0.1473  0.0845
  217loPI   C4B 3472  10.908  15.471   9.252 -0.2014  0.1489 -0.0959
  218loPI    C1 3473   6.031  15.785  11.478  0.1256 -0.1045  0.0782
  218loPI    C2 3474   5.811  15.929  11.780 -0.1173 -0.1540 -0.0723
  218loPI    C3 3475   6.079  15.640  11.848  0.0781  0.0760  0.1565
  218loPI   PO4 3476   5.884  15.721  11.332 -0.0613 -0.3247  0.1878
  218loPI   GL1 3477   5.843  15.645  10.903 -0.1471 -0.3865  0.1213
  218loPI   GL2 3478   5.486  15.756  10.950  0.1448 -0.0106  0.2865
  218loPI   C1A 3479   6.027  15.504  10.663 -0.1154 -0.2857 -0.1327
  218loPI   C2A 3480   6.279  15.494  10.349  0.2179 -0.2143  0.0646
  218loPI   C3A 3481   6.238  15.608   9.947 -0.0077  0.1089  0.1472
  218loPI   C4A 3482   6.332  15.855   9.575  0.0178  0.0490  0.1594
  218loPI   C5A 3483   6.402  16.290   9.494 -0.2242 -0.0072  0.1120
  218loPI   C6A 3484   6.406  16.518   9.138  0.1607 -0.3637 -0.0434
  218loPI   C1B 3485   5.534  15.764  10.563 -0.0450 -0.1295 -0.0052
  218loPI   C2B 3486   5.856  15.705  10.237  0.1695 -0.2614 -0.1843
  218loPI   C3B 3487   5.746  15.667   9.748 -0.2340 -0.0317 -0.0381
  218loPI   C4B 3488   5.934  15.531   9.496 -0.0607  0.1060 -0.1122
  219loPI    C1 3489   0.845  16.759  11.937 -0.0534  0.1340 -0.0672
  219loPI    C2 3490   0.818  16.404  12.119 -0.3362  0.1287 -0.1149
  219loPI    C3 3491   1.102  16.663  12.229 -0.0571 -0.1533 -0.1555
  219loPI   PO4 3492   0.818  16.658  11.680 -0.1888  0.1216  0.0777
  219loPI   GL1 3493   0.892  16.530  11.256  0.1468 -0.0340  0.0831
  219loPI   GL2 3494   1.112  16.348  11.276 -0.0761 -0.4203 -0.0259
  219loPI   C1A 3495   0.807  16.379  10.856  0.1407  0.0774  0.0582
  219loPI   C2A 3496   0.868  16.377  10.440  0.1042  0.0990  0.2327
  219loPI   C3A 3497   0.897  16.329   9.954 -0.0391  0.0395 -0.2502
  219loPI   C4A 3498   0.954  16.454   9.569  0.0570 -0.2061  0.1044
  219loPI   C5A 3499   1.166  16.183   9.363 -0.1784  0.0006  0.4500
  219loPI   C6A 3500   1.532  15.855   9.446  0.1543 -0.0940 -0.1189
  219loPI   C1B 3501   1.393  16.204  11.009  0.0763 -0.1138  0.0098
  219loPI   C2B 3502   1.320  16.131  10.614 -0.0391  0.0291  0.2193
  219loPI   C3B 3503   1.323  16.131  10.228  0.0767  0.1018 -0.1903
  219loPI   C4B 3504   1.417  16.162   9.794  0.1483 -0.3957 -0.2385
  220loPI    C1 3505   5.084  12.363  11.991  0.0417 -0.1741  0.3755
  220loPI    C2 3506   5.005  12.615  12.292 -0.0726 -0.2984  0.4504
  220loPI    C3 3507   5.377  12.477  12.239  0.1161  0.3136  0.0776
  220loPI   PO4 3508   5.007  12.458  11.700  0.0149  0.1007 -0.0525
  220loPI   GL1 3509   4.979  12.709  11.303 -0.4027  0.0034  0.1144
  220loPI   GL2 3510   5.333  12.550  11.321 -0.0182 -0.1732  0.0703
  220loPI   C1A 3511   4.908  12.546  11.003  0.0302  0.3443 -0.0714
  220loPI   C2A 3512   4.984  12.514  10.633  0.2547 -0.0199 -0.1284
  220loPI   C3A 3513   4.920  12.617  10.275 -0.0087  0.2700  0.1021
  220loPI   C4A 3514   4.893  12.554   9.778 -0.2190  0.2072 -0.1141
  220loPI   C5A 3515   5.011  12.407   9.348  0.0902  0.1644  0.0218
  220loPI   C6A 3516   4.623  12.093   9.189 -0.0599  0.2383 -0.0479
  220loPI   C1B 3517   5.407  12.393  10.933 -0.0495  0.1477  0.0450
  220loPI   C2B 3518   5.484  12.481  10.466  0.1170 -0.0143 -0.0250
  220loPI   C3B 3519   5.365  12.377  10.116  0.0788 -0.1102 -0.1958
  220loPI   C4B 3520   5.386  12.398   9.700  0.0923  0.0482 -0.2010
  221loPI    C1 3521  11.434   8.782  11.487  0.0770 -0.0053 -0.0170
  221loPI    C2 3522  11.731   8.690  11.738  0.0495  0.0778  0.0467
  221loPI    C3 3523  11.351   8.646  11.854  0.0362 -0.0647 -0.0479
  221loPI   PO4 3524  11.565   8.714  11.278  0.0814  0.1449 -0.2068
  221loPI   GL1 3525  11.536   8.608  10.774  0.1465 -0.1901 -0.0379
  221loPI   GL2 3526  11.769   8.827  10.871  0.0522 -0.2316  0.1621
  221loPI   C1A 3527  11.542   8.554  10.361 -0.0249 -0.0205 -0.0164
  221loPI   C2A 3528  11.355   8.633  10.090  0.0021  0.1533 -0.1031
  221loPI   C3A 3529  11.487   8.535   9.686  0.0953  0.0265 -0.0291
  221loPI   C4A 3530  11.744   8.412   9.313 -0.1389 -0.1701  0.0335
  221loPI   C5A 3531  11.949   8.461   8.957  0.0120 -0.1365  0.4363
  221loPI   C6A 3532  12.274   8.770   8.758 -0.2188  0.0493  0.1026
  221loPI   C1B 3533  11.986   8.901  10.424 -0.0369  0.1575 -0.1097
  221loPI   C2B 3534  11.853   8.795  10.017  0.0092  0.0328 -0.0641
  221loPI   C3B 3535  12.002   8.845   9.530  0.0906 -0.1450  0.1017
  221loPI   C4B 3536  12.086   8.875   9.205 -0.1693 -0.1267 -0.1382
  222loPI    C1 3537   0.013  13.821  12.235 -0.0252 -0.0900 -0.0198
  222loPI    C2 3538  -0.336  13.896  12.415 -0.0671 -0.0921 -0.0996
  222loPI    C3 3539  -0.008  13.828  12.634 -0.0973  0.0005 -0.0250
  222loPI   PO4 3540   0.013  14.010  12.005  0.0191 -0.1159  0.0124
  222loPI   GL1 3541  -0.167  14.036  11.566  0.0926  0.1586  0.0502
  222loPI   GL2 3542  -0.232  13.756  11.580 -0.2679  0.0248  0.0740
  222loPI   C1A 3543  -0.122  13.919  11.115 -0.0558  0.3486 -0.2854
  222loPI   C2A 3544  -0.212  13.920  10.704  0.0378  0.1339  0.0933
  222loPI   C3A 3545  -0.324  13.858  10.325 -0.3555 -0.2992 -0.0044
  222loPI   C4A 3546  -0.267  13.955   9.789 -0.3857 -0.0717 -0.0018
  222loPI   C5A 3547  -0.204  14.166   9.346 -0.1433  0.0097  0.1369
  222loPI   C6A 3548  -0.331  14.209   8.988 -0.0048 -0.0014 -0.0679
  222loPI   C1B 3549  -0.322  13.483  11.151  0.0137  0.1039  0.1797
  222loPI   C2B 3550  -0.332  13.429  10.748 -0.0730 -0.1376  0.3546
  222loPI   C3B 3551  -0.260  13.378  10.282  0.0645 -0.1899 -0.0795
  222loPI   C4B 3552  -0.228  13.347   9.759 -0.0237  0.0823 -0.1933
  223loPI    C1 3553   6.378   3.562  11.647  0.1265  0.1834 -0.0837
  223loPI    C2 3554   6.313   3.179  11.743 -0.0700  0.2032 -0.1342
  223loPI    C3 3555   6.639   3.281  11.535  0.1088  0.0963  0.0895
  223loPI   PO4 3556   6.206   3.626  11.511  0.1212  0.3279  0.1032
  223loPI   GL1 3557   6.307   3.888  11.045 -0.0367 -0.1073  0.0246
  223loPI   GL2 3558   6.494   3.652  11.074  0.1419  0.4618 -0.1623
  223loPI   C1A 3559   6.207   3.818  10.684  0.0089  0.1272 -0.3403
  223loPI   C2A 3560   6.118   3.783  10.320  0.0895 -0.3205  0.1076
  223loPI   C3A 3561   6.131   3.758   9.973  0.0946  0.0946 -0.0324
  223loPI   C4A 3562   6.154   3.896   9.506 -0.0133 -0.0178  0.1182
  223loPI   C5A 3563   5.999   4.173   9.117  0.0974 -0.0040  0.5069
  223loPI   C6A 3564   6.068   4.580   8.876 -0.1184  0.1183 -0.0379
  223loPI   C1B 3565   6.676   3.648  10.748  0.1355 -0.1740  0.1057
  223loPI   C2B 3566   6.555   3.534  10.363  0.2069  0.2469 -0.2023
  223loPI   C3B 3567   6.645   3.627   9.932  0.1831  0.0999  0.1690
  223loPI   C4B 3568   6.651   3.752   9.494 -0.0238 -0.1980  0.1962
  224loPI    C1 3569  10.581   6.007  11.154  0.1263 -0.0152 -0.1696
  224loPI    C2 3570  10.199   5.950  11.257  0.2215  0.1711  0.3145
  224loPI    C3 3571  10.451   5.639  11.243  0.0207  0.0200 -0.1784
  224loPI   PO4 3572  10.537   6.283  11.015  0.0759 -0.2353 -0.0579
  224loPI   GL1 3573  10.713   6.370  10.608  0.2571 -0.0768  0.0023
  224loPI   GL2 3574  10.444   6.523  10.555 -0.3372 -0.1309 -0.0770
  224loPI   C1A 3575  10.460   6.073  10.242 -0.1304 -0.0419  0.3637
  224loPI   C2A 3576  10.300   6.253   9.886 -0.1179  0.1802  0.0878
  224loPI   C3A 3577  10.149   6.226   9.497 -0.0582  0.2436 -0.1931
  224loPI   C4A 3578  10.029   6.161   9.089 -0.0577 -0.0746 -0.1753
  224loPI   C5A 3579   9.671   6.135   8.756 -0.3587 -0.1629  0.1128
  224loPI   C6A 3580   9.287   6.298   8.651  0.0990  0.0931  0.0050
  224loPI   C1B 3581  10.649   6.599  10.159  0.1659  0.1105 -0.0023
  224loPI   C2B 3582  10.929   6.663   9.776 -0.0158  0.0486  0.1444
  224loPI   C3B 3583  11.224   6.547   9.524 -0.0089  0.2292  0.0332
  224loPI   C4B 3584  11.381   6.441   9.093  0.2423  0.1732  0.0451
  225loPI    C1 3585   8.103   1.433  11.473 -0.2808 -0.0525 -0.0743
  225loPI    C2 3586   7.908   1.291  11.791 -0.1804  0.0728  0.0448
  225loPI    C3 3587   8.132   1.620  11.825  0.2028 -0.1721 -0.0429
  225loPI   PO4 3588   7.914   1.384  11.260 -0.0952 -0.1356 -0.0324
  225loPI   GL1 3589   7.614   1.435  11.061  0.2077  0.3434  0.2763
  225loPI   GL2 3590   7.418   1.837  10.782  0.2029  0.1102  0.0825
  225loPI   C1A 3591   7.455   1.318  10.693 -0.0229  0.2402 -0.0222
  225loPI   C2A 3592   7.406   1.362  10.303  0.2021 -0.4103 -0.2103
  225loPI   C3A 3593   7.322   1.426   9.888 -0.2260  0.1433  0.3025
  225loPI   C4A 3594   7.301   1.341   9.510  0.1732 -0.1704 -0.1282
  225loPI   C5A 3595   7.175   1.265   9.109  0.0464 -0.2812  0.3700
  225loPI   C6A 3596   6.879   1.319   8.771  0.0895  0.1995 -0.5451
  225loPI   C1B 3597   7.343   1.874  10.331  0.3865 -0.0864  0.3403
  225loPI   C2B 3598   7.259   1.938   9.846 -0.3009  0.2887 -0.1208
  225loPI   C3B 3599   7.312   1.893   9.494  0.0302  0.3750  0.1397
  225loPI   C4B 3600   7.292   1.726   8.996 -0.2835  0.2018 -0.1369
  226loPI    C1 3601  12.484   2.676  10.834  0.1105 -0.0051  0.0013
  226loPI    C2 3602  12.684   2.738  11.174 -0.0056 -0.1822  0.1034
  226loPI    C3 3603  12.738   2.398  10.969 -0.1388 -0.1947  0.0884
  226loPI   PO4 3604  12.515   2.774  10.711  0.2872 -0.2517  0.0850
  226loPI   GL1 3605  12.289   2.698  10.348 -0.0891  0.1409 -0.0155
  226loPI   GL2 3606  11.957   2.641  10.277 -0.0679 -0.2064 -0.0910
  226loPI   C1A 3607  12.422   2.558   9.930 -0.0285 -0.0547  0.1813
  226loPI   C2A 3608  12.441   2.568   9.476 -0.0484  0.1196 -0.0365
  226loPI   C3A 3609  12.423   2.594   9.054 -0.0302 -0.2265 -0.0047
  226loPI   C4A 3610  12.357   2.466   8.625 -0.3890  0.0837  0.3150
  226loPI   C5A 3611  12.217   2.128   8.487 -0.0362 -0.3893 -0.2582
  226loPI   C6A 3612  11.960   1.771   8.539 -0.2388 -0.1429 -0.0997
  226loPI   C1B 3613  11.949   2.643   9.814 -0.2330  0.0915  0.1346
  226loPI   C2B 3614  11.935   2.563   9.328 -0.1147  0.0538 -0.1023
  226loPI   C3B 3615  11.767   2.682   8.949 -0.2853 -0.0992 -0.0792
  226loPI   C4B 3616  11.681   2.673   8.590 -0.0489  0.1661  0.0148
  227loPI    C1 3617   3.412   9.352  11.798 -0.1349  0.0926  0.1167
  227loPI    C2 3618   3.144   9.119  11.983 -0.0150  0.0221  0.2028
  227loPI    C3 3619   3.519   9.141  12.120  0.0131  0.1525  0.1074
  227loPI   PO4 3620   3.339   9.501  11.651 -0.0851  0.1284  0.0446
  227loPI   GL1 3621   3.420   9.733  11.384  0.0978  0.1977  0.0705
  227loPI   GL2 3622   3.210   9.896  11.420  0.1054  0.2331  0.0203
  227loPI   C1A 3623   3.494   9.726  10.909  0.1003  0.0665 -0.2384
  227loPI   C2A 3624   3.486   9.696  10.533 -0.1025  0.2232 -0.0371
  227loPI   C3A 3625   3.311   9.827  10.157 -0.3371 -0.1361  0.0050
  227loPI   C4A 3626   3.234   9.771   9.683  0.2622  0.1991 -0.1032
  227loPI   C5A 3627   3.178  10.004   9.220 -0.0499  0.1340 -0.3089
  227loPI   C6A 3628   3.159  10.318   8.939  0.1536 -0.1197  0.0231
  227loPI   C1B 3629   3.063   9.964  11.063 -0.2712 -0.2370  0.3997
  227loPI   C2B 3630   2.965  10.003  10.744  0.3204 -0.1449 -0.0411
  227loPI   C3B 3631   2.915   9.993  10.339  0.1461  0.2362  0.1221
  227loPI   C4B 3632   2.799  10.006   9.857  0.1959 -0.1275  0.0930
  228loPI    C1 3633   7.572  10.888  11.722 -0.0160  0.1523  0.0262
  228loPI    C2 3634   7.902  10.797  11.929  0.1058  0.0697 -0.2018
  228loPI    C3 3635   7.767  11.173  11.925 -0.0084  0.0365  0.1833
  228loPI   PO4 3636   7.537  10.769  11.564 -0.0543  0.2018 -0.1292
  228loPI   GL1 3637   7.338  10.871  11.156  0.0043 -0.1101 -0.0954
  228loPI   GL2 3638   7.343  11.196  11.106  0.0032  0.2013  0.2667
  228loPI   C1A 3639   7.499  10.937  10.727 -0.0057  0.3964 -0.3388
  228loPI   C2A 3640   7.344  10.953  10.355  0.0215 -0.1376  0.0058
  228loPI   C3A 3641   7.400  10.850   9.995 -0.2074  0.1021 -0.2365
  228loPI   C4A 3642   7.316  10.991   9.600 -0.0748 -0.3864  0.0401
  228loPI   C5A 3643   7.203  11.307   9.228  0.2034 -0.0945 -0.1135
  228loPI   C6A 3644   6.954  11.553   8.926 -0.0252 -0.1762 -0.1923
  228loPI   C1B 3645   7.021  11.198  10.847  0.0947 -0.4748  0.2398
  228loPI   C2B 3646   6.882  11.228  10.452  0.2269  0.3800 -0.1581
  228loPI   C3B 3647   6.817  11.257   9.950 -0.0073  0.5240 -0.1751
  228loPI   C4B 3648   6.839  11.130   9.590  0.0790  0.1810  0.0606
  229loPI    C1 3649   5.347  10.083  11.912 -0.1640  0.3884 -0.1030
  229loPI    C2 3650   5.130  10.409  11.836 -0.2789  0.3880  0.2107
  229loPI    C3 3651   5.046  10.183  12.155  0.0216  0.2459  0.1925
  229loPI   PO4 3652   5.445  10.039  11.649  0.2704  0.0952  0.0129
  229loPI   GL1 3653   5.460   9.917  11.183 -0.0329  0.1269 -0.1228
  229loPI   GL2 3654   5.755   9.848  11.183  0.1771 -0.2164 -0.1048
  229loPI   C1A 3655   5.404   9.990  10.865  0.1847  0.1620 -0.0435
  229loPI   C2A 3656   5.379   9.996  10.407 -0.3017  0.2525  0.1046
  229loPI   C3A 3657   5.167   9.940   9.975  0.1024 -0.1055  0.0096
  229loPI   C4A 3658   5.011  10.037   9.639  0.0650  0.1066  0.2058
  229loPI   C5A 3659   5.054  10.058   9.183 -0.0597  0.0350  0.4859
  229loPI   C6A 3660   5.452  10.115   8.916  0.1343 -0.1343 -0.2430
  229loPI   C1B 3661   5.813   9.749  10.735 -0.0215  0.1234 -0.0967
  229loPI   C2B 3662   5.781   9.647  10.287  0.1721 -0.1528 -0.1754
  229loPI   C3B 3663   5.727   9.708   9.896  0.1817  0.0040  0.0805
  229loPI   C4B 3664   5.672   9.727   9.396  0.3496  0.1513 -0.1862
  230loPI    C1 3665   7.081   6.820  11.495  0.2817  0.1069 -0.0713
  230loPI    C2 3666   7.278   6.870  11.840  0.0470 -0.1532  0.1053
  230loPI    C3 3667   6.945   7.079  11.768  0.1513 -0.0249 -0.0093
  230loPI   PO4 3668   7.065   6.554  11.467  0.1411  0.1809 -0.1193
  230loPI   GL1 3669   6.839   6.483  11.127  0.0240 -0.1033 -0.0938
  230loPI   GL2 3670   6.594   6.396  10.977  0.0123  0.1460 -0.0168
  230loPI   C1A 3671   7.020   6.577  10.760  0.2313  0.2001 -0.3261
  230loPI   C2A 3672   6.978   6.573  10.359  0.1324 -0.1618  0.2516
  230loPI   C3A 3673   6.909   6.584   9.903  0.0987 -0.1689  0.0480
  230loPI   C4A 3674   6.740   6.656   9.493 -0.1779 -0.1177  0.1961
  230loPI   C5A 3675   6.555   6.448   9.135 -0.2130  0.0477 -0.2847
  230loPI   C6A 3676   6.277   6.149   8.788 -0.2401 -0.0584 -0.0576
  230loPI   C1B 3677   6.533   6.354  10.551  0.1575 -0.0524 -0.1544
  230loPI   C2B 3678   6.517   6.314  10.155  0.0444  0.0030  0.2794
  230loPI   C3B 3679   6.392   6.358   9.759 -0.2589 -0.0915  0.0716
  230loPI   C4B 3680   6.302   6.132   9.403 -0.1671  0.4790  0.1016
  231loPI    C1 3681   0.326   5.321  11.496  0.0642 -0.1137  0.0927
  231loPI    C2 3682   0.303   5.090  11.170  0.4177 -0.0665  0.0311
  231loPI    C3 3683   0.306   4.923  11.533 -0.0699 -0.1145  0.0183
  231loPI   PO4 3684   0.536   5.460  11.446  0.0645  0.1316  0.0160
  231loPI   GL1 3685   0.836   5.540  11.157  0.1038 -0.0810 -0.2557
  231loPI   GL2 3686   1.042   5.676  10.848  0.0179 -0.0398  0.0702
  231loPI   C1A 3687   0.686   5.368  10.738 -0.1149  0.0093  0.0570
  231loPI   C2A 3688   0.666   5.192  10.289 -0.2886 -0.2335 -0.0953
  231loPI   C3A 3689   0.731   5.459  10.000  0.1693  0.2485  0.1853
  231loPI   C4A 3690   0.667   5.426   9.614 -0.1863 -0.0830 -0.2469
  231loPI   C5A 3691   0.754   5.450   9.195 -0.0206 -0.2297 -0.1403
  231loPI   C6A 3692   0.892   5.190   8.805  0.2443  0.1836 -0.3080
  231loPI   C1B 3693   1.008   5.600  10.388  0.0032  0.1830 -0.0681
  231loPI   C2B 3694   1.097   5.819   9.957 -0.0532  0.2958  0.1388
  231loPI   C3B 3695   1.114   5.799   9.562  0.1297  0.1836 -0.2375
  231loPI   C4B 3696   1.271   5.530   9.215 -0.0483 -0.0713 -0.1123
  232loPI    C1 3697   2.024   9.134  11.818 -0.0261 -0.1670 -0.0265
  232loPI    C2 3698   2.301   8.966  12.053  0.1152 -0.1809 -0.2012
  232loPI    C3 3699   1.972   9.126  12.215  0.1721 -0.2633 -0.0011
  232loPI   PO4 3700   2.044   8.957  11.579  0.1182 -0.0143  0.3339
  232loPI   GL1 3701   1.851   8.935  11.168 -0.0687  0.0423  0.0445
  232loPI   GL2 3702   2.144   8.777  11.088 -0.0514  0.0828 -0.2086
  232loPI   C1A 3703   1.631   9.048  10.781 -0.1994  0.0545 -0.0486
  232loPI   C2A 3704   1.561   9.018  10.321 -0.0212 -0.1453 -0.0141
  232loPI   C3A 3705   1.666   9.027   9.920 -0.1194  0.2207  0.2116
  232loPI   C4A 3706   1.649   9.241   9.444  0.1334  0.0280 -0.3201
  232loPI   C5A 3707   2.035   9.304   9.216  0.1238  0.0603  0.3382
  232loPI   C6A 3708   2.248   9.061   8.989 -0.2175  0.1625  0.2381
  232loPI   C1B 3709   2.072   8.806  10.694  0.0041 -0.5467  0.1951
  232loPI   C2B 3710   2.165   8.841  10.217  0.2243  0.1887 -0.0161
  232loPI   C3B 3711   2.197   8.867   9.785 -0.0335 -0.0878  0.0009
  232loPI   C4B 3712   1.976   8.870   9.402  0.0124  0.2926  0.1853
  233loPI    C1 3713   8.412   1.116  11.278 -0.1154  0.0981 -0.0831
  233loPI    C2 3714   8.405   0.717  11.299 -0.1395  0.0938 -0.1657
  233loPI    C3 3715   8.226   0.936  11.582  0.0334  0.0493 -0.0199
  233loPI   PO4 3716   8.326   1.217  11.031  0.0938  0.3433  0.2098
  233loPI   GL1 3717   8.286   1.520  10.624  0.2043 -0.2561 -0.0873
  233loPI   GL2 3718   8.433   1.211  10.514  0.0461  0.1729 -0.0614
  233loPI   C1A 3719   8.206   1.558  10.188  0.0374 -0.3911 -0.1133
  233loPI   C2A 3720   8.182   1.497   9.713  0.1317  0.0034 -0.0816
  233loPI   C3A 3721   8.128   1.242   9.363 -0.0361 -0.1688  0.1019
  233loPI   C4A 3722   8.474   1.188   9.172 -0.1039  0.0212 -0.1605
  233loPI   C5A 3723   8.824   1.163   8.929 -0.0726  0.3881 -0.0655
  233loPI   C6A 3724   9.104   1.441   8.659 -0.0876  0.2478  0.0425
  233loPI   C1B 3725   8.509   1.198  10.085  0.1747 -0.0417 -0.0352
  233loPI   C2B 3726   8.544   1.132   9.701  0.0413  0.1627  0.0878
  233loPI   C3B 3727   8.689   0.775   9.412  0.3105 -0.0120  0.0634
  233loPI   C4B 3728   8.658   0.629   8.949 -0.1047  0.1013  0.0424
  234loPI    C1 3729  10.580   0.344  10.795 -0.0224  0.4309  0.0463
  234loPI    C2 3730  10.717   0.401  11.167  0.0637  0.1710  0.0563
  234loPI    C3 3731  10.974   0.342  10.865 -0.0175 -0.2667  0.0668
  234loPI   PO4 3732  10.459   0.510  10.752 -0.0495 -0.0321 -0.1978
  234loPI   GL1 3733  10.153   0.502  10.509 -0.1216  0.0255  0.6380
  234loPI   GL2 3734  10.478   0.751  10.319  0.2440 -0.0831 -0.0222
  234loPI   C1A 3735  10.381   0.340  10.062  0.1155 -0.1364 -0.2843
  234loPI   C2A 3736  10.529   0.442   9.671  0.4904 -0.0868 -0.3388
  234loPI   C3A 3737  10.696   0.516   9.302  0.1347 -0.0839 -0.0809
  234loPI   C4A 3738  10.753   0.404   8.856 -0.1222 -0.2059  0.0087
  234loPI   C5A 3739  10.921   0.662   8.500 -0.1444 -0.1604 -0.1978
  234loPI   C6A 3740  10.947   0.776   8.086 -0.0620 -0.1699 -0.3674
  234loPI   C1B 3741  10.270   0.833   9.919  0.1301 -0.1135 -0.0997
  234loPI   C2B 3742  10.264   0.799   9.451  0.1176 -0.0143 -0.1672
  234loPI   C3B 3743  10.284   0.547   8.989 -0.1482 -0.1179 -0.1254
  234loPI   C4B 3744  10.430   0.566   8.562 -0.0101 -0.0269 -0.0581
  235loPI    C1 3745  11.179   5.091  10.989 -0.0950 -0.0049  0.0279
  235loPI    C2 3746  11.436   4.786  11.023  0.1435  0.1809 -0.0773
  235loPI    C3 3747  11.375   5.030  11.333 -0.0604  0.0191  0.0124
  235loPI   PO4 3748  10.976   5.055  10.887  0.2829  0.2663 -0.0325
  235loPI   GL1 3749  10.672   5.066  10.556  0.0857  0.0404  0.0042
  235loPI   GL2 3750  10.579   4.865  10.499  0.2727  0.1715 -0.3121
  235loPI   C1A 3751  10.563   5.315  10.241 -0.0115  0.2919 -0.0734
  235loPI   C2A 3752  10.661   5.292   9.773 -0.0544  0.1414 -0.3768
  235loPI   C3A 3753  10.596   5.396   9.376  0.0706 -0.0641 -0.2690
  235loPI   C4A 3754  10.583   5.538   9.021  0.0669  0.3445 -0.2153
  235loPI   C5A 3755  10.339   5.797   8.747 -0.2977  0.1173 -0.3503
  235loPI   C6A 3756  10.005   5.846   8.515 -0.1549  0.0289  0.0299
  235loPI   C1B 3757  10.741   4.860  10.082 -0.0813  0.0521  0.2982
  235loPI   C2B 3758  10.724   4.806   9.658  0.0896 -0.1288  0.2615
  235loPI   C3B 3759  10.580   4.774   9.226 -0.2233  0.1039 -0.0336
  235loPI   C4B 3760  10.596   4.745   8.815 -0.0052  0.0460 -0.0849
  236loPI    C1 3761  11.010   7.155  11.120 -0.0882  0.1626 -0.1726
  236loPI    C2 3762  11.384   7.223  10.994  0.0301  0.1785  0.1783
  236loPI    C3 3763  11.289   6.870  11.158 -0.1998  0.0446 -0.2287
  236loPI   PO4 3764  10.868   7.246  10.923 -0.1148 -0.4339 -0.0845
  236loPI   GL1 3765  10.523   7.017  10.571  0.2836 -0.3052  0.2078
  236loPI   GL2 3766  10.356   7.277  10.592 -0.3751  0.4066 -0.2090
  236loPI   C1A 3767  10.599   7.076  10.166 -0.0358  0.2367 -0.0797
  236loPI   C2A 3768  10.574   7.020   9.795  0.1362  0.3926 -0.0658
  236loPI   C3A 3769  10.398   7.195   9.453 -0.2695  0.1461 -0.0479
  236loPI   C4A 3770  10.538   7.445   9.121 -0.1867 -0.0470  0.0570
  236loPI   C5A 3771  10.526   7.842   8.899 -0.0061  0.0240 -0.0331
  236loPI   C6A 3772  10.288   8.189   8.746  0.0651 -0.1961 -0.1229
  236loPI   C1B 3773  10.133   7.278  10.279  0.3389 -0.3215 -0.2691
  236loPI   C2B 3774  10.040   7.220   9.961  0.1726 -0.0291 -0.0730
  236loPI   C3B 3775   9.965   7.346   9.603  0.2502 -0.0104 -0.4460
  236loPI   C4B 3776   9.922   7.577   9.184  0.0114 -0.2241 -0.2361
  237loPI    C1 3777   1.517   9.950  12.016  0.1468 -0.3755  0.1751
  237loPI    C2 3778   1.425   9.767  12.360 -0.1473 -0.1424  0.2253
  237loPI    C3 3779   1.684  10.072  12.359 -0.2739 -0.0339  0.2676
  237loPI   PO4 3780   1.539   9.686  11.835 -0.1300 -0.0865 -0.1318
  237loPI   GL1 3781   1.646   9.825  11.349  0.2154  0.1438  0.0601
  237loPI   GL2 3782   1.499  10.131  11.229  0.1204 -0.2675 -0.0026
  237loPI   C1A 3783   1.556   9.595  11.156  0.2232  0.3105  0.3267
  237loPI   C2A 3784   1.622   9.571  10.670  0.2002  0.0142  0.0327
  237loPI   C3A 3785   1.608   9.535  10.284  0.2085  0.1281  0.1386
  237loPI   C4A 3786   1.588   9.511   9.883 -0.1963  0.2006 -0.2991
  237loPI   C5A 3787   1.780   9.683   9.533 -0.0197 -0.1486  0.1153
  237loPI   C6A 3788   1.872  10.093   9.243  0.2140  0.3154  0.0544
  237loPI   C1B 3789   1.519  10.071  10.789 -0.0868 -0.3873 -0.0716
  237loPI   C2B 3790   1.576  10.084  10.297  0.1763 -0.0386  0.0773
  237loPI   C3B 3791   1.562  10.039   9.910  0.1089  0.0879  0.0920
  237loPI   C4B 3792   1.360  10.208   9.465  0.2423 -0.1418 -0.1497
  238loPI    C1 3793   9.251  13.464  11.461 -0.0957 -0.0515 -0.1221
  238loPI    C2 3794   9.347  13.381  11.840 -0.1848 -0.0153 -0.0914
  238loPI    C3 3795   8.963  13.395  11.730 -0.1596 -0.0040 -0.1782
  238loPI   PO4 3796   9.482  13.395  11.257 -0.1957  0.4552  0.2280
  238loPI   GL1 3797   9.510  12.994  11.068 -0.0901  0.2047  0.0078
  238loPI   GL2 3798   9.307  13.033  10.888 -0.0666 -0.0262  0.1148
  238loPI   C1A 3799   9.719  13.248  10.740  0.3336 -0.0600  0.2161
  238loPI   C2A 3800   9.716  13.303  10.273 -0.2524  0.1931  0.1017
  238loPI   C3A 3801   9.726  13.301   9.778  0.2119 -0.1574  0.0732
  238loPI   C4A 3802   9.595  13.410   9.354  0.3014 -0.0273  0.2095
  238loPI   C5A 3803   9.888  13.579   9.048  0.0677 -0.0104 -0.2967
  238loPI   C6A 3804  10.125  13.485   8.697  0.3102  0.1326  0.1791
  238loPI   C1B 3805   9.404  12.981  10.462  0.0972 -0.0834 -0.1371
  238loPI   C2B 3806   9.480  12.962   9.992  0.0864  0.0334 -0.1852
  238loPI   C3B 3807   9.361  13.028   9.519 -0.0015 -0.0959 -0.2887
  238loPI   C4B 3808   9.198  12.751   9.082 -0.2118 -0.2766 -0.1082
  239loPI    C1 3809   1.456  14.140  12.111  0.0448  0.3388 -0.1460
  239loPI    C2 3810   1.706  14.106  12.422  0.0312 -0.1469 -0.1818
  239loPI    C3 3811   1.322  14.200  12.483  0.0616 -0.0972 -0.0647
  239loPI   PO4 3812   1.568  14.222  11.899  0.1381 -0.0743  0.0560
  239loPI   GL1 3813   1.286  14.277  11.544  0.3603 -0.1081  0.3496
  239loPI   GL2 3814   1.161  14.604  11.439  0.3860 -0.0727 -0.1062
  239loPI   C1A 3815   1.438  14.046  11.166 -0.2389 -0.1225  0.1883
  239loPI   C2A 3816   1.476  14.113  10.691  0.0309 -0.0209 -0.0864
  239loPI   C3A 3817   1.511  14.050  10.246 -0.1366  0.0926  0.0145
  239loPI   C4A 3818   1.549  14.058   9.825  0.0826 -0.0281  0.0445
  239loPI   C5A 3819   1.936  14.012   9.665  0.2404  0.3440 -0.1414
  239loPI   C6A 3820   2.020  14.248   9.255 -0.3137 -0.2002  0.0249
  239loPI   C1B 3821   1.284  14.521  11.061 -0.1198 -0.1240 -0.1718
  239loPI   C2B 3822   1.376  14.575  10.674  0.2262 -0.2447 -0.0970
  239loPI   C3B 3823   1.465  14.627  10.228 -0.0819 -0.0784  0.0206
  239loPI   C4B 3824   1.439  14.593   9.757  0.1190  0.0229  0.0161
  240loPI    C1 3825   0.235   4.447  11.276  0.0766 -0.2594  0.1457
  240loPI    C2 3826   0.273   4.389  11.670  0.0853  0.0741  0.1971
  240loPI    C3 3827  -0.063   4.549  11.523  0.0456 -0.1333  0.0576
  240loPI   PO4 3828   0.524   4.639  11.234  0.0477  0.2989  0.0987
  240loPI   GL1 3829   0.658   4.836  10.856  0.1473  0.0124 -0.1482
  240loPI   GL2 3830   0.912   4.822  10.729 -0.1306  0.2334 -0.1986
  240loPI   C1A 3831   0.290   4.971  10.688 -0.0399 -0.2136 -0.1826
  240loPI   C2A 3832   0.119   4.948  10.263  0.0319  0.4010  0.1362
  240loPI   C3A 3833   0.203   5.002   9.865 -0.1148 -0.1278  0.2434
  240loPI   C4A 3834   0.153   5.236   9.515 -0.0649 -0.1279  0.0341
  240loPI   C5A 3835   0.376   5.141   9.078 -0.0602  0.1683 -0.1418
  240loPI   C6A 3836   0.387   5.108   8.719  0.0413 -0.0661  0.0011
  240loPI   C1B 3837   1.216   4.674  10.365 -0.1496 -0.0074 -0.2728
  240loPI   C2B 3838   1.204   4.529   9.994 -0.1068  0.0208 -0.0933
  240loPI   C3B 3839   1.158   4.686   9.537  0.3115  0.0941  0.2538
  240loPI   C4B 3840   1.349   4.671   9.138 -0.0501 -0.0397 -0.0815
  241loPI    C1 3841   0.818  13.662  11.929  0.0844 -0.1631 -0.0461
  241loPI    C2 3842   1.010  13.436  12.198  0.1049  0.0073  0.0839
  241loPI    C3 3843   0.991  13.833  12.247 -0.2335 -0.0017  0.0444
  241loPI   PO4 3844   0.822  13.565  11.763  0.2914 -0.3202  0.0084
  241loPI   GL1 3845   0.994  13.500  11.473  0.0428 -0.0813  0.3350
  241loPI   GL2 3846   0.923  13.891  11.392  0.1165  0.0330 -0.1293
  241loPI   C1A 3847   1.409  13.545  11.253  0.0144 -0.2327  0.0405
  241loPI   C2A 3848   1.523  13.519  10.929 -0.0249  0.0255 -0.1330
  241loPI   C3A 3849   1.645  13.582  10.491  0.1420 -0.3407 -0.1026
  241loPI   C4A 3850   1.666  13.501  10.019 -0.0209  0.0945 -0.0739
  241loPI   C5A 3851   1.589  13.545   9.622 -0.3067 -0.0160  0.2880
  241loPI   C6A 3852   1.372  13.685   9.179  0.3032  0.0568  0.1418
  241loPI   C1B 3853   0.997  13.778  11.050  0.0111 -0.1542 -0.0597
  241loPI   C2B 3854   1.166  13.761  10.528  0.1047  0.0005  0.2717
  241loPI   C3B 3855   1.078  13.761  10.099  0.1318  0.1177 -0.0141
  241loPI   C4B 3856   1.040  13.802   9.635 -0.0269 -0.1466  0.2646
  242loPI    C1 3857  14.317   2.168  11.109 -0.1101 -0.2412  0.1582
  242loPI    C2 3858  14.043   2.082  11.388 -0.2548 -0.0868  0.0657
  242loPI    C3 3859  14.329   2.351  11.464 -0.3371  0.0081  0.0409
  242loPI   PO4 3860  14.232   2.238  10.944  0.0815 -0.3109  0.2199
  242loPI   GL1 3861  14.264   2.068  10.595 -0.1164  0.2794  0.1074
  242loPI   GL2 3862  14.150   1.794  10.685  0.3594  0.0755  0.2205
  242loPI   C1A 3863  14.233   1.889  10.223 -0.0386 -0.2352 -0.3402
  242loPI   C2A 3864  14.369   1.905   9.925 -0.3084  0.1229 -0.0973
  242loPI   C3A 3865  14.380   1.968   9.524  0.1430  0.1762 -0.2080
  242loPI   C4A 3866  14.574   1.831   9.169  0.0387  0.3429 -0.4770
  242loPI   C5A 3867  14.693   1.406   9.058  0.1263  0.0906  0.2918
  242loPI   C6A 3868  15.108   1.264   8.904 -0.2574 -0.0850 -0.0009
  242loPI   C1B 3869  13.848   1.605  10.321 -0.1215  0.0462  0.0194
  242loPI   C2B 3870  13.941   1.566   9.921  0.1329  0.0352 -0.1903
  242loPI   C3B 3871  14.086   1.591   9.573  0.1878  0.0165  0.2339
  242loPI   C4B 3872  14.112   1.569   9.111 -0.0626  0.3597 -0.3117
  243loPI    C1 3873  16.169   0.013  11.926  0.0684 -0.2487  0.2110
  243loPI    C2 3874  15.853  -0.188  12.068  0.0015  0.0696  0.5264
  243loPI    C3 3875  16.017   0.107  12.284 -0.0714  0.5412 -0.0353
  243loPI   PO4 3876  16.289  -0.189  11.686  0.1142  0.1443  0.2802
  243loPI   GL1 3877  16.356  -0.136  11.253 -0.1451 -0.1002 -0.3229
  243loPI   GL2 3878  16.072  -0.264  11.186  0.2694  0.0960  0.0387
  243loPI   C1A 3879  16.346   0.001  10.865 -0.0553  0.0873 -0.2538
  243loPI   C2A 3880  16.455  -0.195  10.475 -0.1430 -0.0464  0.2518
  243loPI   C3A 3881  16.589  -0.134  10.057  0.2107  0.1163 -0.3241
  243loPI   C4A 3882  16.602  -0.263   9.703 -0.1377  0.1048 -0.0698
  243loPI   C5A 3883  16.563  -0.436   9.346 -0.1591  0.1472  0.0955
  243loPI   C6A 3884  16.352  -0.444   8.926 -0.2185  0.3211 -0.0311
  243loPI   C1B 3885  15.995  -0.414  10.887 -0.0131 -0.4007  0.1342
  243loPI   C2B 3886  15.987  -0.448  10.463 -0.1833 -0.1546  0.0092
  243loPI   C3B 3887  16.160  -0.509  10.079 -0.1193 -0.0734  0.0035
  243loPI   C4B 3888  16.105  -0.379   9.618  0.0318 -0.0825  0.2385
  244loPI    C1 3889   9.265   7.521  11.280  0.1207 -0.1282 -0.2744
  244loPI    C2 3890   8.968   7.393  11.517  0.0595  0.1943 -0.1713
  244loPI    C3 3891   9.290   7.570  11.677  0.1616  0.1336 -0.3072
  244loPI   PO4 3892   9.012   7.594  11.013 -0.0302 -0.0971 -0.2163
  244loPI   GL1 3893   8.814   7.802  10.751  0.1377 -0.1476  0.1090
  244loPI   GL2 3894   8.543   7.751  10.778 -0.2319  0.0084 -0.0727
  244loPI   C1A 3895   9.185   7.690  10.401 -0.0996 -0.1198  0.7111
  244loPI   C2A 3896   9.092   7.721   9.980  0.0359  0.2968  0.1625
  244loPI   C3A 3897   8.997   7.651   9.479 -0.0710 -0.0136  0.3371
  244loPI   C4A 3898   8.974   7.773   9.052 -0.0343  0.1348 -0.1984
  244loPI   C5A 3899   9.247   7.991   8.859  0.1432 -0.1592 -0.0855
  244loPI   C6A 3900   9.467   8.221   8.614  0.3215  0.1865 -0.0723
  244loPI   C1B 3901   8.724   7.874  10.309  0.0740  0.0930  0.2538
  244loPI   C2B 3902   8.542   7.726   9.892  0.0848 -0.0406  0.0727
  244loPI   C3B 3903   8.373   7.866   9.498 -0.0010 -0.2368  0.1362
  244loPI   C4B 3904   8.446   7.964   9.071 -0.1096 -0.1029  0.3234
  245loPI    C1 3905   8.509  14.650  11.565 -0.0106 -0.0116  0.0258
  245loPI    C2 3906   8.736  14.865  11.816 -0.0903  0.0021  0.0866
  245loPI    C3 3907   8.391  14.709  11.943 -0.1279  0.0032 -0.0131
  245loPI   PO4 3908   8.668  14.514  11.418  0.1117  0.1072  0.1244
  245loPI   GL1 3909   8.743  14.600  11.042  0.1852  0.3543 -0.1094
  245loPI   GL2 3910   8.363  14.573  11.027 -0.1129  0.1320 -0.0284
  245loPI   C1A 3911   8.606  14.677  10.624 -0.1419  0.0152 -0.0644
  245loPI   C2A 3912   8.631  14.703  10.197 -0.1523 -0.0877  0.2681
  245loPI   C3A 3913   8.740  14.856   9.779  0.1208  0.1795  0.3825
  245loPI   C4A 3914   8.643  15.026   9.388  0.1698 -0.1602 -0.0507
  245loPI   C5A 3915   8.364  14.874   8.974  0.0294  0.0321  0.0009
  245loPI   C6A 3916   8.019  14.858   9.028  0.1289  0.2134  0.0716
  245loPI   C1B 3917   8.134  14.655  10.653  0.3728 -0.0808  0.0733
  245loPI   C2B 3918   8.183  14.850  10.219  0.3124  0.1655 -0.3235
  245loPI   C3B 3919   8.115  14.845   9.832  0.0401 -0.2302  0.0618
  245loPI   C4B 3920   8.166  14.997   9.516  0.0371  0.1316 -0.1329
  246loPI    C1 3921  16.084  13.914  12.058 -0.0008  0.0944  0.0505
  246loPI    C2 3922  16.362  13.786  12.315 -0.1609 -0.2950  0.0369
  246loPI    C3 3923  16.002  13.898  12.449  0.0070  0.2516  0.0594
  246loPI   PO4 3924  16.183  14.135  11.863 -0.2104 -0.0335 -0.1139
  246loPI   GL1 3925  16.244  14.449  11.509 -0.1301 -0.1205 -0.0264
  246loPI   GL2 3926  15.987  14.296  11.371  0.1626  0.3376  0.1696
  246loPI   C1A 3927  16.364  14.468  11.074  0.1945  0.1084 -0.1868
  246loPI   C2A 3928  16.286  14.412  10.614 -0.2120  0.0430  0.0568
  246loPI   C3A 3929  16.361  14.556  10.194 -0.3586  0.1580 -0.2474
  246loPI   C4A 3930  16.466  14.589   9.787  0.1958 -0.0246 -0.2574
  246loPI   C5A 3931  16.762  14.593   9.475 -0.1219 -0.2013  0.2234
  246loPI   C6A 3932  16.971  14.902   9.246  0.0044 -0.0940 -0.0207
  246loPI   C1B 3933  15.914  14.179  10.947  0.0915  0.0974 -0.3138
  246loPI   C2B 3934  15.870  14.137  10.534  0.0192  0.1922  0.0984
  246loPI   C3B 3935  15.971  14.240  10.067  0.0987  0.1047 -0.1398
  246loPI   C4B 3936  15.910  14.100   9.580 -0.0823  0.3500 -0.0675
  247loPI    C1 3937  16.124  13.112  12.254 -0.0033 -0.1139  0.1375
  247loPI    C2 3938  16.354  12.869  12.473  0.3185 -0.0799 -0.1555
  247loPI    C3 3939  16.000  12.989  12.614  0.3535 -0.3580  0.1821
  247loPI   PO4 3940  16.376  13.291  12.113 -0.1677 -0.1420 -0.3484
  247loPI   GL1 3941  16.473  13.516  11.722  0.4552  0.3202  0.3467
  247loPI   GL2 3942  16.185  13.677  11.501 -0.0066  0.1258 -0.1519
  247loPI   C1A 3943  16.390  13.417  11.195  0.2840 -0.1169  0.0265
  247loPI   C2A 3944  16.278  13.432  10.779 -0.1198 -0.0199 -0.4055
  247loPI   C3A 3945  16.435  13.496  10.400 -0.0649  0.0266  0.0182
  247loPI   C4A 3946  16.494  13.563   9.981 -0.2762  0.1332 -0.2604
  247loPI   C5A 3947  16.469  13.730   9.624  0.1213  0.3437 -0.1920
  247loPI   C6A 3948  16.482  14.141   9.557  0.0219  0.3761 -0.1695
  247loPI   C1B 3949  15.919  13.644  11.023  0.2199  0.2866 -0.1263
  247loPI   C2B 3950  15.881  13.678  10.584  0.0164  0.2760  0.2104
  247loPI   C3B 3951  15.963  13.747  10.209  0.3184 -0.1542  0.0543
  247loPI   C4B 3952  15.987  13.682   9.807  0.3027 -0.0612  0.1383
  248loPI    C1 3953   5.714   2.625  11.625 -0.1105 -0.1404  0.0682
  248loPI    C2 3954   5.557   2.896  11.874  0.0913  0.1544 -0.1182
  248loPI    C3 3955   5.324   2.711  11.605 -0.0615  0.0845  0.0602
  248loPI   PO4 3956   5.930   2.712  11.573  0.0937  0.1238 -0.0652
  248loPI   GL1 3957   6.063   2.901  11.122  0.0982  0.0371 -0.2912
  248loPI   GL2 3958   6.269   3.167  11.203  0.4851 -0.2552 -0.0561
  248loPI   C1A 3959   5.902   2.907  10.663  0.1192 -0.1038  0.4970
  248loPI   C2A 3960   5.727   2.982  10.284  0.0870  0.0004 -0.0952
  248loPI   C3A 3961   5.722   2.984   9.911  0.1018  0.0050 -0.1105
  248loPI   C4A 3962   5.814   3.149   9.479 -0.1148  0.3966 -0.0040
  248loPI   C5A 3963   6.176   3.350   9.209  0.0465  0.2073 -0.1219
  248loPI   C6A 3964   6.135   3.327   8.799 -0.4502  0.1321  0.0818
  248loPI   C1B 3965   6.312   3.319  10.784 -0.0486  0.3078  0.0998
  248loPI   C2B 3966   6.219   3.210  10.480 -0.2971 -0.0012  0.0268
  248loPI   C3B 3967   6.129   3.262  10.119  0.1277  0.0331  0.1468
  248loPI   C4B 3968   6.246   3.301   9.689  0.3879 -0.0880 -0.0243
  249loPI    C1 3969  10.124   8.615  11.392  0.0917 -0.1973  0.0977
  249loPI    C2 3970  10.149   8.499  11.774  0.2130 -0.1093  0.1168
  249loPI    C3 3971  10.155   8.888  11.682 -0.1333 -0.1170  0.0488
  249loPI   PO4 3972   9.843   8.406  11.304 -0.0641 -0.2100 -0.1679
  249loPI   GL1 3973   9.687   8.349  10.881  0.0471  0.0794  0.0588
  249loPI   GL2 3974   9.907   8.731  10.908 -0.1408  0.0531  0.1737
  249loPI   C1A 3975   9.475   8.484  10.463 -0.0703 -0.2597  0.0908
  249loPI   C2A 3976   9.453   8.549  10.066  0.0337  0.1022 -0.1560
  249loPI   C3A 3977   9.446   8.629   9.677  0.2514 -0.0341  0.0354
  249loPI   C4A 3978   9.579   8.525   9.373  0.0227 -0.0901 -0.1921
  249loPI   C5A 3979   9.551   8.657   9.074  0.1198 -0.0787  0.0026
  249loPI   C6A 3980   9.165   8.615   8.777 -0.0877  0.1513  0.0208
  249loPI   C1B 3981   9.932   8.729  10.463 -0.0146 -0.1973  0.0645
  249loPI   C2B 3982   9.951   8.721  10.033  0.0998  0.1062 -0.1124
  249loPI   C3B 3983   9.870   8.853   9.660  0.1500  0.3751 -0.2975
  249loPI   C4B 3984   9.873   8.970   9.186 -0.1039 -0.0789  0.0887
  250loPI    C1 3985   8.041  13.858  11.489  0.0298 -0.0151 -0.0913
  250loPI    C2 3986   8.133  13.790  11.872  0.1211 -0.0880 -0.1257
  250loPI    C3 3987   8.235  14.137  11.701 -0.2224  0.0850  0.0113
  250loPI   PO4 3988   8.133  13.665  11.386 -0.1066 -0.0066  0.1177
  250loPI   GL1 3989   8.186  13.661  10.978  0.1744 -0.0491  0.1558
  250loPI   GL2 3990   7.873  13.780  10.996  0.0564  0.0455  0.3045
  250loPI   C1A 3991   8.303  13.719  10.532 -0.0211 -0.0859  0.2020
  250loPI   C2A 3992   8.131  13.896  10.094 -0.2033 -0.0598  0.1121
  250loPI   C3A 3993   8.310  13.870   9.728  0.2526 -0.0037  0.0025
  250loPI   C4A 3994   8.448  14.024   9.309  0.3936 -0.0454  0.1349
  250loPI   C5A 3995   8.376  13.821   8.893 -0.0450  0.1956 -0.4304
  250loPI   C6A 3996   8.358  13.428   8.652 -0.2516  0.1873 -0.2636
  250loPI   C1B 3997   7.757  13.787  10.618 -0.1956 -0.3024  0.1808
  250loPI   C2B 3998   7.580  13.873  10.218  0.3162  0.1335  0.0209
  250loPI   C3B 3999   7.757  13.796   9.784 -0.3123  0.0842  0.2353
  250loPI   C4B 4000   7.563  13.734   9.431 -0.1127 -0.0732 -0.2414
  251loPI    C1 4001  17.157   7.584  11.772 -0.1231 -0.1199 -0.0671
  251loPI    C2 4002  17.544   7.497  11.725 -0.0867 -0.0589  0.1131
  251loPI    C3 4003  17.399   7.573  12.090 -0.2246  0.1265  0.0214
  251loPI   PO4 4004  17.043   7.588  11.442 -0.0882  0.0594  0.2130
  251loPI   GL1 4005  17.009   7.411  11.065  0.1377  0.1287  0.1395
  251loPI   GL2 4006  17.127   7.103  10.970 -0.3403 -0.1789 -0.1084
  251loPI   C1A 4007  16.867   7.570  10.582  0.0798  0.3564 -0.2681
  251loPI   C2A 4008  16.828   7.591  10.206 -0.1448  0.0313  0.0507
  251loPI   C3A 4009  16.766   7.545   9.873  0.1524  0.3081 -0.1494
  251loPI   C4A 4010  16.844   7.548   9.460  0.1080  0.3700  0.0594
  251loPI   C5A 4011  16.663   7.483   9.110  0.0615 -0.1465  0.0128
  251loPI   C6A 4012  16.497   7.854   8.806  0.1071 -0.1482  0.0485
  251loPI   C1B 4013  17.067   7.108  10.584 -0.1180  0.0306  0.1248
  251loPI   C2B 4014  17.146   7.186  10.145 -0.2779  0.2549  0.3100
  251loPI   C3B 4015  17.204   7.388   9.707 -0.0451  0.1214 -0.4595
  251loPI   C4B 4016  17.244   7.301   9.243 -0.0380  0.0114 -0.3463
  252loPI    C1 4017  16.936   4.128  11.853 -0.0396 -0.0122  0.0665
  252loPI    C2 4018  16.976   3.772  12.030 -0.2328 -0.1206 -0.1032
  252loPI    C3 4019  16.883   4.095  12.248  0.1023 -0.1405  0.0755
  252loPI   PO4 4020  17.055   4.049  11.628  0.1820 -0.3133 -0.1423
  252loPI   GL1 4021  17.154   4.029  11.193 -0.0637  0.1482  0.0233
  252loPI   GL2 4022  16.820   3.946  11.197 -0.0471  0.1552  0.1085
  252loPI   C1A 4023  17.428   3.918  10.875 -0.0670 -0.1765  0.4799
  252loPI   C2A 4024  17.429   3.971  10.486 -0.0953 -0.0309  0.4357
  252loPI   C3A 4025  17.501   4.011  10.105  0.0763  0.1543  0.0458
  252loPI   C4A 4026  17.458   4.055   9.714 -0.1997  0.1507 -0.0233
  252loPI   C5A 4027  17.550   4.150   9.380 -0.1772 -0.0028 -0.0939
  252loPI   C6A 4028  17.954   4.030   9.106 -0.2552 -0.2386 -0.0304
  252loPI   C1B 4029  16.834   3.773  10.761  0.1271 -0.2043  0.5133
  252loPI   C2B 4030  16.944   3.850  10.376 -0.0475  0.2096  0.0108
  252loPI   C3B 4031  17.047   3.902   9.885 -0.2064  0.4222 -0.1876
  252loPI   C4B 4032  17.045   4.137   9.478  0.1303 -0.2427  0.0920
  253loPI    C1 4033   7.465   0.953  11.750  0.0412  0.3255  0.0758
  253loPI    C2 4034   7.792   0.728  11.705  0.0255  0.3173  0.0018
  253loPI    C3 4035   7.639   0.787  12.070 -0.1648 -0.0690 -0.0105
  253loPI   PO4 4036   7.545   1.064  11.450  0.0530 -0.2039 -0.3941
  253loPI   GL1 4037   7.301   1.043  11.065  0.0862  0.2010 -0.1997
  253loPI   GL2 4038   7.535   0.871  10.881 -0.0901  0.1815  0.0895
  253loPI   C1A 4039   7.023   1.044  10.613  0.2532 -0.0679  0.2769
  253loPI   C2A 4040   7.004   1.085  10.168 -0.1554  0.2661 -0.0282
  253loPI   C3A 4041   6.893   1.103   9.769  0.2007 -0.3443 -0.0388
  253loPI   C4A 4042   6.782   0.974   9.407  0.0635  0.2129  0.3663
  253loPI   C5A 4043   6.575   1.021   9.015 -0.0750 -0.1760  0.0568
  253loPI   C6A 4044   6.291   1.142   8.697 -0.1233 -0.1123  0.1322
  253loPI   C1B 4045   7.498   0.855  10.443 -0.1242 -0.1643  0.2389
  253loPI   C2B 4046   7.380   0.791   9.940  0.0211 -0.0532  0.1171
  253loPI   C3B 4047   7.225   0.799   9.448 -0.2123 -0.0111  0.1138
  253loPI   C4B 4048   7.050   0.719   9.047 -0.0213 -0.1342 -0.0344
  254loPI    C1 4049  10.573  13.330  11.441  0.2159 -0.2205 -0.1459
  254loPI    C2 4050  10.229  13.153  11.545  0.2158  0.0380  0.3207
  254loPI    C3 4051  10.571  13.045  11.723  0.3222  0.0340  0.1166
  254loPI   PO4 4052  10.565  13.385  11.179 -0.0569 -0.1953  0.0150
  254loPI   GL1 4053  10.816  13.190  10.892 -0.2547 -0.0975  0.0511
  254loPI   GL2 4054  11.119  13.274  10.779  0.2138 -0.1080 -0.0773
  254loPI   C1A 4055  10.701  12.942  10.609 -0.0645  0.1782 -0.0977
  254loPI   C2A 4056  10.687  12.912  10.175 -0.0036  0.1485  0.1878
  254loPI   C3A 4057  10.751  13.122   9.741 -0.2195 -0.1410  0.1717
  254loPI   C4A 4058  10.674  13.112   9.331  0.3028  0.2075 -0.1902
  254loPI   C5A 4059  10.824  13.102   9.051 -0.1641 -0.2110  0.0746
  254loPI   C6A 4060  11.008  13.316   8.698  0.1008 -0.1521  0.0121
  254loPI   C1B 4061  11.012  13.233  10.328  0.1222  0.1341  0.1379
  254loPI   C2B 4062  11.123  13.431   9.976 -0.1072 -0.2357  0.2053
  254loPI   C3B 4063  11.173  13.405   9.574 -0.3272 -0.1029  0.0114
  254loPI   C4B 4064  10.962  13.609   9.150 -0.2155  0.1749  0.0817
  255loPI    C1 4065  10.561   9.358  11.685  0.0501 -0.1557 -0.1931
  255loPI    C2 4066  10.536   9.632  11.975  0.2888 -0.1800 -0.1473
  255loPI    C3 4067  10.890   9.549  11.809  0.2360 -0.5329 -0.0902
  255loPI   PO4 4068  10.398   9.390  11.490 -0.0276  0.2916  0.1687
  255loPI   GL1 4069  10.456   9.384  11.096  0.0886 -0.0197  0.0944
  255loPI   GL2 4070  10.437   9.644  11.016 -0.3101  0.0487  0.0510
  255loPI   C1A 4071  10.568   9.399  10.616 -0.1710  0.0723 -0.0376
  255loPI   C2A 4072  10.624   9.368  10.170 -0.1577 -0.1329  0.2092
  255loPI   C3A 4073  10.666   9.436   9.735 -0.2398 -0.0793  0.0638
  255loPI   C4A 4074  10.627   9.689   9.329  0.3343  0.1560  0.0986
  255loPI   C5A 4075  10.384   9.808   8.928 -0.0913 -0.1639 -0.2665
  255loPI   C6A 4076  10.147   9.755   8.625 -0.1381 -0.0453  0.1260
  255loPI   C1B 4077  10.275   9.818  10.680  0.1854  0.1853  0.2526
  255loPI   C2B 4078  10.281   9.668  10.277 -0.2564  0.2249 -0.2075
  255loPI   C3B 4079  10.288   9.720   9.834  0.2306  0.2612  0.0189
  255loPI   C4B 4080  10.170   9.807   9.435  0.0765  0.2162 -0.0938
  256loPI    C1 4081   0.374  12.696  11.874  0.0929  0.1272 -0.1477
  256loPI    C2 4082   0.185  13.047  11.839 -0.1084  0.0441  0.0760
  256loPI    C3 4083   0.208  12.867  12.195  0.2354 -0.0381  0.0161
  256loPI   PO4 4084   0.644  12.757  11.758 -0.3741 -0.1894 -0.3193
  256loPI   GL1 4085   0.751  12.964  11.380  0.3673 -0.1173 -0.0430
  256loPI   GL2 4086   0.604  13.209  11.540  0.0936  0.1804 -0.2211
  256loPI   C1A 4087   0.704  12.975  11.012  0.3248 -0.1927  0.0424
  256loPI   C2A 4088   0.677  12.875  10.570 -0.0366  0.1651 -0.2391
  256loPI   C3A 4089   0.741  12.970  10.109 -0.1478 -0.0803 -0.0181
  256loPI   C4A 4090   0.855  12.887   9.683 -0.1385  0.0167  0.2100
  256loPI   C5A 4091   0.893  12.877   9.288  0.0964 -0.0171 -0.1585
  256loPI   C6A 4092   1.181  13.049   8.980 -0.3327 -0.0065  0.0362
  256loPI   C1B 4093   0.623  13.416  11.060 -0.0656  0.0902 -0.5162
  256loPI   C2B 4094   0.580  13.482  10.673 -0.1340 -0.0314  0.1097
  256loPI   C3B 4095   0.706  13.445  10.226  0.1556  0.1122 -0.0869
  256loPI   C4B 4096   0.671  13.357   9.744  0.1891 -0.0953 -0.2403
  257loPI    C1 4097   3.139   5.514  11.667 -0.2205 -0.0635 -0.0040
  257loPI    C2 4098   3.214   5.320  12.008 -0.1987 -0.1401 -0.0522
  257loPI    C3 4099   3.081   5.697  12.018  0.1683 -0.0085  0.0362
  257loPI   PO4 4100   3.284   5.471  11.518  0.1342 -0.1082  0.0853
  257loPI   GL1 4101   3.464   5.126  11.225 -0.1813 -0.2087  0.0991
  257loPI   GL2 4102   3.379   4.791  11.147 -0.3223 -0.1015 -0.0555
  257loPI   C1A 4103   3.377   5.181  10.786  0.1426 -0.1211 -0.2397
  257loPI   C2A 4104   3.238   5.154  10.329 -0.2529  0.2230  0.4522
  257loPI   C3A 4105   3.389   5.192   9.854  0.1657  0.1793  0.2093
  257loPI   C4A 4106   3.464   5.275   9.427 -0.2650  0.4127  0.0365
  257loPI   C5A 4107   3.592   5.463   9.129 -0.1563  0.0654 -0.3516
  257loPI   C6A 4108   3.891   5.846   9.142 -0.1098 -0.1771 -0.0629
  257loPI   C1B 4109   3.509   4.624  10.790 -0.0116 -0.0797  0.1275
  257loPI   C2B 4110   3.458   4.525  10.363 -0.0154  0.2064 -0.0842
  257loPI   C3B 4111   3.444   4.530   9.954 -0.1716  0.0748  0.2615
  257loPI   C4B 4112   3.469   4.769   9.583 -0.2384 -0.0744  0.0897
  258loPI    C1 4113  12.180  15.575  11.394  0.1660  0.0149  0.0719
  258loPI    C2 4114  12.324  15.866  11.627 -0.0294  0.3125 -0.1713
  258loPI    C3 4115  11.990  15.674  11.732  0.0635  0.2188 -0.0436
  258loPI   PO4 4116  12.241  15.659  11.105  0.3594  0.2626  0.0074
  258loPI   GL1 4117  12.079  15.577  10.730 -0.1230 -0.1845 -0.1390
  258loPI   GL2 4118  11.718  15.698  10.711 -0.1044  0.2961  0.0353
  258loPI   C1A 4119  12.158  15.562  10.372  0.1456  0.2339 -0.0012
  258loPI   C2A 4120  12.143  15.529  10.016 -0.0961  0.2510 -0.2099
  258loPI   C3A 4121  12.306  15.410   9.736  0.4893  0.0013  0.4011
  258loPI   C4A 4122  12.214  15.433   9.439 -0.2768 -0.0587  0.0535
  258loPI   C5A 4123  12.442  15.380   9.030  0.3067  0.1955  0.2228
  258loPI   C6A 4124  12.268  15.659   8.757 -0.0428  0.3170 -0.0542
  258loPI   C1B 4125  11.642  15.685  10.286  0.2390  0.2248  0.0651
  258loPI   C2B 4126  11.635  15.664   9.889 -0.1416  0.0594 -0.1882
  258loPI   C3B 4127  11.769  15.681   9.510  0.1619 -0.1418  0.0277
  258loPI   C4B 4128  11.865  15.527   9.107 -0.0791 -0.0151  0.3548
  259loPI    C1 4129  13.309  13.323  11.347  0.0036  0.1833  0.0267
  259loPI    C2 4130  13.148  13.469  11.683 -0.2091 -0.1338  0.0661
  259loPI    C3 4131  13.393  13.154  11.700  0.0642  0.0693 -0.0420
  259loPI   PO4 4132  13.150  13.242  11.180 -0.2406 -0.0492  0.2435
  259loPI   GL1 4133  13.150  13.248  10.768  0.0846  0.1036 -0.1308
  259loPI   GL2 4134  13.015  13.485  10.787 -0.1918  0.2868  0.2078
  259loPI   C1A 4135  13.091  13.266  10.354  0.2611 -0.1196  0.1603
  259loPI   C2A 4136  12.992  13.370   9.884  0.2500  0.1476 -0.1752
  259loPI   C3A 4137  12.970  13.239   9.417 -0.2490  0.1265  0.2250
  259loPI   C4A 4138  13.011  13.413   9.038  0.2138  0.0177  0.1419
  259loPI   C5A 4139  12.726  13.605   8.794  0.0818 -0.2280 -0.2405
  259loPI   C6A 4140  12.345  13.768   8.935 -0.1165 -0.1254  0.3114
  259loPI   C1B 4141  12.865  13.722  10.448  0.3164 -0.0671  0.0596
  259loPI   C2B 4142  12.828  13.840  10.004 -0.1258  0.1772 -0.1080
  259loPI   C3B 4143  12.851  13.782   9.504 -0.2208  0.2193  0.4855
  259loPI   C4B 4144  13.064  13.931   9.154  0.4490  0.0911  0.3889
  260loPI    C1 4145  10.261   0.208  11.149  0.1151  0.1489  0.2684
  260loPI    C2 4146   9.951   0.336  10.931  0.2484  0.0597  0.0229
  260loPI    C3 4147  10.179   0.599  11.128  0.2006  0.1529 -0.0452
  260loPI   PO4 4148  10.317  -0.085  11.012 -0.1335  0.3435  0.1147
  260loPI   GL1 4149  10.533  -0.150  10.645 -0.0428  0.0823 -0.1770
  260loPI   GL2 4150  10.673  -0.526  10.543 -0.1425 -0.1173 -0.5030
  260loPI   C1A 4151  10.723   0.074  10.346  0.3069 -0.0076  0.2125
  260loPI   C2A 4152  10.724   0.040   9.919 -0.4827  0.0114 -0.1133
  260loPI   C3A 4153  10.749   0.008   9.451 -0.0390 -0.0482  0.2873
  260loPI   C4A 4154  10.677  -0.003   9.053 -0.0722 -0.0343  0.0640
  260loPI   C5A 4155  10.811  -0.060   8.651  0.0305 -0.2726  0.0116
  260loPI   C6A 4156  11.078  -0.151   8.283  0.2896  0.2270 -0.0997
  260loPI   C1B 4157  10.699  -0.516  10.095  0.0598  0.1663  0.2198
  260loPI   C2B 4158  10.768  -0.499   9.744 -0.3926 -0.1070  0.1399
  260loPI   C3B 4159  10.831  -0.499   9.304 -0.1414 -0.0664  0.1309
  260loPI   C4B 4160  10.572  -0.463   8.898  0.1124  0.0094  0.4382
  261loPI    C1 4161   7.448   9.281  11.732  0.0735 -0.1112  0.1354
  261loPI    C2 4162   7.083   9.438  11.686  0.2658  0.3054 -0.0215
  261loPI    C3 4163   7.239   9.397  12.052  0.0442  0.0763  0.0499
  261loPI   PO4 4164   7.605   9.476  11.562 -0.1131  0.1961  0.3113
  261loPI   GL1 4165   7.606   9.468  11.070  0.0540 -0.1107 -0.2252
  261loPI   GL2 4166   7.563   9.739  11.025 -0.1026  0.3917  0.0364
  261loPI   C1A 4167   7.596   9.354  10.547 -0.1849  0.0673  0.3068
  261loPI   C2A 4168   7.530   9.456  10.215  0.1517 -0.3175 -0.0219
  261loPI   C3A 4169   7.567   9.316   9.871  0.2300  0.1641  0.0260
  261loPI   C4A 4170   7.370   9.369   9.473 -0.1678 -0.2486 -0.3681
  261loPI   C5A 4171   7.249   9.548   9.054  0.0554  0.1067  0.2103
  261loPI   C6A 4172   6.935   9.931   8.872  0.3038 -0.0467  0.2308
  261loPI   C1B 4173   7.504   9.940  10.648  0.1034 -0.0657  0.1910
  261loPI   C2B 4174   7.559   9.960  10.237  0.0615  0.2193 -0.0989
  261loPI   C3B 4175   7.429   9.880   9.839  0.0100  0.3517 -0.4007
  261loPI   C4B 4176   7.290   9.869   9.438  0.2516 -0.2805 -0.0666
  262loPI    C1 4177   7.252   7.491  11.433 -0.0748 -0.0239 -0.0340
  262loPI    C2 4178   7.511   7.301  11.671 -0.0254  0.1324  0.0382
  262loPI    C3 4179   7.277   7.589  11.820 -0.2537 -0.0189 -0.0231
  262loPI   PO4 4180   7.121   7.343  11.300 -0.0326 -0.0620 -0.2023
  262loPI   GL1 4181   7.275   7.300  10.870  0.2876  0.0234  0.3399
  262loPI   GL2 4182   7.539   7.521  10.667 -0.1371  0.0237  0.1238
  262loPI   C1A 4183   7.401   6.900  10.561 -0.0611  0.0453  0.1418
  262loPI   C2A 4184   7.345   6.871  10.136  0.2527 -0.2640  0.0156
  262loPI   C3A 4185   7.255   6.873   9.651  0.1266  0.0004 -0.1445
  262loPI   C4A 4186   7.112   6.941   9.241 -0.0414 -0.1247 -0.0110
  262loPI   C5A 4187   6.954   6.897   8.881 -0.2121 -0.0018  0.0470
  262loPI   C6A 4188   6.982   7.284   8.564  0.3406 -0.2342 -0.0450
  262loPI   C1B 4189   7.383   7.393  10.248 -0.1352 -0.2055  0.2163
  262loPI   C2B 4190   7.305   7.352   9.808  0.0036 -0.0447 -0.1495
  262loPI   C3B 4191   7.164   7.511   9.485  0.0551 -0.2229 -0.0022
  262loPI   C4B 4192   6.755   7.713   9.427  0.0350  0.3094  0.0834
  263loPI    C1 4193   2.124   3.133  11.849 -0.1062  0.1458 -0.3409
  263loPI    C2 4194   2.228   3.483  11.686  0.2723  0.3061  0.2160
  263loPI    C3 4195   2.207   3.446  12.084 -0.0314 -0.2362  0.1590
  263loPI   PO4 4196   2.273   3.017  11.770  0.1195  0.0776  0.2336
  263loPI   GL1 4197   2.499   2.825  11.552  0.0029  0.2212 -0.1192
  263loPI   GL2 4198   2.551   2.527  11.615 -0.1907  0.2631 -0.3122
  263loPI   C1A 4199   2.547   2.906  11.059 -0.1031  0.1147 -0.1080
  263loPI   C2A 4200   2.501   2.918  10.661 -0.0254 -0.1532  0.1021
  263loPI   C3A 4201   2.517   2.837  10.210  0.1207 -0.2300 -0.1798
  263loPI   C4A 4202   2.608   2.983   9.782  0.0122 -0.1104 -0.2746
  263loPI   C5A 4203   2.413   2.949   9.415  0.2412  0.0947  0.2338
  263loPI   C6A 4204   2.373   2.685   9.121  0.1227 -0.0008 -0.1249
  263loPI   C1B 4205   2.624   2.446  11.218  0.4451  0.2210  0.0884
  263loPI   C2B 4206   2.580   2.414  10.881 -0.1694  0.1241 -0.1391
  263loPI   C3B 4207   2.684   2.332  10.402 -0.0320  0.0497 -0.2260
  263loPI   C4B 4208   2.669   2.286   9.994  0.2573  0.0310 -0.1797
  264loPI    C1 4209  15.189  13.764  11.588 -0.1752 -0.0954  0.0296
  264loPI    C2 4210  15.302  13.769  11.971 -0.0608 -0.2338 -0.0013
  264loPI    C3 4211  15.015  14.017  11.844  0.0240 -0.0630  0.1349
  264loPI   PO4 4212  15.227  13.610  11.464  0.3385 -0.1296 -0.1242
  264loPI   GL1 4213  15.031  13.665  11.068  0.0821  0.1243 -0.2042
  264loPI   GL2 4214  14.822  13.301  10.947 -0.0415  0.1774 -0.2767
  264loPI   C1A 4215  15.081  13.693  10.623  0.2428 -0.0600  0.0329
  264loPI   C2A 4216  15.069  13.704  10.073 -0.0072 -0.1288  0.0406
  264loPI   C3A 4217  15.077  13.702   9.682 -0.0094 -0.0849 -0.2242
  264loPI   C4A 4218  15.129  13.570   9.192 -0.3680  0.1327  0.4462
  264loPI   C5A 4219  15.125  13.708   8.823  0.0665 -0.0692  0.0419
  264loPI   C6A 4220  14.830  13.951   8.573 -0.0706 -0.0707  0.0746
  264loPI   C1B 4221  14.907  13.200  10.619  0.0094  0.1815  0.3108
  264loPI   C2B 4222  14.920  13.217  10.208 -0.3239  0.1677 -0.1855
  264loPI   C3B 4223  14.738  13.336   9.848 -0.1265 -0.1765 -0.0478
  264loPI   C4B 4224  14.664  13.412   9.368  0.0506 -0.1487 -0.1701
  265loPI    C1 4225   4.798   8.066  11.992 -0.2496 -0.2163 -0.0132
  265loPI    C2 4226   4.617   8.420  12.032  0.1841  0.0144 -0.0316
  265loPI    C3 4227   4.595   8.150  12.326 -0.0111  0.1188  0.0517
  265loPI   PO4 4228   4.779   8.039  11.698  0.1365  0.0536 -0.1304
  265loPI   GL1 4229   4.686   8.073  11.264  0.0703  0.2779 -0.3837
  265loPI   GL2 4230   4.759   8.278  11.071 -0.1577 -0.0373  0.0659
  265loPI   C1A 4231   4.579   7.804  10.904  0.0251  0.1763 -0.4750
  265loPI   C2A 4232   4.519   7.666  10.492 -0.4863  0.2278 -0.1325
  265loPI   C3A 4233   4.553   7.703  10.044  0.1009  0.1937 -0.2374
  265loPI   C4A 4234   4.479   7.784   9.670 -0.3100  0.3281 -0.0409
  265loPI   C5A 4235   4.349   7.882   9.196  0.2033 -0.2119  0.4082
  265loPI   C6A 4236   4.339   8.014   8.713  0.0719  0.3853  0.1306
  265loPI   C1B 4237   4.467   8.321  10.852  0.0804  0.0579 -0.1784
  265loPI   C2B 4238   4.410   8.334  10.450 -0.0301  0.0354 -0.0003
  265loPI   C3B 4239   4.382   8.294  10.052 -0.0209 -0.0934 -0.0174
  265loPI   C4B 4240   4.407   8.364   9.699  0.0865  0.1165  0.0029
  266loPI    C1 4241   6.589   1.920  11.902  0.0035 -0.0879  0.0948
  266loPI    C2 4242   6.939   2.062  12.034 -0.0355  0.0238  0.0792
  266loPI    C3 4243   6.635   2.010  12.289 -0.0079 -0.0736  0.0929
  266loPI   PO4 4244   6.587   2.075  11.579 -0.1898 -0.1201  0.0042
  266loPI   GL1 4245   6.471   2.310  11.228 -0.0205 -0.0810 -0.0939
  266loPI   GL2 4246   6.182   2.441  11.204  0.0443 -0.0493 -0.2399
  266loPI   C1A 4247   6.513   2.200  10.893 -0.0061  0.0090 -0.1156
  266loPI   C2A 4248   6.306   2.239  10.495  0.3355  0.1522 -0.0533
  266loPI   C3A 4249   6.267   2.226  10.090  0.0169  0.1896  0.2169
  266loPI   C4A 4250   6.314   2.248   9.758 -0.1832 -0.3031 -0.1231
  266loPI   C5A 4251   6.176   2.433   9.325  0.1321 -0.1071 -0.0055
  266loPI   C6A 4252   6.276   2.522   8.851  0.1074 -0.3589 -0.0307
  266loPI   C1B 4253   5.900   2.397  10.777  0.4201  0.3037 -0.0498
  266loPI   C2B 4254   5.790   2.407  10.326 -0.1145  0.0144 -0.0624
  266loPI   C3B 4255   5.824   2.487   9.912 -0.1155 -0.0318 -0.0957
  266loPI   C4B 4256   5.780   2.624   9.508 -0.1247 -0.2901 -0.3567
  267loPI    C1 4257   5.753   3.741  11.725 -0.2026  0.1232 -0.0175
  267loPI    C2 4258   5.558   3.457  11.928  0.0056  0.0568  0.0930
  267loPI    C3 4259   5.583   3.828  12.077 -0.0491  0.0693  0.0712
  267loPI   PO4 4260   5.678   3.686  11.517  0.3000  0.1426 -0.2086
  267loPI   GL1 4261   5.624   3.451  11.161 -0.2382  0.0280 -0.1176
  267loPI   GL2 4262   5.933   3.521  11.074  0.1672  0.1072  0.2936
  267loPI   C1A 4263   5.499   3.148  10.776  0.0222 -0.0170 -0.0720
  267loPI   C2A 4264   5.289   3.169  10.469  0.3115  0.1484 -0.1841
  267loPI   C3A 4265   5.242   3.218  10.064  0.1493 -0.2352 -0.0500
  267loPI   C4A 4266   5.360   3.238   9.667 -0.1739 -0.1881  0.1379
  267loPI   C5A 4267   5.285   3.322   9.238  0.2132 -0.0230  0.4355
  267loPI   C6A 4268   5.006   3.069   8.957  0.0185  0.3508 -0.0108
  267loPI   C1B 4269   5.787   3.470  10.562  0.1358 -0.2710  0.1526
  267loPI   C2B 4270   5.668   3.494  10.154  0.0994  0.0840 -0.1059
  267loPI   C3B 4271   5.751   3.574   9.736  0.1533 -0.1526 -0.2781
  267loPI   C4B 4272   5.747   3.699   9.284 -0.0032  0.0851 -0.0400
  268loPI    C1 4273   6.749   0.269  11.546 -0.0329 -0.0357  0.0007
  268loPI    C2 4274   6.532  -0.052  11.446  0.1579 -0.2542  0.2706
  268loPI    C3 4275   6.439   0.159  11.773  0.0820 -0.0789  0.1380
  268loPI   PO4 4276   6.734   0.441  11.345  0.0524  0.4368  0.0101
  268loPI   GL1 4277   6.572   0.347  10.919 -0.1230  0.2452  0.1061
  268loPI   GL2 4278   6.351   0.174  10.982  0.0330  0.2577  0.2408
  268loPI   C1A 4279   6.486   0.348  10.467 -0.0137  0.0076 -0.0150
  268loPI   C2A 4280   6.445   0.311  10.047 -0.2691 -0.0028 -0.0362
  268loPI   C3A 4281   6.429   0.284   9.672 -0.4415  0.1640  0.0740
  268loPI   C4A 4282   6.373   0.211   9.258 -0.0196 -0.1465  0.0100
  268loPI   C5A 4283   6.560   0.379   8.871  0.1395 -0.1641  0.0916
  268loPI   C6A 4284   6.422   0.547   8.560 -0.0324 -0.0587  0.2143
  268loPI   C1B 4285   6.331  -0.155  10.564  0.0055  0.0387 -0.0919
  268loPI   C2B 4286   6.165  -0.129  10.182 -0.3202  0.4555 -0.1296
  268loPI   C3B 4287   6.021  -0.099   9.742 -0.0468 -0.3725  0.1524
  268loPI   C4B 4288   5.836  -0.073   9.312  0.2229 -0.2009 -0.1285
  269loPI    C1 4289   4.929   5.369  11.721  0.0692 -0.1708  0.1600
  269loPI    C2 4290   4.963   5.743  11.858 -0.0764 -0.1279  0.0808
  269loPI    C3 4291   5.279   5.561  11.695 -0.0324 -0.0014  0.0234
  269loPI   PO4 4292   4.767   5.402  11.579 -0.2512  0.0031  0.1435
  269loPI   GL1 4293   4.592   5.431  11.199  0.1377  0.0270 -0.1129
  269loPI   GL2 4294   4.719   5.612  10.944  0.0091 -0.0221  0.0863
  269loPI   C1A 4295   4.380   5.238  11.004  0.1762 -0.1971  0.0424
  269loPI   C2A 4296   4.272   5.280  10.601 -0.2858  0.1990 -0.1895
  269loPI   C3A 4297   4.240   5.210  10.134  0.0202 -0.1629 -0.0300
  269loPI   C4A 4298   4.345   5.295   9.714  0.0098  0.0298  0.1041
  269loPI   C5A 4299   4.254   5.395   9.234  0.0640 -0.0816  0.0664
  269loPI   C6A 4300   4.382   5.654   8.955 -0.1690 -0.0107  0.1118
  269loPI   C1B 4301   4.690   5.503  10.514 -0.0107  0.0282  0.0567
  269loPI   C2B 4302   4.656   5.500  10.098  0.3922 -0.2323  0.2508
  269loPI   C3B 4303   4.717   5.568   9.708 -0.1275 -0.3056  0.2113
  269loPI   C4B 4304   4.692   5.828   9.303 -0.1036 -0.1139 -0.2051
  270loPI    C1 4305  16.148  11.865  11.727  0.0819  0.0542 -0.1753
  270loPI    C2 4306  16.362  12.135  11.932  0.0904  0.1039 -0.2492
  270loPI    C3 4307  16.093  11.907  12.121  0.0984  0.1495 -0.1828
  270loPI   PO4 4308  16.068  11.945  11.569 -0.0512 -0.1402  0.3331
  270loPI   GL1 4309  15.813  11.918  11.145  0.0111 -0.0483  0.0260
  270loPI   GL2 4310  15.584  11.752  11.007  0.0244  0.1961  0.0066
  270loPI   C1A 4311  16.064  12.035  10.821  0.0027 -0.1787  0.3340
  270loPI   C2A 4312  16.078  12.154  10.434  0.1731 -0.0061  0.2454
  270loPI   C3A 4313  16.181  12.268  10.020 -0.0716  0.0008 -0.2677
  270loPI   C4A 4314  16.241  12.300   9.621  0.0317 -0.0124  0.2167
  270loPI   C5A 4315  16.377  12.261   9.203 -0.0037 -0.0603  0.1013
  270loPI   C6A 4316  16.298  11.876   8.874  0.0826 -0.1411  0.0828
  270loPI   C1B 4317  15.732  11.777  10.591  0.0560  0.1705  0.0610
  270loPI   C2B 4318  15.775  11.796  10.232  0.4015  0.2053  0.3352
  270loPI   C3B 4319  15.766  11.949   9.770 -0.1758 -0.0298  0.0776
  270loPI   C4B 4320  15.828  12.080   9.289 -0.0820  0.0383  0.0619
  271loPI    C1 4321   7.969  15.402  11.875 -0.0565 -0.0935  0.1611
  271loPI    C2 4322   8.094  15.781  11.852 -0.1268 -0.0768  0.0486
  271loPI    C3 4323   8.040  15.610  12.209 -0.1634  0.0420  0.1003
  271loPI   PO4 4324   7.911  15.410  11.608 -0.4334  0.0773 -0.0302
  271loPI   GL1 4325   7.650  15.485  11.192 -0.1679 -0.0280 -0.2602
  271loPI   GL2 4326   7.750  15.752  11.176 -0.0393 -0.3028 -0.1041
  271loPI   C1A 4327   7.769  15.226  10.895  0.1368 -0.0816 -0.0777
  271loPI   C2A 4328   7.876  15.216  10.456  0.0233 -0.3764  0.0364
  271loPI   C3A 4329   7.857  15.253  10.035  0.1568  0.2108  0.1139
  271loPI   C4A 4330   7.745  15.193   9.689 -0.2019  0.0145  0.2339
  271loPI   C5A 4331   7.770  15.470   9.309 -0.0382 -0.0826  0.0821
  271loPI   C6A 4332   7.572  15.801   9.043  0.6848  0.3326 -0.0622
  271loPI   C1B 4333   7.683  15.679  10.679 -0.2355  0.1925 -0.0205
  271loPI   C2B 4334   7.625  15.679  10.336  0.2247  0.2725 -0.0364
  271loPI   C3B 4335   7.619  15.746   9.929 -0.0668 -0.1082 -0.0195
  271loPI   C4B 4336   7.658  15.957   9.567  0.2048 -0.1285 -0.2676
  272loPI    C1 4337  16.530   4.402  12.019 -0.2977  0.0594 -0.1572
  272loPI    C2 4338  16.131   4.419  11.991 -0.3046  0.0483 -0.0668
  272loPI    C3 4339  16.301   4.235  12.302 -0.2287 -0.1590 -0.2286
  272loPI   PO4 4340  16.676   4.639  11.799  0.3194  0.5265 -0.3037
  272loPI   GL1 4341  16.659   4.614  11.379 -0.1031 -0.1705 -0.0608
  272loPI   GL2 4342  16.706   5.021  11.324  0.1431  0.0683 -0.2330
  272loPI   C1A 4343  16.916   4.477  11.066 -0.4210  0.0402 -0.0153
  272loPI   C2A 4344  17.040   4.243  10.699  0.0258 -0.3117 -0.0637
  272loPI   C3A 4345  17.135   4.286  10.303 -0.1150  0.0543  0.3522
  272loPI   C4A 4346  17.268   4.446   9.971  0.2847  0.0742  0.0500
  272loPI   C5A 4347  17.266   4.592   9.576  0.3791  0.3539  0.1500
  272loPI   C6A 4348  17.473   4.616   9.158 -0.0241  0.2415  0.1352
  272loPI   C1B 4349  17.020   4.974  10.948 -0.1053 -0.4141  0.1451
  272loPI   C2B 4350  16.957   5.263  10.504  0.1896  0.0605  0.2551
  272loPI   C3B 4351  16.896   5.170  10.100  0.2892 -0.0196 -0.1227
  272loPI   C4B 4352  16.937   5.470   9.805  0.1728  0.0164 -0.0647
  273loPI    C1 4353   7.397   2.623  11.552  0.1529  0.1883  0.1080
  273loPI    C2 4354   7.344   2.286  11.761 -0.0850 -0.0041 -0.2525
  273loPI    C3 4355   7.249   2.639  11.924 -0.0579 -0.1295  0.0413
  273loPI   PO4 4356   7.266   2.530  11.309 -0.0626  0.2001 -0.0663
  273loPI   GL1 4357   7.377   2.470  10.972  0.2178 -0.0663  0.0106
  273loPI   GL2 4358   7.303   2.853  10.887 -0.4694 -0.0029  0.1709
  273loPI   C1A 4359   7.311   2.334  10.543 -0.2325 -0.1879  0.2361
  273loPI   C2A 4360   7.210   2.377  10.102 -0.3346  0.1706 -0.2261
  273loPI   C3A 4361   7.266   2.409   9.724 -0.3813 -0.0192  0.4385
  273loPI   C4A 4362   7.142   2.475   9.346  0.1144 -0.2016 -0.0166
  273loPI   C5A 4363   6.920   2.882   9.079 -0.1229  0.5439  0.1915
  273loPI   C6A 4364   6.497   2.966   8.972 -0.1179  0.0733 -0.1078
  273loPI   C1B 4365   7.145   2.920  10.480  0.0888 -0.1063  0.1739
  273loPI   C2B 4366   7.116   2.870  10.031 -0.0901  0.0453  0.1406
  273loPI   C3B 4367   7.102   2.926   9.571  0.1013 -0.1888  0.0367
  273loPI   C4B 4368   7.398   2.864   9.230  0.3684 -0.0262 -0.0130
  274loPI    C1 4369   3.123  15.450  12.088 -0.2310 -0.1204 -0.1164
  274loPI    C2 4370   2.954  15.403  12.447  0.0673 -0.1303  0.0247
  274loPI    C3 4371   3.237  15.681  12.394 -0.0970 -0.0113 -0.2471
  274loPI   PO4 4372   2.891  15.255  11.917  0.1585  0.2357  0.3784
  274loPI   GL1 4373   2.728  15.354  11.512  0.1408 -0.1211 -0.1281
  274loPI   GL2 4374   2.518  15.620  11.639  0.4160  0.2082  0.0397
  274loPI   C1A 4375   2.777  15.438  11.174 -0.2007 -0.1153 -0.0912
  274loPI   C2A 4376   2.742  15.569  10.705  0.2365 -0.1427  0.1330
  274loPI   C3A 4377   2.739  15.578  10.251  0.2156  0.0635 -0.1639
  274loPI   C4A 4378   2.785  15.598   9.752  0.2098  0.0774  0.0548
  274loPI   C5A 4379   3.142  15.413   9.521  0.0711 -0.1612 -0.1742
  274loPI   C6A 4380   3.411  15.398   9.311 -0.1331  0.0088  0.0065
  274loPI   C1B 4381   2.233  15.721  11.367 -0.4805  0.1107 -0.1955
  274loPI   C2B 4382   2.247  15.689  10.977  0.0399 -0.0786 -0.0217
  274loPI   C3B 4383   2.249  15.807  10.499  0.1783  0.0201  0.1482
  274loPI   C4B 4384   2.251  15.754  10.096 -0.0630 -0.0204  0.0717
  275loPI    C1 4385   5.183   0.832  11.982  0.2024 -0.1256 -0.1079
  275loPI    C2 4386   4.897   0.561  11.910 -0.0362  0.0773  0.0540
  275loPI    C3 4387   5.027   0.619  12.284  0.0711  0.1312  0.0088
  275loPI   PO4 4388   5.066   1.022  11.755  0.0572 -0.0646 -0.1033
  275loPI   GL1 4389   4.844   1.359  11.436  0.0391 -0.1370 -0.0684
  275loPI   GL2 4390   4.629   1.615  11.356 -0.1059  0.1514  0.0142
  275loPI   C1A 4391   4.985   1.345  10.932  0.0903 -0.2192  0.0851
  275loPI   C2A 4392   5.053   1.354  10.459 -0.0670 -0.0569  0.1142
  275loPI   C3A 4393   5.049   1.338  10.044 -0.0853 -0.1638  0.0323
  275loPI   C4A 4394   5.084   1.461   9.661  0.0286  0.1203  0.0515
  275loPI   C5A 4395   5.057   1.508   9.163  0.3205 -0.3220  0.1231
  275loPI   C6A 4396   5.059   1.324   8.710  0.4168  0.0630 -0.1919
  275loPI   C1B 4397   4.566   1.598  10.912  0.0910  0.1096  0.0430
  275loPI   C2B 4398   4.561   1.523  10.449  0.0232 -0.1877  0.1053
  275loPI   C3B 4399   4.612   1.582   9.897 -0.1567 -0.0548 -0.2468
  275loPI   C4B 4400   4.645   1.622   9.439 -0.0756  0.0727 -0.0920
  276loPI    C1 4401   4.498   1.282  12.009 -0.2369  0.2131  0.2196
  276loPI    C2 4402   4.846   1.436  12.133 -0.0376  0.0244 -0.0880
  276loPI    C3 4403   4.760   1.052  12.207 -0.2467  0.1069  0.1107
  276loPI   PO4 4404   4.488   1.344  11.762  0.2533 -0.2123 -0.1227
  276loPI   GL1 4405   4.278   1.281  11.384 -0.0072  0.1114  0.0858
  276loPI   GL2 4406   4.525   1.047  11.175  0.1817 -0.0138 -0.0966
  276loPI   C1A 4407   4.109   1.338  10.968 -0.1336 -0.2103  0.1193
  276loPI   C2A 4408   4.036   1.227  10.511  0.1402 -0.3401 -0.1208
  276loPI   C3A 4409   4.195   1.316  10.075  0.0308  0.2026  0.0409
  276loPI   C4A 4410   4.183   1.257   9.699 -0.1513  0.2538 -0.2120
  276loPI   C5A 4411   4.150   1.329   9.188 -0.0071  0.1412 -0.2217
  276loPI   C6A 4412   4.534   1.298   8.928 -0.0707  0.1245 -0.0767
  276loPI   C1B 4413   4.462   1.066  10.761 -0.1439  0.2082  0.0290
  276loPI   C2B 4414   4.649   1.044  10.268  0.0396  0.1090 -0.1409
  276loPI   C3B 4415   4.639   1.010   9.807  0.0067  0.1985  0.0019
  276loPI   C4B 4416   4.500   0.911   9.351 -0.1766 -0.0335  0.2609
  277loPI    C1 4417  14.184   6.187  11.537  0.0181 -0.1806 -0.0175
  277loPI    C2 4418  13.880   6.384  11.707  0.1021 -0.0036 -0.0700
  277loPI    C3 4419  13.961   6.008  11.816  0.2103  0.1359  0.3479
  277loPI   PO4 4420  14.134   6.317  11.239 -0.1718  0.0020 -0.1945
  277loPI   GL1 4421  14.281   6.610  10.973  0.0827 -0.1295 -0.0621
  277loPI   GL2 4422  14.274   6.941  10.999  0.0037  0.2470 -0.1888
  277loPI   C1A 4423  14.539   6.385  10.676 -0.1548 -0.2163 -0.1943
  277loPI   C2A 4424  14.576   6.390  10.293  0.0937 -0.0064 -0.1179
  277loPI   C3A 4425  14.554   6.291   9.862  0.3073  0.0451  0.2079
  277loPI   C4A 4426  14.565   6.272   9.478  0.0821  0.0450 -0.4207
  277loPI   C5A 4427  14.702   6.163   9.029  0.1634  0.3068  0.2468
  277loPI   C6A 4428  14.936   5.805   8.906  0.3455 -0.0558  0.0666
  277loPI   C1B 4429  14.464   6.900  10.581 -0.0827 -0.2603 -0.2108
  277loPI   C2B 4430  14.371   6.867  10.147  0.2332 -0.1045  0.1370
  277loPI   C3B 4431  14.570   6.860   9.814 -0.0880  0.2080 -0.0122
  277loPI   C4B 4432  14.617   6.860   9.498  0.1348 -0.2520 -0.0087
  278loPI    C1 4433   4.657  12.896  11.685  0.0495  0.0179  0.0529
  278loPI    C2 4434   4.770  13.062  12.031 -0.1673  0.0257  0.1218
  278loPI    C3 4435   4.532  12.741  12.032 -0.1362  0.0015 -0.0200
  278loPI   PO4 4436   4.529  13.115  11.561  0.0822  0.1899 -0.2598
  278loPI   GL1 4437   4.299  13.191  11.253 -0.2795  0.2369  0.2401
  278loPI   GL2 4438   4.427  13.438  11.071 -0.1055 -0.0093  0.1350
  278loPI   C1A 4439   3.999  13.091  10.959 -0.1581  0.1865 -0.0774
  278loPI   C2A 4440   3.948  13.134  10.474  0.0240  0.1164 -0.1447
  278loPI   C3A 4441   3.953  13.019  10.107 -0.0066 -0.1568  0.0375
  278loPI   C4A 4442   3.960  13.033   9.615  0.2259 -0.1486 -0.0359
  278loPI   C5A 4443   3.646  13.005   9.359 -0.0574 -0.1335  0.0246
  278loPI   C6A 4444   3.393  12.719   9.275  0.0590 -0.0360 -0.2103
  278loPI   C1B 4445   4.330  13.433  10.704  0.0265  0.2838  0.1635
  278loPI   C2B 4446   4.426  13.372  10.237 -0.0172  0.3472  0.1214
  278loPI   C3B 4447   4.415  13.306   9.706 -0.2958 -0.3022 -0.1063
  278loPI   C4B 4448   4.369  13.273   9.279 -0.0246  0.1495  0.0100
  279loPI    C1 4449  13.754   0.120  11.465 -0.0467  0.4083  0.1658
  279loPI    C2 4450  13.696  -0.221  11.667 -0.1547  0.2054 -0.1995
  279loPI    C3 4451  13.982   0.033  11.782 -0.1095  0.0196  0.1099
  279loPI   PO4 4452  13.823  -0.054  11.162  0.0999  0.1122  0.4591
  279loPI   GL1 4453  14.042  -0.327  10.918  0.2039  0.2173  0.0028
  279loPI   GL2 4454  14.219  -0.128  10.770  0.2289  0.1092 -0.1062
  279loPI   C1A 4455  13.873  -0.433  10.564 -0.3403  0.0600  0.0665
  279loPI   C2A 4456  14.008  -0.527  10.196  0.0139 -0.4761  0.0559
  279loPI   C3A 4457  13.928  -0.500   9.811  0.0618  0.0069  0.1073
  279loPI   C4A 4458  13.887  -0.398   9.389 -0.1114  0.2498  0.0910
  279loPI   C5A 4459  13.860  -0.151   8.987 -0.0116 -0.1650 -0.1384
  279loPI   C6A 4460  13.758   0.313   8.897 -0.0517 -0.2086 -0.1939
  279loPI   C1B 4461  14.289  -0.163  10.334  0.2467  0.2975 -0.2459
  279loPI   C2B 4462  14.367  -0.188   9.930 -0.3256  0.3928  0.0942
  279loPI   C3B 4463  14.604  -0.133   9.630 -0.1352 -0.1279  0.1242
  279loPI   C4B 4464  14.781  -0.104   9.291  0.1955  0.2938 -0.0217
  280loPI    C1 4465  10.833   1.500  11.080  0.0403 -0.3341  0.0067
  280loPI    C2 4466  11.056   1.261  11.311  0.3038 -0.3356 -0.2430
  280loPI    C3 4467  11.214   1.594  11.156 -0.0223 -0.0632 -0.0063
  280loPI   PO4 4468  10.682   1.315  10.940  0.0244  0.2214  0.2801
  280loPI   GL1 4469  10.605   1.294  10.466  0.0794  0.0547  0.3843
  280loPI   GL2 4470  10.826   1.253  10.398  0.1246 -0.0581  0.0363
  280loPI   C1A 4471  10.457   1.360  10.057  0.0277  0.0630 -0.1781
  280loPI   C2A 4472  10.483   1.266   9.710  0.2360 -0.0672  0.1064
  280loPI   C3A 4473  10.421   1.417   9.362 -0.0036  0.0624  0.1065
  280loPI   C4A 4474  10.564   1.378   8.982  0.2013  0.2248  0.2448
  280loPI   C5A 4475  10.501   1.253   8.513 -0.1740  0.1985  0.1051
  280loPI   C6A 4476  10.213   1.413   8.229 -0.1090 -0.1030  0.1195
  280loPI   C1B 4477  10.875   0.987  10.140  0.3307 -0.1396  0.1218
  280loPI   C2B 4478  10.811   0.847   9.734 -0.0053 -0.2141 -0.1382
  280loPI   C3B 4479  10.685   1.005   9.287  0.2061  0.1261  0.3059
  280loPI   C4B 4480  10.691   0.910   8.887 -0.0503  0.2730 -0.0431
  281loPI    C1 4481   8.778   3.157  11.222  0.1629  0.1819  0.0018
  281loPI    C2 4482   8.780   2.900  11.528  0.2998  0.0498 -0.1090
  281loPI    C3 4483   8.763   3.293  11.598 -0.1520  0.0064  0.0565
  281loPI   PO4 4484   8.917   3.005  11.049  0.1935 -0.0144  0.1494
  281loPI   GL1 4485   9.119   2.715  10.708 -0.0176 -0.2698 -0.0839
  281loPI   GL2 4486   8.778   2.681  10.658 -0.0946 -0.0856 -0.1274
  281loPI   C1A 4487   9.148   2.723  10.240  0.1520  0.2547  0.0276
  281loPI   C2A 4488   9.145   2.736   9.770 -0.0598 -0.0516 -0.0788
  281loPI   C3A 4489   9.020   2.732   9.357 -0.0892 -0.2300  0.1769
  281loPI   C4A 4490   8.740   2.793   8.860 -0.2045  0.1115 -0.0021
  281loPI   C5A 4491   8.521   3.057   8.581  0.1221  0.1396  0.0966
  281loPI   C6A 4492   8.270   3.441   8.491  0.5882 -0.3883 -0.1281
  281loPI   C1B 4493   8.644   2.874  10.273 -0.1102 -0.3285 -0.0012
  281loPI   C2B 4494   8.624   2.816   9.811  0.0322 -0.0796  0.2322
  281loPI   C3B 4495   8.537   2.873   9.309  0.0936 -0.0928  0.0142
  281loPI   C4B 4496   8.222   3.079   9.055  0.1396  0.1731 -0.0433
  282loPI    C1 4497   6.052   4.410  11.790 -0.0571 -0.1583 -0.0802
  282loPI    C2 4498   6.409   4.589  11.819 -0.0992 -0.0966  0.0648
  282loPI    C3 4499   6.155   4.596  12.128 -0.1695 -0.2628  0.0121
  282loPI   PO4 4500   5.979   4.558  11.560 -0.2814  0.3772  0.2333
  282loPI   GL1 4501   5.954   4.507  11.092 -0.1691 -0.0054  0.2024
  282loPI   GL2 4502   6.174   4.379  11.014 -0.1785  0.2670  0.2731
  282loPI   C1A 4503   5.712   4.553  10.692 -0.4145  0.0682  0.0248
  282loPI   C2A 4504   5.658   4.601  10.292  0.4861  0.0052 -0.0172
  282loPI   C3A 4505   5.650   4.603   9.845  0.1841  0.0725 -0.0228
  282loPI   C4A 4506   5.640   4.689   9.482 -0.1022 -0.3690 -0.2706
  282loPI   C5A 4507   5.531   4.691   9.010 -0.0169  0.1637  0.2249
  282loPI   C6A 4508   5.228   4.793   8.678  0.2114  0.0396 -0.0790
  282loPI   C1B 4509   6.144   4.313  10.636  0.1011  0.0779  0.2764
  282loPI   C2B 4510   6.208   4.297  10.207  0.2771  0.0800  0.0373
  282loPI   C3B 4511   6.105   4.328   9.781  0.0458 -0.1194  0.2660
  282loPI   C4B 4512   6.097   4.485   9.465 -0.0237  0.1684 -0.0254
  283loPI    C1 4513   5.903  13.179  11.592  0.0666 -0.2556 -0.1207
  283loPI    C2 4514   6.118  13.164  11.929  0.0505 -0.1418 -0.1048
  283loPI    C3 4515   6.291  13.084  11.578  0.1780  0.1747 -0.1173
  283loPI   PO4 4516   5.656  13.006  11.648 -0.1885  0.1533  0.1700
  283loPI   GL1 4517   5.329  13.068  11.338  0.0636  0.0570 -0.1740
  283loPI   GL2 4518   5.633  13.129  11.160  0.0238 -0.1170 -0.2431
  283loPI   C1A 4519   5.284  12.845  10.885 -0.2812 -0.0641 -0.1164
  283loPI   C2A 4520   5.273  12.870  10.521 -0.2928 -0.1909  0.1961
  283loPI   C3A 4521   5.548  12.966  10.113 -0.1456 -0.2196 -0.0535
  283loPI   C4A 4522   5.828  12.650   9.794  0.0408 -0.1407  0.0386
  283loPI   C5A 4523   5.855  12.334   9.415  0.0647  0.0966 -0.2205
  283loPI   C6A 4524   5.883  12.013   9.126  0.2113  0.1190 -0.2497
  283loPI   C1B 4525   5.724  13.139  10.673 -0.3232 -0.1096  0.0906
  283loPI   C2B 4526   5.974  13.261  10.373  0.0543  0.0806  0.0734
  283loPI   C3B 4527   5.843  13.333   9.909 -0.2236  0.0521  0.0098
  283loPI   C4B 4528   5.903  13.127   9.543 -0.0075 -0.3304 -0.1429
  284loPI    C1 4529  10.778  10.835  11.848 -0.1673 -0.0847  0.0538
  284loPI    C2 4530  10.622  11.028  12.161 -0.0940  0.1344 -0.0424
  284loPI    C3 4531  10.990  10.873  12.185 -0.0832  0.1629 -0.0249
  284loPI   PO4 4532  10.672  10.985  11.663  0.2695 -0.1826  0.1252
  284loPI   GL1 4533  10.548  10.993  11.150  0.1139 -0.3691 -0.4192
  284loPI   GL2 4534  10.292  11.133  11.347 -0.1381 -0.1523  0.2968
  284loPI   C1A 4535  10.596  11.132  10.745  0.1790 -0.2177  0.1562
  284loPI   C2A 4536  10.559  11.094  10.318  0.0290 -0.2512  0.4190
  284loPI   C3A 4537  10.500  11.099   9.962 -0.2258  0.2045  0.1732
  284loPI   C4A 4538  10.391  11.147   9.557  0.2970 -0.0488  0.3134
  284loPI   C5A 4539  10.159  11.285   9.162  0.0740  0.2332 -0.1825
  284loPI   C6A 4540   9.919  11.521   8.834  0.0637  0.2583  0.1380
  284loPI   C1B 4541  10.140  11.248  10.943  0.1755 -0.2867  0.4240
  284loPI   C2B 4542  10.112  11.335  10.496 -0.0839 -0.0243  0.1377
  284loPI   C3B 4543  10.080  11.285  10.062  0.0225  0.2822  0.3335
  284loPI   C4B 4544   9.907  11.223   9.628 -0.0842 -0.0505  0.0110
  285loPI    C1 4545  12.421  11.811  11.809  0.2911 -0.0847  0.1992
  285loPI    C2 4546  12.220  12.152  11.861  0.1614 -0.1769  0.3099
  285loPI    C3 4547  12.616  12.145  11.911  0.1763 -0.0240  0.2220
  285loPI   PO4 4548  12.359  11.724  11.571 -0.2592  0.0031  0.0951
  285loPI   GL1 4549  12.109  11.732  11.112 -0.1435  0.0507 -0.1250
  285loPI   GL2 4550  12.279  11.971  11.000  0.0510  0.1901 -0.2147
  285loPI   C1A 4551  11.920  11.646  10.760  0.1441 -0.0246  0.0377
  285loPI   C2A 4552  11.950  11.595  10.297 -0.0158  0.1893  0.0564
  285loPI   C3A 4553  11.874  11.702   9.838  0.0195 -0.3115  0.0646
  285loPI   C4A 4554  11.841  11.729   9.445  0.0550  0.1783  0.1167
  285loPI   C5A 4555  12.041  11.760   9.170 -0.1041  0.2328  0.0452
  285loPI   C6A 4556  12.306  11.518   8.865  0.1156  0.0119 -0.0425
  285loPI   C1B 4557  12.244  11.956  10.547  0.1482  0.2181 -0.1120
  285loPI   C2B 4558  12.275  11.948  10.063  0.0752 -0.3654 -0.0577
  285loPI   C3B 4559  12.260  12.067   9.595 -0.0842  0.0968 -0.0248
  285loPI   C4B 4560  12.413  12.089   9.224 -0.1582  0.0746  0.0047
  286loPI    C1 4561  11.158   0.803  11.167  0.1431  0.1054 -0.1155
  286loPI    C2 4562  11.342   0.511  11.369  0.1387  0.2099  0.0412
  286loPI    C3 4563  11.393   0.892  11.478  0.1105  0.2652 -0.1358
  286loPI   PO4 4564  11.297   0.736  10.912  0.4451  0.1800 -0.2197
  286loPI   GL1 4565  11.392   0.682  10.545  0.0368  0.0505 -0.2496
  286loPI   GL2 4566  11.290   0.945  10.411 -0.4765 -0.1774  0.3050
  286loPI   C1A 4567  11.708   0.606  10.189 -0.1730  0.2623  0.1199
  286loPI   C2A 4568  11.701   0.593   9.758  0.0295 -0.1194  0.0996
  286loPI   C3A 4569  11.572   0.592   9.320 -0.1989  0.1509 -0.0776
  286loPI   C4A 4570  11.653   0.422   8.967 -0.3157 -0.0810  0.2289
  286loPI   C5A 4571  11.810   0.316   8.535  0.4072  0.0376 -0.2953
  286loPI   C6A 4572  11.772   0.054   8.197  0.0078  0.1702 -0.1264
  286loPI   C1B 4573  11.422   1.025  10.040  0.0948  0.0058  0.1838
  286loPI   C2B 4574  11.395   0.986   9.575  0.0534 -0.3130 -0.2534
  286loPI   C3B 4575  11.146   0.912   9.271 -0.1551 -0.1410  0.3807
  286loPI   C4B 4576  11.211   0.660   8.924  0.1370  0.2792  0.2365
  287loPI    C1 4577  10.802   2.316  10.798 -0.0055  0.0164  0.0714
  287loPI    C2 4578  11.082   2.416  11.066 -0.0101  0.0464  0.0652
  287loPI    C3 4579  10.820   2.125  11.149 -0.1054  0.1566  0.1538
  287loPI   PO4 4580  10.883   2.328  10.568  0.2154  0.1545 -0.3734
  287loPI   GL1 4581  10.582   2.207  10.328 -0.0481 -0.1520  0.2408
  287loPI   GL2 4582  10.723   1.790  10.282 -0.1090  0.1400 -0.1550
  287loPI   C1A 4583  10.532   2.143   9.999  0.3162  0.1098 -0.0245
  287loPI   C2A 4584  10.700   2.262   9.619 -0.0918 -0.0228 -0.0484
  287loPI   C3A 4585  10.661   2.352   9.210 -0.0517  0.0557 -0.0648
  287loPI   C4A 4586  10.760   2.363   8.821 -0.0387  0.4563  0.0435
  287loPI   C5A 4587  10.539   2.088   8.508 -0.0174 -0.0591  0.1795
  287loPI   C6A 4588  10.243   1.936   8.209  0.1213 -0.2566 -0.1746
  287loPI   C1B 4589  10.717   1.735   9.783 -0.0496  0.0527  0.1388
  287loPI   C2B 4590  10.681   1.885   9.317 -0.1316  0.1662  0.1234
  287loPI   C3B 4591  10.630   1.917   8.971 -0.0870 -0.3152  0.1955
  287loPI   C4B 4592  10.319   1.693   8.669  0.1753  0.2782  0.2162
  288loPI    C1 4593  12.633   9.891  11.300 -0.1891 -0.1789  0.1818
  288loPI    C2 4594  12.996  10.044  11.371 -0.0528 -0.3511 -0.1250
  288loPI    C3 4595  12.845   9.766  11.616 -0.1461 -0.0017  0.2241
  288loPI   PO4 4596  12.612   9.867  11.100  0.2085 -0.2067 -0.1764
  288loPI   GL1 4597  12.733   9.450  10.820  0.1247  0.2705 -0.0774
  288loPI   GL2 4598  12.880   9.166  10.807 -0.2768  0.0410  0.0364
  288loPI   C1A 4599  12.893   9.650  10.450 -0.2425 -0.0086  0.0079
  288loPI   C2A 4600  13.186   9.705  10.189  0.1173  0.1963  0.0356
  288loPI   C3A 4601  13.209   9.830   9.790 -0.1078  0.2246 -0.1873
  288loPI   C4A 4602  13.137   9.934   9.414  0.0062  0.3157 -0.2409
  288loPI   C5A 4603  13.154   9.877   9.016 -0.0790 -0.2733  0.0744
  288loPI   C6A 4604  12.940   9.578   8.690 -0.1670  0.2424 -0.3313
  288loPI   C1B 4605  12.925   9.146  10.344 -0.1208 -0.1258 -0.1607
  288loPI   C2B 4606  12.933   9.092   9.931 -0.0280 -0.1983  0.1469
  288loPI   C3B 4607  12.928   9.083   9.535  0.0435  0.0302  0.1310
  288loPI   C4B 4608  12.993   9.237   9.148  0.0576 -0.3195  0.0474
  289loPI    C1 4609  11.773  15.269  11.462 -0.2615 -0.0163 -0.0165
  289loPI    C2 4610  12.122  15.093  11.550 -0.1245  0.1298 -0.2577
  289loPI    C3 4611  11.778  14.924  11.665  0.0212 -0.0654 -0.1024
  289loPI   PO4 4612  11.812  15.304  11.095  0.2471  0.0554  0.0040
  289loPI   GL1 4613  12.002  15.103  10.786 -0.0040  0.0190  0.1315
  289loPI   GL2 4614  12.283  15.115  10.692  0.0053  0.0619 -0.2754
  289loPI   C1A 4615  11.701  15.247  10.432 -0.0615 -0.0389 -0.2484
  289loPI   C2A 4616  11.780  15.245   9.975 -0.0640  0.2139  0.0869
  289loPI   C3A 4617  11.860  15.057   9.549 -0.1332 -0.0578 -0.0876
  289loPI   C4A 4618  11.796  15.017   9.139 -0.1093 -0.0340  0.2052
  289loPI   C5A 4619  11.680  14.790   8.836  0.0734 -0.1238  0.1344
  289loPI   C6A 4620  11.775  14.551   8.584 -0.4924 -0.3171 -0.1925
  289loPI   C1B 4621  12.161  15.073  10.300  0.1923 -0.0595  0.1593
  289loPI   C2B 4622  12.274  14.948   9.857  0.0126 -0.0933 -0.1686
  289loPI   C3B 4623  12.332  14.883   9.417 -0.2619  0.0587 -0.3946
  289loPI   C4B 4624  12.212  14.775   8.986 -0.2151  0.2385  0.3232
  290loPI    C1 4625  16.840   5.545  11.711  0.1072  0.0265 -0.0442
  290loPI    C2 4626  16.636   5.240  11.870 -0.0454  0.1488 -0.0036
  290loPI    C3 4627  16.805   5.512  12.108  0.0615  0.1152 -0.0408
  290loPI   PO4 4628  16.973   5.386  11.469 -0.0290  0.1070  0.0695
  290loPI   GL1 4629  16.961   5.614  11.052  0.2330  0.0139 -0.1782
  290loPI   GL2 4630  16.938   5.798  11.198 -0.3507  0.1841 -0.2872
  290loPI   C1A 4631  16.616   5.300  10.815 -0.2707 -0.0410  0.0333
  290loPI   C2A 4632  16.465   5.084  10.453  0.0233  0.3713 -0.1842
  290loPI   C3A 4633  16.417   5.096  10.013 -0.2305 -0.2436 -0.0310
  290loPI   C4A 4634  16.479   5.224   9.578 -0.0825 -0.1645  0.0253
  290loPI   C5A 4635  16.388   5.285   9.108  0.2093 -0.0597  0.1558
  290loPI   C6A 4636  16.221   5.627   8.902 -0.1939 -0.0331  0.2553
  290loPI   C1B 4637  17.185   6.062  10.915  0.3140 -0.1957 -0.0286
  290loPI   C2B 4638  17.334   6.098  10.498  0.3648  0.0013  0.0924
  290loPI   C3B 4639  17.362   6.096  10.045 -0.1471 -0.1027  0.0577
  290loPI   C4B 4640  17.369   6.285   9.673 -0.2898  0.0257  0.2756
  291loPI    C1 4641  10.604  14.451  11.345 -0.0412  0.2533  0.0063
  291loPI    C2 4642  10.242  14.280  11.354 -0.0445  0.2638  0.0715
  291loPI    C3 4643  10.477  14.271  11.678  0.2118 -0.1691 -0.1183
  291loPI   PO4 4644  10.591  14.750  11.218  0.1918 -0.0315 -0.3259
  291loPI   GL1 4645  10.519  14.942  10.738  0.0969  0.0600 -0.1870
  291loPI   GL2 4646  10.846  14.823  10.781 -0.2478  0.1593  0.0954
  291loPI   C1A 4647  10.574  14.722  10.311  0.2336 -0.1919 -0.0050
  291loPI   C2A 4648  10.543  14.711   9.891  0.1765  0.1626  0.1813
  291loPI   C3A 4649  10.468  14.728   9.447 -0.1961  0.0417 -0.3093
  291loPI   C4A 4650  10.186  14.894   9.279 -0.0083  0.0098 -0.0020
  291loPI   C5A 4651  10.135  14.877   8.860 -0.0992  0.0933 -0.2119
  291loPI   C6A 4652  10.162  14.499   8.536  0.1468  0.0341 -0.1216
  291loPI   C1B 4653  11.012  14.482  10.505  0.1204  0.0121  0.2273
  291loPI   C2B 4654  10.952  14.458  10.053 -0.0631 -0.1332  0.1099
  291loPI   C3B 4655  11.005  14.485   9.602 -0.0441 -0.3533 -0.2113
  291loPI   C4B 4656  10.910  14.467   9.159 -0.0180 -0.3357  0.2936
  292loPI    C1 4657  15.900  10.532  11.623  0.2042 -0.1846 -0.0142
  292loPI    C2 4658  15.985  10.710  11.971  0.2312 -0.1617 -0.0324
  292loPI    C3 4659  15.893  10.320  11.962  0.0327 -0.1176  0.0254
  292loPI   PO4 4660  16.115  10.539  11.433 -0.2191 -0.0187  0.1052
  292loPI   GL1 4661  15.990  10.558  11.003 -0.1570 -0.2074  0.2719
  292loPI   GL2 4662  16.277  10.577  10.807 -0.0853 -0.2078 -0.3817
  292loPI   C1A 4663  15.834  10.699  10.655  0.1586 -0.0263 -0.2438
  292loPI   C2A 4664  15.835  10.815  10.298  0.1731 -0.2026  0.2425
  292loPI   C3A 4665  15.842  10.855   9.848  0.4305  0.0094 -0.1339
  292loPI   C4A 4666  15.847  10.950   9.465 -0.0804  0.2166 -0.1219
  292loPI   C5A 4667  16.128  10.904   9.183 -0.0457 -0.0411  0.2880
  292loPI   C6A 4668  16.431  10.684   8.850  0.1037 -0.3975  0.0613
  292loPI   C1B 4669  16.227  10.491  10.431 -0.0912 -0.2834 -0.1130
  292loPI   C2B 4670  16.174  10.447  10.027 -0.0040 -0.0884 -0.3148
  292loPI   C3B 4671  16.225  10.338   9.733 -0.0378  0.1275  0.0533
  292loPI   C4B 4672  16.286  10.411   9.297 -0.0191 -0.0512  0.1275
  293loPI    C1 4673   3.973   9.561  12.068  0.2247 -0.1059 -0.0504
  293loPI    C2 4674   3.871   9.929  12.188  0.0210 -0.1251 -0.1611
  293loPI    C3 4675   4.244   9.796  12.245  0.0737  0.0685 -0.0483
  293loPI   PO4 4676   3.863   9.604  11.807 -0.2437  0.2385 -0.0840
  293loPI   GL1 4677   3.983   9.617  11.455  0.1992  0.2767  0.0721
  293loPI   GL2 4678   4.016   9.931  11.249  0.0407 -0.0940 -0.1845
  293loPI   C1A 4679   4.046   9.517  10.977  0.0227 -0.1490 -0.1838
  293loPI   C2A 4680   4.000   9.508  10.527  0.0574 -0.1261 -0.0555
  293loPI   C3A 4681   3.864   9.641  10.116  0.3566  0.1459  0.2879
  293loPI   C4A 4682   3.801   9.628   9.690  0.4258  0.0061  0.1403
  293loPI   C5A 4683   4.147   9.806   9.284 -0.0760 -0.1486  0.2173
  293loPI   C6A 4684   4.172   9.592   8.866 -0.0860 -0.0191 -0.1297
  293loPI   C1B 4685   3.932   9.953  10.751  0.1437 -0.2804 -0.2451
  293loPI   C2B 4686   3.796  10.128  10.373  0.1059 -0.1167 -0.0871
  293loPI   C3B 4687   3.765  10.113   9.905 -0.3535 -0.2286  0.3656
  293loPI   C4B 4688   3.646  10.091   9.442 -0.1191 -0.0155 -0.0727
  294loPI    C1 4689   5.470  11.129  12.008 -0.0138  0.1173 -0.0119
  294loPI    C2 4690   5.145  10.896  12.020 -0.0173  0.1272  0.0941
  294loPI    C3 4691   5.297  11.045  12.358 -0.1612  0.4819  0.0068
  294loPI   PO4 4692   5.428  11.218  11.691  0.1764  0.1970 -0.0609
  294loPI   GL1 4693   5.698  11.319  11.350 -0.2247  0.1724  0.1968
  294loPI   GL2 4694   5.724  10.975  11.229  0.3737 -0.1128 -0.1993
  294loPI   C1A 4695   5.512  11.390  10.968  0.0265  0.2365 -0.4243
  294loPI   C2A 4696   5.481  11.396  10.543 -0.0263 -0.0402 -0.2346
  294loPI   C3A 4697   5.510  11.359  10.157  0.3639 -0.0701 -0.0718
  294loPI   C4A 4698   5.450  11.274   9.589 -0.0810 -0.1023 -0.0267
  294loPI   C5A 4699   5.205  11.153   9.156  0.0337  0.0609 -0.0755
  294loPI   C6A 4700   4.852  10.934   9.038 -0.2062  0.0711  0.1272
  294loPI   C1B 4701   5.686  10.872  10.806  0.0628  0.3903  0.1446
  294loPI   C2B 4702   5.688  10.771  10.361  0.0494 -0.0661 -0.0726
  294loPI   C3B 4703   5.607  10.895   9.979  0.0583 -0.2612  0.1554
  294loPI   C4B 4704   5.468  10.766   9.569  0.0335  0.0650 -0.2387
  295loPI    C1 4705   5.740  14.849  11.431 -0.1469  0.0828  0.0400
  295loPI    C2 4706   5.918  14.932  11.779  0.1748 -0.0684 -0.0842
  295loPI    C3 4707   5.519  14.939  11.752  0.1496  0.0378  0.2610
  295loPI   PO4 4708   5.873  14.984  11.261  0.3196  0.1015  0.1597
  295loPI   GL1 4709   6.141  15.029  10.846  0.0492  0.1779 -0.1137
  295loPI   GL2 4710   6.337  14.869  10.750  0.0290  0.1860 -0.1071
  295loPI   C1A 4711   5.992  15.028  10.432  0.3545 -0.0154  0.2683
  295loPI   C2A 4712   5.965  15.217   9.969 -0.0300  0.0033 -0.0878
  295loPI   C3A 4713   5.876  15.059   9.560 -0.0784  0.0660 -0.0961
  295loPI   C4A 4714   5.647  15.149   9.182  0.1472  0.1413 -0.1618
  295loPI   C5A 4715   5.244  15.066   9.167 -0.0406 -0.2633  0.1726
  295loPI   C6A 4716   4.894  14.896   9.409 -0.2817 -0.0421  0.0346
  295loPI   C1B 4717   6.504  14.707  10.443 -0.2044  0.0613  0.0409
  295loPI   C2B 4718   6.608  14.456  10.210 -0.0306  0.0567  0.0006
  295loPI   C3B 4719   6.506  14.281   9.815 -0.0246  0.0205 -0.4089
  295loPI   C4B 4720   6.513  14.050   9.477  0.0375 -0.2855  0.1346
  296loPI    C1 4721   3.097   0.751  11.972 -0.0352 -0.0442  0.1940
  296loPI    C2 4722   2.934   0.546  12.274  0.0057 -0.0732  0.1964
  296loPI    C3 4723   2.918   0.946  12.272 -0.0389 -0.0748  0.2117
  296loPI   PO4 4724   3.052   0.578  11.715 -0.0864 -0.3118 -0.1413
  296loPI   GL1 4725   2.971   0.452  11.312 -0.1500 -0.1380 -0.1101
  296loPI   GL2 4726   3.096   0.208  11.406 -0.0597 -0.1765  0.0615
  296loPI   C1A 4727   2.876   0.710  10.881  0.2694  0.0548  0.1897
  296loPI   C2A 4728   2.812   0.684  10.432 -0.0091 -0.0233  0.1502
  296loPI   C3A 4729   2.828   0.776  10.029 -0.2244  0.0908  0.2465
  296loPI   C4A 4730   2.845   1.081   9.672 -0.2539 -0.2343 -0.0655
  296loPI   C5A 4731   2.520   1.388   9.500  0.0268  0.0053 -0.0430
  296loPI   C6A 4732   2.259   1.649   9.361  0.2772  0.2981 -0.0474
  296loPI   C1B 4733   3.036   0.177  10.916 -0.3187 -0.1075  0.2240
  296loPI   C2B 4734   2.997   0.201  10.463 -0.3132  0.2534 -0.0121
  296loPI   C3B 4735   2.883   0.225  10.093 -0.0395 -0.1945  0.0550
  296loPI   C4B 4736   2.893   0.346   9.681  0.1330 -0.1056 -0.2880
  297loPI    C1 4737   7.321   4.565  11.397 -0.2530 -0.0295 -0.0382
  297loPI    C2 4738   7.124   4.218  11.369 -0.0663 -0.1610  0.2288
  297loPI    C3 4739   7.223   4.363  11.728 -0.3193  0.2733  0.1306
  297loPI   PO4 4740   7.208   4.753  11.239  0.0523 -0.1855  0.1384
  297loPI   GL1 4741   6.957   4.506  10.976  0.0098 -0.0426  0.0513
  297loPI   GL2 4742   6.620   4.532  10.880  0.1522  0.0688 -0.1444
  297loPI   C1A 4743   7.008   4.351  10.644 -0.2709  0.1010  0.0469
  297loPI   C2A 4744   7.034   4.341  10.194  0.0469 -0.0925  0.1381
  297loPI   C3A 4745   6.948   4.387   9.824 -0.2014 -0.2458  0.2734
  297loPI   C4A 4746   6.958   4.455   9.439 -0.0195 -0.1062 -0.1243
  297loPI   C5A 4747   7.061   4.529   9.074  0.0623  0.0406 -0.1323
  297loPI   C6A 4748   7.134   4.621   8.686 -0.1315 -0.0638 -0.0764
  297loPI   C1B 4749   6.565   4.568  10.492 -0.0049 -0.0563 -0.1060
  297loPI   C2B 4750   6.584   4.597  10.118 -0.0071 -0.0312 -0.0795
  297loPI   C3B 4751   6.542   4.591   9.652  0.2075  0.4513 -0.0588
  297loPI   C4B 4752   6.539   4.693   9.198 -0.1733 -0.2418  0.0268
  298loPI    C1 4753  11.598   4.219  10.844  0.1716 -0.3532  0.1875
  298loPI    C2 4754  11.308   4.266  11.115  0.1420 -0.1202  0.1175
  298loPI    C3 4755  11.361   3.911  10.938 -0.0543 -0.1834  0.1823
  298loPI   PO4 4756  11.563   4.373  10.705  0.0188  0.0531 -0.0891
  298loPI   GL1 4757  11.396   4.411  10.358 -0.1807  0.0348 -0.3998
  298loPI   GL2 4758  11.622   4.648  10.304 -0.1767 -0.0319 -0.3387
  298loPI   C1A 4759  11.049   4.403  10.110  0.0788 -0.2302 -0.1901
  298loPI   C2A 4760  11.051   4.447   9.739 -0.3660 -0.1978  0.1295
  298loPI   C3A 4761  11.091   4.531   9.277 -0.1594  0.1229  0.2378
  298loPI   C4A 4762  11.082   4.747   8.905  0.0234 -0.1750 -0.1731
  298loPI   C5A 4763  11.156   5.087   8.586  0.3116 -0.1534 -0.2574
  298loPI   C6A 4764  11.122   5.469   8.894 -0.1496  0.0567 -0.1634
  298loPI   C1B 4765  11.364   4.805  10.025 -0.2523  0.1912  0.1781
  298loPI   C2B 4766  11.282   4.906   9.568 -0.4184 -0.2506 -0.1298
  298loPI   C3B 4767  11.041   5.013   9.338  0.0184  0.1316 -0.1101
  298loPI   C4B 4768  10.805   5.113   8.951  0.0351 -0.0003  0.1100
  299loPI    C1 4769   9.839   5.352  11.437 -0.0272  0.2249 -0.0394
  299loPI    C2 4770   9.781   5.092  11.735  0.0984  0.1306 -0.0963
  299loPI    C3 4771   9.911   5.462  11.815  0.2944  0.0523 -0.0471
  299loPI   PO4 4772   9.655   5.276  11.271 -0.1396 -0.0615  0.3423
  299loPI   GL1 4773   9.623   5.072  10.855 -0.1394 -0.1851 -0.4416
  299loPI   GL2 4774   9.647   5.367  10.694  0.2309  0.2901  0.0845
  299loPI   C1A 4775   9.313   5.199  10.437 -0.4665 -0.0266  0.0255
  299loPI   C2A 4776   9.365   5.454  10.112  0.1613 -0.1726 -0.3953
  299loPI   C3A 4777   9.290   5.493   9.679 -0.1192 -0.1404 -0.0596
  299loPI   C4A 4778   9.191   5.564   9.332  0.1758 -0.1177 -0.1352
  299loPI   C5A 4779   9.291   5.680   8.885 -0.0162  0.4614  0.1561
  299loPI   C6A 4780   9.507   5.766   8.474 -0.0278 -0.0481 -0.0538
  299loPI   C1B 4781   9.793   5.207  10.255 -0.0064 -0.1404 -0.2715
  299loPI   C2B 4782   9.699   5.114   9.730 -0.0585 -0.0212 -0.0212
  299loPI   C3B 4783   9.666   5.288   9.325  0.0021  0.0747  0.3699
  299loPI   C4B 4784   9.777   5.324   8.878 -0.3809 -0.1458 -0.0055
  300loPI    C1 4785   4.993  15.753  11.832  0.2098  0.1339 -0.0598
  300loPI    C2 4786   4.732  15.690  12.128  0.1581 -0.2083 -0.1728
  300loPI    C3 4787   5.051  15.923  12.189 -0.0280 -0.0056  0.0483
  300loPI   PO4 4788   4.879  15.782  11.628  0.2149  0.0360  0.0038
  300loPI   GL1 4789   4.757  15.689  11.279 -0.1910 -0.2456 -0.3605
  300loPI   GL2 4790   5.027  15.464  11.124 -0.0864  0.1069  0.1833
  300loPI   C1A 4791   4.677  15.848  10.901  0.4094 -0.0073  0.0574
  300loPI   C2A 4792   4.589  15.880  10.541  0.0876  0.0151 -0.2073
  300loPI   C3A 4793   4.553  15.765  10.130  0.1700  0.1973  0.1109
  300loPI   C4A 4794   4.495  15.795   9.740 -0.0613  0.0083 -0.0695
  300loPI   C5A 4795   4.385  15.851   9.311 -0.0326  0.0183  0.0742
  300loPI   C6A 4796   4.200  16.104   8.907  0.3316 -0.3187 -0.2363
  300loPI   C1B 4797   5.093  15.503  10.706 -0.1824 -0.3200 -0.0560
  300loPI   C2B 4798   5.079  15.659  10.260 -0.1332  0.2325 -0.0755
  300loPI   C3B 4799   4.964  15.596   9.871  0.0506 -0.1059 -0.1823
  300loPI   C4B 4800   4.879  15.368   9.525  0.1814  0.0098  0.0106
  301loPI    C1 4801  14.455  17.146  11.715 -0.2028 -0.0596 -0.0674
  301loPI    C2 4802  14.580  17.081  12.090 -0.0250  0.0821 -0.1009
  301loPI    C3 4803  14.565  17.454  11.946 -0.4344  0.0632 -0.1175
  301loPI   PO4 4804  14.652  16.978  11.543 -0.1621 -0.0916  0.1942
  301loPI   GL1 4805  14.590  16.829  11.124 -0.1343  0.1046  0.1525
  301loPI   GL2 4806  14.525  16.580  10.981  0.0980  0.2420  0.1502
  301loPI   C1A 4807  14.853  16.812  10.716 -0.0107  0.0583 -0.1562
  301loPI   C2A 4808  14.828  16.803  10.244 -0.0693 -0.0623 -0.0029
  301loPI   C3A 4809  14.991  16.837   9.851  0.1266 -0.0622  0.0438
  301loPI   C4A 4810  15.280  16.923   9.594  0.1691  0.1310  0.1303
  301loPI   C5A 4811  15.720  17.115   9.422  0.2426  0.1828 -0.0267
  301loPI   C6A 4812  15.739  17.430   9.030  0.1773 -0.3926 -0.1120
  301loPI   C1B 4813  14.342  16.552  10.578  0.0720 -0.3764 -0.1554
  301loPI   C2B 4814  14.446  16.459  10.086  0.0639  0.1071  0.1689
  301loPI   C3B 4815  14.359  16.523   9.618 -0.1731 -0.1840 -0.0968
  301loPI   C4B 4816  14.359  16.777   9.183 -0.1063  0.0437  0.0525
  302loPI    C1 4817  15.720   8.868  11.586 -0.0146  0.0767  0.2292
  302loPI    C2 4818  15.677   9.237  11.734 -0.1395  0.0898  0.1624
  302loPI    C3 4819  15.375   8.976  11.758 -0.1840  0.1117 -0.1237
  302loPI   PO4 4820  15.842   8.849  11.385 -0.0581 -0.0864 -0.2256
  302loPI   GL1 4821  15.801   8.719  10.966 -0.2393  0.4181  0.0596
  302loPI   GL2 4822  15.871   9.022  10.851 -0.0348  0.1798 -0.1291
  302loPI   C1A 4823  15.751   8.417  10.593  0.1217  0.2743  0.0332
  302loPI   C2A 4824  15.801   8.390  10.117 -0.0326 -0.2726  0.2603
  302loPI   C3A 4825  15.787   8.429   9.716  0.0121 -0.1003  0.0675
  302loPI   C4A 4826  15.592   8.376   9.358  0.1684 -0.0048  0.1077
  302loPI   C5A 4827  15.793   8.403   8.982 -0.2335 -0.2671 -0.3673
  302loPI   C6A 4828  15.922   8.105   8.720  0.0988  0.3015  0.2239
  302loPI   C1B 4829  15.732   8.883  10.436 -0.1089  0.3968 -0.2172
  302loPI   C2B 4830  15.710   8.907   9.933 -0.2624  0.3368 -0.2067
  302loPI   C3B 4831  15.633   8.890   9.488 -0.0094 -0.0836 -0.3543
  302loPI   C4B 4832  15.606   8.842   9.066  0.0158 -0.0202 -0.0558
  303loPI    C1 4833   0.728   5.963  11.631 -0.1091 -0.1647 -0.0857
  303loPI    C2 4834   0.876   5.653  11.835  0.1437 -0.0410 -0.0780
  303loPI    C3 4835   0.493   5.757  11.880  0.1315 -0.1736  0.1376
  303loPI   PO4 4836   0.988   6.149  11.644  0.0585  0.1671 -0.0683
  303loPI   GL1 4837   1.129   6.326  11.258 -0.2102 -0.1459  0.2079
  303loPI   GL2 4838   1.384   6.547  11.238  0.1582 -0.0522 -0.0225
  303loPI   C1A 4839   0.952   6.257  10.879  0.1655  0.3756 -0.2221
  303loPI   C2A 4840   1.005   6.183  10.490  0.2230  0.0285 -0.3380
  303loPI   C3A 4841   1.035   6.316  10.071 -0.1086  0.0477 -0.3418
  303loPI   C4A 4842   1.021   6.369   9.662  0.1068  0.2141 -0.1483
  303loPI   C5A 4843   1.023   6.383   9.213 -0.3460 -0.1060 -0.3929
  303loPI   C6A 4844   1.286   6.491   8.962 -0.0972  0.0229  0.1584
  303loPI   C1B 4845   1.434   6.535  10.782  0.2050  0.0231  0.0541
  303loPI   C2B 4846   1.472   6.562  10.274 -0.0746 -0.1220  0.4596
  303loPI   C3B 4847   1.418   6.614   9.903  0.0768  0.3137  0.3494
  303loPI   C4B 4848   1.506   6.645   9.419  0.3186 -0.0149  0.1277
  304loPI    C1 4849  14.258  12.643  11.366 -0.0136 -0.1009  0.0421
  304loPI    C2 4850  14.508  12.569  11.669  0.0842 -0.1486 -0.0495
  304loPI    C3 4851  14.164  12.761  11.737  0.1647 -0.0444  0.0705
  304loPI   PO4 4852  14.302  12.579  11.207 -0.2572  0.1168 -0.2473
  304loPI   GL1 4853  14.534  12.485  10.908  0.0847  0.1150  0.2353
  304loPI   GL2 4854  14.567  12.168  10.817 -0.2753  0.0280 -0.0951
  304loPI   C1A 4855  14.592  12.671  10.459  0.2799 -0.3870  0.3241
  304loPI   C2A 4856  14.689  12.835   9.994 -0.1226 -0.1979  0.2250
  304loPI   C3A 4857  14.750  12.921   9.608  0.1719 -0.2260  0.2563
  304loPI   C4A 4858  14.986  13.083   9.254  0.3547 -0.3315 -0.0086
  304loPI   C5A 4859  15.374  13.090   9.172  0.1126  0.0022  0.0439
  304loPI   C6A 4860  15.816  12.857   9.261  0.2693 -0.0812 -0.1120
  304loPI   C1B 4861  14.491  12.194  10.422 -0.0084 -0.0300  0.1014
  304loPI   C2B 4862  14.431  12.349  10.056  0.0812  0.3351 -0.0058
  304loPI   C3B 4863  14.379  12.563   9.719 -0.3217 -0.1832 -0.4059
  304loPI   C4B 4864  14.385  12.523   9.266  0.1001  0.1037  0.2884
  305loPI    C1 4865  13.750  10.500  11.550  0.1710  0.0932  0.1540
  305loPI    C2 4866  13.420  10.281  11.497  0.2705 -0.0280  0.0276
  305loPI    C3 4867  13.586  10.308  11.860  0.1672 -0.0315  0.0755
  305loPI   PO4 4868  13.620  10.735  11.356 -0.0520 -0.0345 -0.1201
  305loPI   GL1 4869  13.457  10.965  10.952 -0.1516  0.1934 -0.2285
  305loPI   GL2 4870  13.714  10.729  10.846 -0.4431 -0.1306  0.1800
  305loPI   C1A 4871  13.432  11.133  10.503 -0.0063 -0.4802 -0.3075
  305loPI   C2A 4872  13.386  11.043  10.082  0.0690  0.0610 -0.0532
  305loPI   C3A 4873  13.082  10.849   9.778 -0.0145 -0.1484 -0.3047
  305loPI   C4A 4874  13.108  10.821   9.289 -0.0332  0.0140 -0.0275
  305loPI   C5A 4875  13.414  10.841   9.010 -0.0777 -0.2605 -0.1446
  305loPI   C6A 4876  13.714  10.572   8.874  0.0749  0.2744 -0.1245
  305loPI   C1B 4877  13.908  10.986  10.585 -0.0801 -0.0504 -0.2365
  305loPI   C2B 4878  13.818  10.908  10.187 -0.4016  0.2809  0.1463
  305loPI   C3B 4879  13.540  10.632   9.891 -0.1157  0.0115  0.2257
  305loPI   C4B 4880  13.502  10.570   9.440  0.3291 -0.0257 -0.0978
  306loPI    C1 4881   0.844   3.699  11.758  0.3060 -0.2457 -0.0142
  306loPI    C2 4882   0.754   3.329  11.879  0.1323 -0.2657 -0.1987
  306loPI    C3 4883   1.006   3.554  12.093 -0.1715 -0.2959  0.2027
  306loPI   PO4 4884   0.812   3.695  11.478 -0.1640  0.3043  0.0458
  306loPI   GL1 4885   0.655   3.684  11.158  0.1824 -0.1569  0.0199
  306loPI   GL2 4886   0.742   3.384  11.029  0.0342 -0.1450  0.0985
  306loPI   C1A 4887   0.675   3.811  10.661  0.1702  0.1836 -0.1452
  306loPI   C2A 4888   0.756   3.724  10.348 -0.0594 -0.0112  0.1237
  306loPI   C3A 4889   0.775   3.704   9.946  0.1762 -0.0005  0.0618
  306loPI   C4A 4890   0.814   3.789   9.517 -0.0174 -0.0440 -0.0106
  306loPI   C5A 4891   0.600   3.526   9.224  0.1826 -0.0234  0.0450
  306loPI   C6A 4892   0.206   3.680   9.167 -0.2741 -0.2660 -0.1571
  306loPI   C1B 4893   0.723   3.308  10.688 -0.0925  0.2290 -0.0923
  306loPI   C2B 4894   0.802   3.262  10.278  0.1542 -0.0995  0.1462
  306loPI   C3B 4895   0.749   3.222   9.887  0.1655 -0.0619 -0.1041
  306loPI   C4B 4896   0.903   3.197   9.449 -0.0310 -0.0207  0.3023
  307loPI    C1 4897   3.419  11.915  11.814 -0.1984  0.0571  0.1412
  307loPI    C2 4898   3.743  12.049  12.006  0.1239 -0.2700 -0.1585
  307loPI    C3 4899   3.401  11.992  12.206  0.2744 -0.0134  0.1823
  307loPI   PO4 4900   3.508  11.700  11.678  0.2715 -0.5231  0.1455
  307loPI   GL1 4901   3.402  11.520  11.447  0.2118  0.0659  0.3319
  307loPI   GL2 4902   3.130  11.422  11.233  0.2936  0.0784  0.0551
  307loPI   C1A 4903   3.708  11.547  11.107 -0.2712  0.3667 -0.0911
  307loPI   C2A 4904   3.685  11.611  10.712  0.0540 -0.1362 -0.0102
  307loPI   C3A 4905   3.623  11.636  10.309  0.0758  0.1082  0.0338
  307loPI   C4A 4906   3.678  11.793   9.944 -0.3117 -0.0183  0.1358
  307loPI   C5A 4907   3.602  11.888   9.535 -0.0606  0.1404  0.0940
  307loPI   C6A 4908   3.452  12.239   9.321  0.3897  0.0386  0.0116
  307loPI   C1B 4909   3.303  11.349  10.857 -0.0288 -0.1021 -0.2118
  307loPI   C2B 4910   3.222  11.299  10.365 -0.4631 -0.2987  0.0634
  307loPI   C3B 4911   3.218  11.418   9.952 -0.0451  0.0515 -0.0719
  307loPI   C4B 4912   3.217  11.531   9.488 -0.2356  0.1361  0.0148
  308loPI    C1 4913   8.744  11.794  11.496 -0.0268  0.0590 -0.1806
  308loPI    C2 4914   8.457  11.744  11.770  0.1003 -0.1996 -0.0912
  308loPI    C3 4915   8.754  12.004  11.836  0.0373 -0.1354 -0.0601
  308loPI   PO4 4916   8.658  11.824  11.210 -0.0511  0.0551  0.1369
  308loPI   GL1 4917   8.856  11.745  10.842  0.1598 -0.0957  0.0300
  308loPI   GL2 4918   9.065  11.628  10.747  0.1482 -0.5024 -0.1490
  308loPI   C1A 4919   8.947  12.056  10.564 -0.2428  0.1729  0.1400
  308loPI   C2A 4920   9.017  12.080  10.169 -0.2037 -0.0202 -0.0658
  308loPI   C3A 4921   9.010  12.170   9.764 -0.1485  0.2329 -0.0881
  308loPI   C4A 4922   8.991  12.366   9.503 -0.0231 -0.2973 -0.0773
  308loPI   C5A 4923   8.771  12.466   9.164 -0.0301 -0.2470 -0.1398
  308loPI   C6A 4924   8.712  12.346   8.733 -0.1722 -0.0726 -0.1504
  308loPI   C1B 4925   9.095  11.600  10.316 -0.1921  0.2393 -0.3239
  308loPI   C2B 4926   9.060  11.639   9.902 -0.1257  0.2199  0.0903
  308loPI   C3B 4927   8.989  11.730   9.442 -0.0095  0.0166  0.2266
  308loPI   C4B 4928   9.225  11.691   9.074 -0.0215  0.0184 -0.0759
  309loPI    C1 4929   0.140  15.087  12.321 -0.2819 -0.2972 -0.1384
  309loPI    C2 4930   0.302  14.739  12.430  0.3571  0.0225 -0.0204
  309loPI    C3 4931   0.266  15.035  12.697 -0.1695  0.0586 -0.1223
  309loPI   PO4 4932   0.040  15.011  12.084 -0.0861 -0.1185 -0.0784
  309loPI   GL1 4933   0.034  14.808  11.749 -0.1646  0.0771  0.1804
  309loPI   GL2 4934   0.139  14.424  11.706  0.0173 -0.0915 -0.1166
  309loPI   C1A 4935   0.033  14.786  11.268  0.4904 -0.0741  0.1724
  309loPI   C2A 4936   0.051  14.765  10.832 -0.2595  0.3405 -0.2075
  309loPI   C3A 4937   0.059  14.730  10.459  0.0461  0.1613 -0.1339
  309loPI   C4A 4938   0.077  14.749  10.015  0.1193  0.0140 -0.2492
  309loPI   C5A 4939   0.061  14.616   9.665  0.1331  0.1273 -0.0349
  309loPI   C6A 4940   0.155  14.607   9.201  0.1811 -0.1647 -0.0861
  309loPI   C1B 4941   0.181  14.342  11.227 -0.1726 -0.1453 -0.0251
  309loPI   C2B 4942   0.154  14.232  10.831 -0.1469  0.0130  0.2310
  309loPI   C3B 4943   0.065  14.278  10.326 -0.2036  0.1688 -0.0574
  309loPI   C4B 4944   0.203  14.200   9.878  0.0735 -0.1478 -0.1206
  310loPI    C1 4945  14.392  12.117  11.517  0.2567 -0.2020  0.0323
  310loPI    C2 4946  14.230  12.174  11.878  0.1058 -0.1597 -0.0413
  310loPI    C3 4947  14.627  12.137  11.840  0.1305 -0.0681  0.1171
  310loPI   PO4 4948  14.184  12.040  11.389 -0.0246  0.0396  0.2367
  310loPI   GL1 4949  13.886  12.061  11.034  0.2515 -0.0422 -0.1550
  310loPI   GL2 4950  14.054  12.272  10.837  0.0531 -0.1054 -0.0229
  310loPI   C1A 4951  13.707  11.905  10.704 -0.0483 -0.3107  0.0795
  310loPI   C2A 4952  13.666  11.896  10.216 -0.0986 -0.1613  0.0645
  310loPI   C3A 4953  13.566  11.915   9.784  0.0868 -0.2050 -0.0356
  310loPI   C4A 4954  13.340  11.857   9.402  0.0356  0.8476  0.0871
  310loPI   C5A 4955  13.287  12.075   9.011  0.1252  0.1930  0.0929
  310loPI   C6A 4956  13.378  12.629   8.912  0.0019  0.0645 -0.2775
  310loPI   C1B 4957  14.038  12.217  10.400 -0.0509 -0.0917  0.3375
  310loPI   C2B 4958  13.957  12.250   9.944  0.0185  0.0336  0.2089
  310loPI   C3B 4959  14.026  12.298   9.505 -0.0984  0.3753  0.0973
  310loPI   C4B 4960  13.935  12.147   9.067 -0.0288  0.0612 -0.1719
  311loPI    C1 4961   1.940  13.343  12.257  0.4160  0.0502 -0.0067
  311loPI    C2 4962   1.766  13.690  12.160  0.1545 -0.1301 -0.1973
  311loPI    C3 4963   1.896  13.628  12.533  0.0742  0.1184 -0.1268
  311loPI   PO4 4964   1.859  13.184  12.033  0.1869  0.4387  0.1662
  311loPI   GL1 4965   1.908  13.157  11.567  0.1913 -0.0156 -0.1841
  311loPI   GL2 4966   1.901  12.968  11.410  0.2923 -0.0301 -0.1564
  311loPI   C1A 4967   1.911  13.403  11.252 -0.1715 -0.2261  0.0047
  311loPI   C2A 4968   2.022  13.372  10.820 -0.0031  0.1397 -0.1636
  311loPI   C3A 4969   2.062  13.367  10.359  0.3071 -0.0073  0.3657
  311loPI   C4A 4970   2.105  13.364   9.949 -0.0992  0.2052  0.0608
  311loPI   C5A 4971   2.074  13.559   9.496 -0.2704 -0.2076  0.1781
  311loPI   C6A 4972   1.940  13.779   9.156  0.0244  0.0731  0.0807
  311loPI   C1B 4973   1.717  13.043  10.968 -0.1880 -0.0035  0.0677
  311loPI   C2B 4974   1.635  13.028  10.511 -0.1315  0.3329  0.1208
  311loPI   C3B 4975   1.701  13.026  10.047  0.1430 -0.1425 -0.2419
  311loPI   C4B 4976   1.952  12.999   9.585  0.2564  0.1698 -0.1271
  312loPI    C1 4977  15.771   2.862  11.569  0.1165  0.0948  0.1281
  312loPI    C2 4978  15.373   2.847  11.614  0.1215  0.1001  0.1754
  312loPI    C3 4979  15.598   3.037  11.885  0.1512  0.1464  0.1187
  312loPI   PO4 4980  15.807   2.673  11.416 -0.2495 -0.0860 -0.0145
  312loPI   GL1 4981  15.983   2.585  11.025 -0.1730 -0.3192  0.2297
  312loPI   GL2 4982  16.266   2.458  11.073  0.0218  0.2151  0.0780
  312loPI   C1A 4983  16.154   2.571  10.584  0.0205  0.1569  0.0615
  312loPI   C2A 4984  16.315   2.452  10.271 -0.1034  0.1685 -0.1963
  312loPI   C3A 4985  16.401   2.665   9.905 -0.0226 -0.0400 -0.2633
  312loPI   C4A 4986  16.443   2.646   9.423 -0.0446  0.0771  0.0670
  312loPI   C5A 4987  16.835   2.631   9.227 -0.3157 -0.2778  0.0778
  312loPI   C6A 4988  17.028   2.287   9.167  0.0984  0.0386  0.1464
  312loPI   C1B 4989  16.526   2.313  10.808 -0.0860 -0.1654  0.0071
  312loPI   C2B 4990  16.769   2.451  10.518  0.2629  0.1264 -0.0557
  312loPI   C3B 4991  16.789   2.352  10.081 -0.0239 -0.0712 -0.1440
  312loPI   C4B 4992  16.753   2.259   9.610 -0.1607 -0.0563  0.4647
  313loPI    C1 4993   0.971  14.290  11.973  0.1740 -0.0264  0.1289
  313loPI    C2 4994   0.931  14.677  11.880 -0.0273 -0.1118 -0.1554
  313loPI    C3 4995   1.164  14.567  12.186 -0.0012  0.2352 -0.0467
  313loPI   PO4 4996   0.838  14.187  11.760 -0.0667  0.0101  0.0625
  313loPI   GL1 4997   0.651  14.424  11.536 -0.1106 -0.1586 -0.1524
  313loPI   GL2 4998   0.472  14.705  11.510  0.0683  0.2597 -0.1331
  313loPI   C1A 4999   0.804  14.282  11.150  0.3818 -0.0073  0.0138
  313loPI   C2A 5000   0.988  14.226  10.790  0.1185  0.0763 -0.0007
  313loPI   C3A 5001   1.015  14.295  10.343 -0.1271 -0.0830 -0.0064
  313loPI   C4A 5002   1.008  14.270   9.968 -0.1180  0.3023  0.1419
  313loPI   C5A 5003   1.154  14.334   9.514 -0.0126 -0.1008 -0.0476
  313loPI   C6A 5004   1.511  14.204   9.340 -0.0826  0.2645 -0.2698
  313loPI   C1B 5005   0.520  14.672  11.043  0.4387  0.0858  0.2862
  313loPI   C2B 5006   0.503  14.467  10.588 -0.0296 -0.0981 -0.2074
  313loPI   C3B 5007   0.612  14.514  10.139  0.0356 -0.1979  0.0316
  313loPI   C4B 5008   0.640  14.377   9.692  0.4336 -0.1217 -0.1455
  314loPI    C1 5009  10.767  15.210  11.154  0.0192 -0.0917 -0.0068
  314loPI    C2 5010  10.906  15.043  11.490  0.0061 -0.0677  0.0104
  314loPI    C3 5011  10.570  15.261  11.498 -0.1332 -0.2769 -0.0648
  314loPI   PO4 5012  10.918  15.266  11.005  0.0400 -0.0481 -0.1989
  314loPI   GL1 5013  10.942  15.443  10.617 -0.0996  0.1578 -0.1542
  314loPI   GL2 5014  11.232  15.500  10.438  0.1106  0.1965 -0.0984
  314loPI   C1A 5015  10.778  15.181  10.366  0.0500 -0.2275 -0.0369
  314loPI   C2A 5016  10.822  15.106   9.943 -0.0982 -0.0308  0.1103
  314loPI   C3A 5017  10.929  14.956   9.587 -0.0820 -0.0734  0.0108
  314loPI   C4A 5018  10.894  15.009   9.111  0.0690 -0.1856  0.0502
  314loPI   C5A 5019  11.113  14.987   8.839 -0.0595 -0.0044 -0.0815
  314loPI   C6A 5020  11.282  14.792   8.390  0.3146  0.5253 -0.0336
  314loPI   C1B 5021  11.234  15.381  10.060 -0.0017 -0.1430 -0.0955
  314loPI   C2B 5022  11.309  15.284   9.678  0.1267  0.1430 -0.1881
  314loPI   C3B 5023  11.393  15.352   9.212 -0.2357  0.2509  0.1383
  314loPI   C4B 5024  11.603  15.340   8.790  0.0177  0.2979 -0.1287
  315loPI    C1 5025  16.034   9.975  11.458 -0.0274  0.1741 -0.0452
  315loPI    C2 5026  16.401  10.119  11.389  0.0307 -0.0012 -0.1083
  315loPI    C3 5027  16.318   9.941  11.737  0.0344 -0.0533 -0.1338
  315loPI   PO4 5028  15.939   9.801  11.315 -0.4003 -0.2777  0.1636
  315loPI   GL1 5029  16.106   9.606  10.934 -0.0365  0.0392  0.2415
  315loPI   GL2 5030  16.377   9.842  10.965  0.0687  0.0845 -0.1504
  315loPI   C1A 5031  16.195   9.297  10.624  0.2764  0.1549 -0.0754
  315loPI   C2A 5032  16.150   9.167  10.171  0.3498  0.0335  0.0231
  315loPI   C3A 5033  16.121   9.271   9.758 -0.3893  0.1343  0.1659
  315loPI   C4A 5034  16.056   9.192   9.363  0.1705  0.0640  0.5275
  315loPI   C5A 5035  15.743   9.417   9.120 -0.3269 -0.1006 -0.0830
  315loPI   C6A 5036  15.317   9.633   8.893  0.0016 -0.2554 -0.0373
  315loPI   C1B 5037  16.430   9.718  10.508  0.1470  0.2140 -0.2568
  315loPI   C2B 5038  16.461   9.587  10.052  0.0524 -0.0310 -0.3081
  315loPI   C3B 5039  16.508   9.539   9.571  0.0266  0.0587 -0.1895
  315loPI   C4B 5040  16.280   9.614   9.148 -0.0761  0.0713  0.0260
  316loPI    C1 5041   7.732  16.440  11.509  0.2198 -0.1763  0.0298
  316loPI    C2 5042   7.811  16.053  11.577  0.2851 -0.1641  0.0242
  316loPI    C3 5043   7.920  16.329  11.845  0.2148 -0.1520  0.0406
  316loPI   PO4 5044   7.713  16.492  11.262  0.0247 -0.1292  0.1434
  316loPI   GL1 5045   7.711  16.593  10.865  0.0125 -0.1817  0.0482
  316loPI   GL2 5046   7.554  16.813  10.893  0.0161  0.0186  0.0700
  316loPI   C1A 5047   7.997  16.562  10.523  0.0897 -0.1208 -0.2853
  316loPI   C2A 5048   7.930  16.547  10.122 -0.1760  0.2119  0.0993
  316loPI   C3A 5049   7.727  16.484   9.682 -0.2611 -0.0274 -0.0647
  316loPI   C4A 5050   7.771  16.655   9.234 -0.1786 -0.0680 -0.0031
  316loPI   C5A 5051   8.124  16.595   8.884  0.0864  0.0270  0.0216
  316loPI   C6A 5052   8.496  16.318   8.764 -0.1556 -0.2222 -0.0293
  316loPI   C1B 5053   7.535  16.713  10.461  0.1230  0.3951  0.5225
  316loPI   C2B 5054   7.478  16.803  10.023 -0.5533  0.0676 -0.0820
  316loPI   C3B 5055   7.311  16.813   9.593 -0.1822  0.0977 -0.2277
  316loPI   C4B 5056   7.230  16.856   9.223  0.1749  0.1739 -0.2791
  317loPI    C1 5057  16.248   2.831  11.701  0.0167 -0.0961  0.1224
  317loPI    C2 5058  16.083   3.100  11.947  0.1870 -0.0096  0.1434
  317loPI    C3 5059  16.455   2.970  12.013  0.2148 -0.0258 -0.0380
  317loPI   PO4 5060  16.277   2.858  11.472 -0.1959 -0.2073 -0.0618
  317loPI   GL1 5061  16.474   3.008  11.159  0.3434  0.0022 -0.2086
  317loPI   GL2 5062  16.738   2.846  11.160 -0.0146 -0.1104 -0.0796
  317loPI   C1A 5063  16.483   2.865  10.716 -0.0215 -0.0157 -0.1447
  317loPI   C2A 5064  16.662   2.964  10.230 -0.0906 -0.2362  0.2243
  317loPI   C3A 5065  16.887   2.813   9.808  0.1161 -0.0409  0.1231
  317loPI   C4A 5066  17.139   2.637   9.630  0.0157 -0.0071 -0.1232
  317loPI   C5A 5067  17.474   2.486   9.312  0.0914  0.0797  0.0436
  317loPI   C6A 5068  17.660   2.229   9.014  0.2684 -0.1539  0.2793
  317loPI   C1B 5069  16.963   2.999  10.718  0.0497  0.0405 -0.1536
  317loPI   C2B 5070  17.145   2.994  10.317  0.3173  0.3891  0.1551
  317loPI   C3B 5071  17.440   3.029   9.945 -0.0382 -0.3671  0.0029
  317loPI   C4B 5072  17.584   2.888   9.555 -0.0783  0.0348  0.0245
  318loPI    C1 5073   2.474  12.984  11.971  0.2101  0.3132 -0.1272
  318loPI    C2 5074   2.238  12.967  12.293 -0.0368  0.2963 -0.3058
  318loPI    C3 5075   2.559  12.729  12.267  0.0141  0.3338 -0.0519
  318loPI   PO4 5076   2.394  13.206  11.819  0.2833  0.1221 -0.2291
  318loPI   GL1 5077   2.531  13.340  11.510  0.1631 -0.1323 -0.0681
  318loPI   GL2 5078   2.716  12.969  11.543 -0.2842  0.2451  0.1792
  318loPI   C1A 5079   2.765  13.272  11.111  0.2010  0.1642  0.3320
  318loPI   C2A 5080   3.030  13.400  10.702  0.3815  0.1259  0.0289
  318loPI   C3A 5081   2.971  13.375  10.265 -0.1184 -0.0685 -0.1227
  318loPI   C4A 5082   3.039  13.503   9.888  0.0290  0.0342 -0.1267
  318loPI   C5A 5083   2.936  13.831   9.698  0.0567  0.0701 -0.2261
  318loPI   C6A 5084   2.902  14.126   9.355 -0.0597  0.1222  0.1912
  318loPI   C1B 5085   2.999  12.838  11.161  0.0562 -0.1297 -0.2188
  318loPI   C2B 5086   2.993  12.832  10.735  0.1771 -0.0025 -0.2277
  318loPI   C3B 5087   3.030  12.838  10.373 -0.0108 -0.1339  0.2767
  318loPI   C4B 5088   3.136  12.966  10.013  0.0447 -0.1183 -0.1748
  319loPI    C1 5089   1.717   5.619  11.618 -0.2825 -0.1825  0.0181
  319loPI    C2 5090   1.793   5.859  11.929  0.0698 -0.1386 -0.0975
  319loPI    C3 5091   1.416   5.760  11.840 -0.0471  0.0032  0.2257
  319loPI   PO4 5092   1.754   5.734  11.405  0.1393 -0.0784  0.3205
  319loPI   GL1 5093   2.048   5.782  11.023 -0.0849  0.0865  0.1570
  319loPI   GL2 5094   2.185   5.892  11.097 -0.0036 -0.0828  0.2328
  319loPI   C1A 5095   2.008   5.785  10.595  0.0899 -0.2268  0.0916
  319loPI   C2A 5096   1.952   5.701  10.207 -0.0730  0.3734 -0.1108
  319loPI   C3A 5097   1.940   5.832   9.871  0.0357 -0.0089  0.0867
  319loPI   C4A 5098   1.919   5.926   9.466 -0.0434  0.0759 -0.1157
  319loPI   C5A 5099   1.760   5.706   9.099  0.0056 -0.1325 -0.0062
  319loPI   C6A 5100   1.807   5.449   8.732  0.0161  0.0273  0.0852
  319loPI   C1B 5101   2.339   6.139  10.624  0.0429 -0.1288  0.0819
  319loPI   C2B 5102   2.294   6.088  10.185  0.0770  0.2017  0.0718
  319loPI   C3B 5103   2.438   6.078   9.791  0.0475 -0.4484 -0.0816
  319loPI   C4B 5104   2.430   6.245   9.351  0.0349 -0.0347 -0.0602
  320loPI    C1 5105   8.562  10.412  11.635  0.0741  0.0548 -0.0681
  320loPI    C2 5106   8.896  10.608  11.536  0.1636 -0.1582 -0.1942
  320loPI    C3 5107   8.914  10.300  11.790  0.0760 -0.2244 -0.2679
  320loPI   PO4 5108   8.342  10.637  11.574 -0.2906 -0.0286 -0.1263
  320loPI   GL1 5109   8.275  11.004  11.246 -0.0557  0.0360  0.0175
  320loPI   GL2 5110   8.016  10.912  11.378 -0.0536 -0.1627  0.0791
  320loPI   C1A 5111   8.217  11.037  10.809  0.3508  0.2324 -0.1026
  320loPI   C2A 5112   8.272  11.032  10.270 -0.3826  0.0930 -0.2741
  320loPI   C3A 5113   8.264  11.064   9.846 -0.2435 -0.1772 -0.6849
  320loPI   C4A 5114   8.156  10.997   9.489  0.1768 -0.0047  0.0182
  320loPI   C5A 5115   7.938  10.781   9.172 -0.2826  0.2165 -0.0078
  320loPI   C6A 5116   7.919  10.531   8.775  0.0152 -0.3614  0.2863
  320loPI   C1B 5117   7.830  10.768  11.017  0.0870  0.1942 -0.4087
  320loPI   C2B 5118   7.900  10.789  10.515  0.0185 -0.1435  0.0900
  320loPI   C3B 5119   7.921  10.759  10.097 -0.1828  0.1101  0.0983
  320loPI   C4B 5120   7.796  10.627   9.691  0.1194 -0.1264 -0.5206
  321loPI    C1 5121  16.233   1.588  11.573  0.0414 -0.1594  0.0668
  321loPI    C2 5122  16.360   1.636  11.949 -0.2750 -0.0684  0.1658
  321loPI    C3 5123  16.176   1.298  11.842 -0.0405 -0.1614  0.0476
  321loPI   PO4 5124  16.155   1.860  11.451 -0.3184  0.0160  0.0472
  321loPI   GL1 5125  15.992   2.009  11.012  0.2465  0.0391 -0.0477
  321loPI   GL2 5126  16.006   1.712  11.031 -0.0206 -0.0766 -0.0992
  321loPI   C1A 5127  16.072   2.100  10.724 -0.1017 -0.0995  0.0578
  321loPI   C2A 5128  16.248   1.957  10.379  0.2818  0.0125  0.0895
  321loPI   C3A 5129  16.288   2.002   9.945 -0.2848  0.0205  0.0113
  321loPI   C4A 5130  16.264   2.129   9.515 -0.2458  0.2739 -0.1872
  321loPI   C5A 5131  16.500   2.179   9.150  0.0522  0.1831  0.0307
  321loPI   C6A 5132  16.720   1.903   8.914  0.0108 -0.0083 -0.2684
  321loPI   C1B 5133  16.162   1.540  10.641 -0.2239 -0.0305  0.2327
  321loPI   C2B 5134  16.297   1.489  10.260 -0.2132  0.0297 -0.0307
  321loPI   C3B 5135  16.365   1.455   9.900 -0.1238 -0.2875  0.3653
  321loPI   C4B 5136  16.432   1.627   9.461 -0.2668  0.2959 -0.3708
  322loPI    C1 5137  12.840  13.837  11.800 -0.0332  0.0563 -0.1026
  322loPI    C2 5138  12.666  13.942  12.144 -0.0894  0.1071 -0.1464
  322loPI    C3 5139  12.779  13.563  12.085 -0.0312  0.1094 -0.0511
  322loPI   PO4 5140  12.675  14.001  11.611  0.1142  0.0829 -0.0102
  322loPI   GL1 5141  12.690  14.115  11.137 -0.0031  0.3292  0.0426
  322loPI   GL2 5142  12.466  13.834  11.055  0.0746  0.3113  0.0755
  322loPI   C1A 5143  12.656  14.211  10.681 -0.1669  0.1081 -0.1531
  322loPI   C2A 5144  12.777  14.322  10.186 -0.2486  0.0889  0.0208
  322loPI   C3A 5145  12.815  14.255   9.782 -0.3025 -0.0896 -0.0084
  322loPI   C4A 5146  12.766  14.282   9.269  0.0497  0.2277  0.4589
  322loPI   C5A 5147  12.756  14.212   8.848 -0.2092  0.2530 -0.2369
  322loPI   C6A 5148  13.041  13.949   8.573  0.0280  0.1268 -0.0460
  322loPI   C1B 5149  12.323  13.867  10.659  0.2093  0.0655  0.2514
  322loPI   C2B 5150  12.361  13.915  10.225 -0.2387 -0.0726 -0.0882
  322loPI   C3B 5151  12.333  13.904   9.824  0.0412  0.1690 -0.0119
  322loPI   C4B 5152  12.358  13.920   9.381 -0.0566  0.0780  0.0569
  323loPI    C1 5153   5.346  13.555  11.640 -0.1071  0.0717  0.1002
  323loPI    C2 5154   5.575  13.385  11.921 -0.0437  0.0103  0.0121
  323loPI    C3 5155   5.464  13.768  11.958  0.0792  0.0426  0.0520
  323loPI   PO4 5156   5.058  13.324  11.650  0.3972 -0.2189 -0.1470
  323loPI   GL1 5157   4.777  13.515  11.392  0.2590 -0.1388 -0.0994
  323loPI   GL2 5158   4.870  13.254  11.223  0.0112 -0.1077  0.0516
  323loPI   C1A 5159   4.834  13.678  10.952  0.0644 -0.3538 -0.1455
  323loPI   C2A 5160   4.817  13.770  10.621  0.2773  0.0140  0.0474
  323loPI   C3A 5161   4.846  13.674  10.225 -0.2359 -0.3174 -0.1272
  323loPI   C4A 5162   4.835  13.393   9.902  0.2197  0.0575 -0.0561
  323loPI   C5A 5163   4.890  13.190   9.509  0.1669  0.1183  0.0010
  323loPI   C6A 5164   4.820  12.830   9.289 -0.0278 -0.2250 -0.3294
  323loPI   C1B 5165   4.826  13.165  10.788  0.2204 -0.2234 -0.0643
  323loPI   C2B 5166   4.840  13.105  10.354  0.0555  0.0066 -0.0968
  323loPI   C3B 5167   5.035  12.989  10.006  0.0685 -0.0708 -0.0921
  323loPI   C4B 5168   5.279  12.902   9.573  0.0741 -0.0862  0.1028
  324loPI    C1 5169  11.930  16.848  11.308 -0.0668  0.0139  0.0232
  324loPI    C2 5170  11.848  16.576  11.591 -0.1243  0.0193  0.0118
  324loPI    C3 5171  12.076  16.893  11.678 -0.2321  0.0784  0.0818
  324loPI   PO4 5172  11.732  16.925  11.144  0.2864  0.0606  0.0242
  324loPI   GL1 5173  11.592  16.910  10.716 -0.0504  0.0680 -0.0550
  324loPI   GL2 5174  11.446  16.624  10.752 -0.2891 -0.0952  0.0371
  324loPI   C1A 5175  11.647  16.824  10.298 -0.0149 -0.0788 -0.1485
  324loPI   C2A 5176  11.621  16.769   9.901  0.3668 -0.0261  0.1216
  324loPI   C3A 5177  11.620  16.744   9.502 -0.1279  0.2528  0.2455
  324loPI   C4A 5178  11.588  16.617   9.084  0.0083  0.2578  0.0923
  324loPI   C5A 5179  11.484  16.237   8.832 -0.0352  0.0900 -0.0645
  324loPI   C6A 5180  11.642  15.853   8.793  0.1991 -0.0421  0.3101
  324loPI   C1B 5181  11.243  16.536  10.441  0.1266  0.1410 -0.1311
  324loPI   C2B 5182  11.129  16.430  10.062  0.0385  0.1377  0.1537
  324loPI   C3B 5183  11.237  16.334   9.618 -0.2215 -0.0146  0.0521
  324loPI   C4B 5184  11.101  16.265   9.201 -0.1527  0.4492  0.3258
  325loPI    C1 5185   4.255   2.406  11.985 -0.0437 -0.0838  0.0001
  325loPI    C2 5186   4.009   2.624  11.757  0.2998  0.1462 -0.1605
  325loPI    C3 5187   3.922   2.562  12.143 -0.1022  0.0605 -0.2594
  325loPI   PO4 5188   4.378   2.248  11.858  0.1299 -0.0173 -0.3382
  325loPI   GL1 5189   4.423   2.100  11.546  0.2067  0.1203 -0.1114
  325loPI   GL2 5190   4.114   2.254  11.423  0.1345 -0.0851 -0.0936
  325loPI   C1A 5191   4.552   2.117  11.072 -0.0621 -0.2887  0.3907
  325loPI   C2A 5192   4.488   2.135  10.606  0.0457 -0.1072 -0.1515
  325loPI   C3A 5193   4.499   2.034  10.218  0.1677  0.1558  0.1717
  325loPI   C4A 5194   4.544   2.150   9.729 -0.2018 -0.1591 -0.1385
  325loPI   C5A 5195   4.475   2.311   9.384 -0.0257  0.0839 -0.0849
  325loPI   C6A 5196   4.166   2.352   9.109  0.2049 -0.1867  0.2172
  325loPI   C1B 5197   3.983   2.286  11.025 -0.1684  0.2657 -0.3463
  325loPI   C2B 5198   3.961   2.272  10.600  0.0612  0.0491  0.0550
  325loPI   C3B 5199   4.048   2.259  10.116 -0.3607 -0.4163 -0.0954
  325loPI   C4B 5200   4.008   2.368   9.679  0.0376  0.1904  0.0885
  326loPI    C1 5201   0.268   8.435  11.789  0.0407 -0.0589  0.0355
  326loPI    C2 5202   0.270   8.779  11.994  0.1187 -0.1092  0.1205
  326loPI    C3 5203   0.187   8.435  12.181  0.1171 -0.1464  0.0517
  326loPI   PO4 5204   0.431   8.481  11.574 -0.0420  0.3849 -0.0875
  326loPI   GL1 5205   0.313   8.430  11.164 -0.1341 -0.0385 -0.0813
  326loPI   GL2 5206   0.411   8.670  11.104  0.0796 -0.1534  0.0116
  326loPI   C1A 5207   0.120   8.457  10.759 -0.0345 -0.1556 -0.0368
  326loPI   C2A 5208   0.132   8.427  10.334 -0.1790 -0.5062 -0.1930
  326loPI   C3A 5209  -0.029   8.386   9.892  0.0652  0.2717  0.0797
  326loPI   C4A 5210   0.006   8.332   9.453  0.0882 -0.0045 -0.0904
  326loPI   C5A 5211   0.049   8.587   9.071 -0.0003 -0.0378  0.0885
  326loPI   C6A 5212   0.016   8.892   8.812  0.2479  0.1734  0.1324
  326loPI   C1B 5213   0.781   8.856  10.784  0.0239  0.2903 -0.1754
  326loPI   C2B 5214   0.932   8.909  10.331  0.0318  0.0379 -0.2339
  326loPI   C3B 5215   0.924   8.897   9.912 -0.0494 -0.3640 -0.2570
  326loPI   C4B 5216   0.777   8.968   9.397 -0.3204 -0.1512 -0.0640
  327loPI    C1 5217  12.389   1.234  10.933 -0.0155 -0.1053  0.1399
  327loPI    C2 5218  12.178   0.951  11.121 -0.1080 -0.0727  0.0856
  327loPI    C3 5219  12.053   1.331  11.127 -0.2315 -0.1058 -0.2264
  327loPI   PO4 5220  12.488   1.126  10.658  0.1697 -0.0675  0.0213
  327loPI   GL1 5221  12.629   0.938  10.296  0.1498  0.0304 -0.0400
  327loPI   GL2 5222  12.545   1.236  10.104 -0.3234 -0.0543  0.0040
  327loPI   C1A 5223  12.531   0.813   9.893 -0.3827 -0.0445  0.2273
  327loPI   C2A 5224  12.516   0.646   9.519 -0.2141  0.2369 -0.2424
  327loPI   C3A 5225  12.487   0.658   9.062 -0.1678 -0.3252 -0.1467
  327loPI   C4A 5226  12.726   0.365   8.744  0.3149  0.0801  0.0148
  327loPI   C5A 5227  13.214   0.225   8.718 -0.0329  0.0453 -0.1478
  327loPI   C6A 5228  13.504  -0.134   8.569  0.0276 -0.2171 -0.0571
  327loPI   C1B 5229  12.445   1.240   9.650  0.0151 -0.3033  0.1760
  327loPI   C2B 5230  12.542   1.268   9.203 -0.0121  0.2587  0.2758
  327loPI   C3B 5231  12.493   1.220   8.695  0.0670  0.2316  0.3544
  327loPI   C4B 5232  12.020   1.153   8.580 -0.1293 -0.0077  0.1844
  328loPI    C1 5233  11.034  13.044  11.484  0.0893 -0.0585 -0.0052
  328loPI    C2 5234  11.263  12.996  11.808  0.3141  0.1901 -0.1238
  328loPI    C3 5235  11.008  13.304  11.787  0.1362  0.0467 -0.0909
  328loPI   PO4 5236  11.219  13.058  11.300  0.0256 -0.0805 -0.0026
  328loPI   GL1 5237  11.292  12.747  11.031  0.1387  0.1710 -0.2846
  328loPI   GL2 5238  10.982  12.728  11.041 -0.0241  0.0155  0.1809
  328loPI   C1A 5239  11.257  12.766  10.585  0.0841  0.0824 -0.1853
  328loPI   C2A 5240  11.221  12.785  10.047  0.0826 -0.0122  0.2857
  328loPI   C3A 5241  11.268  12.866   9.685 -0.1164 -0.1428 -0.1013
  328loPI   C4A 5242  11.302  12.939   9.237  0.1234 -0.0567 -0.0364
  328loPI   C5A 5243  11.365  13.312   9.102  0.0915 -0.0230 -0.0126
  328loPI   C6A 5244  11.458  13.649   8.738  0.1632  0.0773 -0.0141
  328loPI   C1B 5245  10.833  12.428  10.662 -0.1738 -0.0181  0.1033
  328loPI   C2B 5246  10.833  12.451  10.313 -0.0832  0.0939  0.1510
  328loPI   C3B 5247  10.841  12.495   9.842 -0.1470 -0.1051  0.2078
  328loPI   C4B 5248  10.800  12.647   9.403 -0.2170  0.3745  0.0073
  329loPI    C1 5249   2.836   2.333  12.197  0.0534  0.1289 -0.1225
  329loPI    C2 5250   2.670   2.286  12.558 -0.0904  0.1217 -0.1889
  329loPI    C3 5251   3.068   2.273  12.517 -0.0761  0.0731 -0.0386
  329loPI   PO4 5252   2.735   2.248  12.004 -0.3037 -0.1104 -0.3934
  329loPI   GL1 5253   2.920   2.175  11.679  0.0391  0.1158 -0.1335
  329loPI   GL2 5254   3.079   2.420  11.597 -0.1015  0.0622  0.1374
  329loPI   C1A 5255   2.723   1.937  11.402 -0.1618  0.0023  0.0728
  329loPI   C2A 5256   2.711   1.890  10.873  0.0187  0.1040 -0.2194
  329loPI   C3A 5257   2.737   1.827  10.497  0.0041 -0.1429  0.3555
  329loPI   C4A 5258   2.710   1.857  10.148  0.0259 -0.1929  0.0934
  329loPI   C5A 5259   2.827   1.714   9.799  0.1252  0.3582  0.1311
  329loPI   C6A 5260   2.738   1.997   9.426 -0.1606  0.2601 -0.2217
  329loPI   C1B 5261   3.112   2.179  11.141 -0.1429 -0.1039 -0.1828
  329loPI   C2B 5262   3.070   2.171  10.705 -0.1262  0.1650 -0.0377
  329loPI   C3B 5263   3.138   2.145  10.228  0.0563  0.2125  0.1100
  329loPI   C4B 5264   3.178   2.133   9.813  0.1611  0.0952  0.0761
  330loPI    C1 5265   8.714   5.106  11.179  0.0958  0.0117 -0.2342
  330loPI    C2 5266   8.503   5.442  11.129  0.0932  0.0151 -0.2009
  330loPI    C3 5267   8.839   5.448  11.346 -0.0034 -0.0412 -0.0486
  330loPI   PO4 5268   8.768   4.995  10.981  0.0001 -0.0284  0.1428
  330loPI   GL1 5269   8.797   5.020  10.546 -0.1047  0.1468 -0.0385
  330loPI   GL2 5270   8.441   5.212  10.684  0.1246 -0.0977  0.1138
  330loPI   C1A 5271   8.888   5.093  10.108 -0.1740  0.0078  0.2927
  330loPI   C2A 5272   8.837   5.289   9.662 -0.2552  0.0348 -0.1173
  330loPI   C3A 5273   8.761   5.211   9.298 -0.1726 -0.2733  0.2257
  330loPI   C4A 5274   8.807   5.382   8.978  0.1512  0.1282 -0.3509
  330loPI   C5A 5275   8.613   5.620   8.634  0.0857  0.2187  0.1510
  330loPI   C6A 5276   8.611   5.971   8.270 -0.3622 -0.0300  0.0317
  330loPI   C1B 5277   8.431   5.293  10.255  0.2119 -0.2847  0.2088
  330loPI   C2B 5278   8.450   5.461   9.857 -0.2556 -0.1194  0.3428
  330loPI   C3B 5279   8.289   5.420   9.419 -0.2062 -0.1302  0.0400
  330loPI   C4B 5280   8.224   5.463   8.994 -0.2848 -0.0922  0.2932
  331loPI    C1 5281   1.945   5.239  11.794  0.0029  0.1264  0.1104
  331loPI    C2 5282   2.123   5.474  12.064 -0.2217  0.1510  0.2401
  331loPI    C3 5283   1.880   5.181  12.184 -0.1292  0.0030  0.0709
  331loPI   PO4 5284   2.153   5.182  11.620  0.0478  0.0171  0.1421
  331loPI   GL1 5285   2.135   5.349  11.287  0.1032  0.2210  0.0768
  331loPI   GL2 5286   2.401   5.104  11.194  0.2195  0.0914 -0.3349
  331loPI   C1A 5287   2.013   5.129  10.872 -0.0929 -0.1284 -0.3173
  331loPI   C2A 5288   2.074   5.238  10.420 -0.0044  0.1758  0.2127
  331loPI   C3A 5289   2.009   5.274  10.017  0.2355  0.1730  0.0004
  331loPI   C4A 5290   2.022   5.367   9.606 -0.0498 -0.0911  0.1734
  331loPI   C5A 5291   2.194   5.232   9.205 -0.3545 -0.0377  0.0233
  331loPI   C6A 5292   2.588   4.823   9.140 -0.0298  0.1614  0.1100
  331loPI   C1B 5293   2.498   5.004  10.812 -0.2584  0.0710 -0.2218
  331loPI   C2B 5294   2.576   4.956  10.356  0.0845  0.3980  0.2232
  331loPI   C3B 5295   2.476   5.090   9.917 -0.3330 -0.0010 -0.2891
  331loPI   C4B 5296   2.486   5.228   9.589  0.0676 -0.0704  0.1880
  332loPI    C1 5297  14.804   5.737  11.500 -0.0687 -0.0211  0.2251
  332loPI    C2 5298  14.983   5.397  11.613 -0.1170 -0.1362 -0.0356
  332loPI    C3 5299  14.592   5.398  11.526 -0.1285 -0.0018  0.0155
  332loPI   PO4 5300  15.023   5.854  11.325  0.0423 -0.0361  0.1484
  332loPI   GL1 5301  14.965   5.897  10.870  0.0379  0.0791  0.1669
  332loPI   GL2 5302  15.021   6.197  10.849  0.2132  0.0632 -0.0973
  332loPI   C1A 5303  14.993   5.580  10.640  0.1440  0.1141 -0.0385
  332loPI   C2A 5304  15.104   5.584  10.248 -0.0610 -0.0812  0.0504
  332loPI   C3A 5305  15.135   5.656   9.868  0.1613 -0.2535  0.0085
  332loPI   C4A 5306  15.154   5.550   9.436  0.1293  0.2570 -0.2805
  332loPI   C5A 5307  15.367   5.468   9.035  0.1592 -0.0796 -0.0909
  332loPI   C6A 5308  15.750   5.467   8.897  0.1156 -0.0028  0.0860
  332loPI   C1B 5309  14.973   6.123  10.401  0.0053  0.2522 -0.5058
  332loPI   C2B 5310  15.040   6.230  10.019  0.0151  0.2980  0.2231
  332loPI   C3B 5311  15.035   6.179   9.654  0.2554 -0.0702 -0.0109
  332loPI   C4B 5312  15.255   5.991   9.337  0.0640 -0.1374  0.0892
  333loPI    C1 5313   3.135   7.492  12.244  0.2899  0.0179  0.1270
  333loPI    C2 5314   3.315   7.813  12.088  0.2022  0.0788  0.1504
  333loPI    C3 5315   3.336   7.743  12.481  0.1402  0.1089  0.1592
  333loPI   PO4 5316   2.945   7.472  11.844 -0.0700 -0.0783 -0.2341
  333loPI   GL1 5317   2.997   7.414  11.355 -0.0353 -0.1747 -0.2321
  333loPI   GL2 5318   2.923   7.745  11.379  0.0730  0.1746  0.0891
  333loPI   C1A 5319   2.735   7.420  11.037 -0.1810 -0.2490 -0.1103
  333loPI   C2A 5320   2.811   7.422  10.612  0.0236  0.1251 -0.0752
  333loPI   C3A 5321   2.858   7.531  10.231 -0.1491  0.0074  0.2801
  333loPI   C4A 5322   2.651   7.512   9.813 -0.0929  0.1662 -0.0767
  333loPI   C5A 5323   2.621   7.656   9.396  0.2680 -0.1123 -0.2818
  333loPI   C6A 5324   2.538   7.465   9.011  0.0539 -0.1253 -0.0430
  333loPI   C1B 5325   3.066   7.848  10.981  0.1201 -0.1454 -0.3805
  333loPI   C2B 5326   3.026   7.862  10.588 -0.0559 -0.2573  0.1229
  333loPI   C3B 5327   3.172   7.928  10.051  0.1855 -0.0487  0.0680
  333loPI   C4B 5328   3.056   7.901   9.590  0.0370  0.1732  0.2686
  334loPI    C1 5329   0.719   0.306  12.066  0.0717 -0.0436  0.1782
  334loPI    C2 5330   0.438   0.521  12.252  0.0684  0.1346 -0.0292
  334loPI    C3 5331   0.800   0.479  12.417 -0.0088  0.0907  0.1313
  334loPI   PO4 5332   0.702   0.454  11.784  0.0971  0.1603  0.0096
  334loPI   GL1 5333   0.774   0.366  11.430 -0.0245 -0.0590 -0.0568
  334loPI   GL2 5334   0.702   0.624  11.249 -0.0520 -0.0243 -0.2986
  334loPI   C1A 5335   0.994   0.272  11.048  0.1509  0.0266 -0.0032
  334loPI   C2A 5336   1.068   0.201  10.646 -0.0040  0.0219 -0.0216
  334loPI   C3A 5337   1.117   0.089  10.232 -0.0596  0.2053 -0.1181
  334loPI   C4A 5338   1.147   0.025   9.832 -0.1685  0.3232  0.3295
  334loPI   C5A 5339   1.300  -0.093   9.430  0.0334  0.0825 -0.0614
  334loPI   C6A 5340   1.208  -0.502   9.122  0.0399  0.0006 -0.0517
  334loPI   C1B 5341   0.527   0.361  10.847  0.2646  0.1628  0.0572
  334loPI   C2B 5342   0.602   0.215  10.449  0.0486 -0.2648 -0.0101
  334loPI   C3B 5343   0.687   0.313  10.033  0.1316  0.2620 -0.0358
  334loPI   C4B 5344   0.777   0.277   9.514 -0.2334 -0.2019  0.0469
  335loPI    C1 5345   0.284  12.270  12.247  0.1515 -0.1444  0.0188
  335loPI    C2 5346   0.433  12.532  12.510  0.1060 -0.1323  0.0326
  335loPI    C3 5347   0.038  12.504  12.459  0.1233  0.0362 -0.2093
  335loPI   PO4 5348   0.384  12.226  12.032  0.2781  0.2045  0.1218
  335loPI   GL1 5349   0.436  12.275  11.577 -0.0436 -0.0293  0.0753
  335loPI   GL2 5350   0.432  11.965  11.319 -0.0345 -0.1207  0.2519
  335loPI   C1A 5351   0.519  12.500  11.162  0.1714 -0.1131  0.0582
  335loPI   C2A 5352   0.673  12.378  10.783 -0.0450 -0.0324 -0.4251
  335loPI   C3A 5353   0.820  12.412  10.348  0.4612  0.1931  0.2425
  335loPI   C4A 5354   0.802  12.427   9.949  0.0063  0.2681 -0.0447
  335loPI   C5A 5355   0.613  12.490   9.482  0.0955  0.1784 -0.2481
  335loPI   C6A 5356   0.451  12.626   9.140 -0.1390 -0.0095 -0.0357
  335loPI   C1B 5357   0.348  12.038  10.890  0.2693  0.3901 -0.2417
  335loPI   C2B 5358   0.406  12.088  10.499  0.0622  0.3545  0.1471
  335loPI   C3B 5359   0.379  12.182  10.080  0.0100  0.0940  0.2228
  335loPI   C4B 5360   0.281  12.088   9.700 -0.1576  0.2474  0.0779
  336loPI    C1 5361  11.147   1.941  10.816 -0.1803 -0.1384  0.3010
  336loPI    C2 5362  11.386   2.253  10.741 -0.0907 -0.2492  0.1183
  336loPI    C3 5363  11.453   2.022  11.061 -0.1697 -0.0704  0.2655
  336loPI   PO4 5364  11.126   1.706  10.657 -0.1214  0.3591  0.4138
  336loPI   GL1 5365  11.347   1.421  10.332 -0.0140 -0.0384  0.0206
  336loPI   GL2 5366  11.663   1.395  10.198  0.2127  0.0358 -0.0206
  336loPI   C1A 5367  11.043   1.422   9.958 -0.1967  0.2793 -0.0262
  336loPI   C2A 5368  11.000   1.349   9.472 -0.0530 -0.2241 -0.2211
  336loPI   C3A 5369  10.957   1.486   9.186 -0.0136 -0.0063  0.0353
  336loPI   C4A 5370  11.084   1.277   8.884 -0.1615  0.1940 -0.1915
  336loPI   C5A 5371  11.246   1.063   8.507 -0.2271  0.0082  0.1577
  336loPI   C6A 5372  11.394   0.977   8.095 -0.1285  0.1188 -0.3345
  336loPI   C1B 5373  11.499   1.440   9.796  0.2624 -0.2870 -0.0400
  336loPI   C2B 5374  11.479   1.353   9.285  0.0301  0.2073  0.1791
  336loPI   C3B 5375  11.532   1.001   8.965 -0.0471  0.0722 -0.0841
  336loPI   C4B 5376  11.676   0.838   8.550  0.0447  0.2153 -0.1186
  337loPI    C1 5377   8.132   5.254  11.349 -0.0155  0.2160 -0.0441
  337loPI    C2 5378   7.983   5.166  11.709  0.0521  0.0382 -0.0590
  337loPI    C3 5379   7.756   5.357  11.441 -0.1041 -0.1062 -0.0318
  337loPI   PO4 5380   8.219   5.021  11.225 -0.1034  0.1409 -0.3370
  337loPI   GL1 5381   8.039   4.832  10.887 -0.1221 -0.0874 -0.4016
  337loPI   GL2 5382   8.357   4.758  10.759  0.1568  0.2311 -0.0277
  337loPI   C1A 5383   7.999   5.072  10.555  0.1496  0.2240 -0.0968
  337loPI   C2A 5384   7.977   5.194  10.103 -0.0405 -0.0741 -0.0556
  337loPI   C3A 5385   7.898   5.156   9.725  0.1386 -0.1036  0.2997
  337loPI   C4A 5386   7.894   5.095   9.309  0.0911 -0.0367 -0.2030
  337loPI   C5A 5387   7.947   5.099   8.854  0.0643  0.1425 -0.1341
  337loPI   C6A 5388   8.304   5.197   8.582 -0.0853 -0.0101  0.4078
  337loPI   C1B 5389   8.362   4.801  10.286  0.0411  0.0249 -0.0455
  337loPI   C2B 5390   8.494   4.914   9.860 -0.1213 -0.0422 -0.1469
  337loPI   C3B 5391   8.340   4.954   9.523  0.2272 -0.0672  0.1759
  337loPI   C4B 5392   8.348   4.965   9.121  0.2523  0.1909 -0.1938
  338loPI    C1 5393   3.056  11.211  12.072  0.0142  0.1320  0.1555
  338loPI    C2 5394   3.369  11.459  12.065  0.0897  0.0351  0.0649
  338loPI    C3 5395   3.335  11.189  12.359  0.2200 -0.1176 -0.0584
  338loPI   PO4 5396   3.054  11.195  11.776  0.1333  0.2265 -0.0155
  338loPI   GL1 5397   2.719  11.233  11.507  0.2037 -0.2929 -0.3167
  338loPI   GL2 5398   2.526  11.454  11.519  0.3746 -0.1331  0.0317
  338loPI   C1A 5399   2.822  10.981  11.143 -0.0318  0.2538 -0.1238
  338loPI   C2A 5400   2.811  10.959  10.590  0.0025  0.0504  0.1688
  338loPI   C3A 5401   2.818  11.087  10.103 -0.0736 -0.1482  0.0115
  338loPI   C4A 5402   2.905  11.111   9.597  0.1053 -0.0181  0.2896
  338loPI   C5A 5403   2.735  11.380   9.281  0.1551 -0.2869  0.0769
  338loPI   C6A 5404   2.593  11.558   8.951 -0.0914  0.0189 -0.0892
  338loPI   C1B 5405   2.660  11.500  11.065 -0.3146 -0.0446 -0.1829
  338loPI   C2B 5406   2.854  11.411  10.734  0.3300 -0.2697  0.0554
  338loPI   C3B 5407   2.755  11.528  10.290 -0.0228  0.0881  0.1588
  338loPI   C4B 5408   2.805  11.623   9.790 -0.2682 -0.0631 -0.2409
  339POPI    C1 5409  16.443   8.152  11.520  0.0971 -0.0903 -0.0212
  339POPI    C2 5410  16.772   7.944  11.613 -0.0541 -0.2661  0.1282
  339POPI    C3 5411  16.566   8.131  11.900  0.0977  0.1194 -0.0086
  339POPI   PO4 5412  16.468   8.091  11.199  0.1803  0.1450  0.1040
  339POPI   GL1 5413  16.704   7.915  10.942 -0.2271  0.0969 -0.0918
  339POPI   GL2 5414  17.086   7.884  11.026  0.0162  0.0196 -0.2492
  339POPI   C1A 5415  16.679   8.030  10.438  0.1302  0.1077  0.0312
  339POPI   D2A 5416  16.740   8.080  10.020 -0.1835  0.2066 -0.3501
  339POPI   C3A 5417  16.659   8.044   9.639 -0.0096 -0.3545  0.0492
  339POPI   C4A 5418  16.831   8.093   9.196 -0.0123  0.1834 -0.1021
  339POPI   C1B 5419  17.084   8.021  10.641 -0.3626 -0.0201 -0.0572
  339POPI   C2B 5420  17.180   7.954  10.224  0.3031  0.2101  0.0803
  339POPI   C3B 5421  17.142   7.882   9.762 -0.2910 -0.1790  0.0275
  339POPI   C4B 5422  17.264   7.816   9.269 -0.3164 -0.2917 -0.1991
  340POPI    C1 5423   1.203  16.055  12.295 -0.2135 -0.0889 -0.1097
  340POPI    C2 5424   1.356  16.361  12.503  0.1716 -0.2691 -0.1177
  340POPI    C3 5425   0.977  16.247  12.563  0.0052  0.2392 -0.1541
  340POPI   PO4 5426   1.291  16.126  11.992 -0.0931 -0.2415 -0.2499
  340POPI   GL1 5427   1.379  16.099  11.632  0.0634  0.0343 -0.0189
  340POPI   GL2 5428   1.758  15.906  11.514  0.1910  0.2437  0.0889
  340POPI   C1A 5429   1.296  15.847  11.270 -0.3897  0.0232  0.2827
  340POPI   D2A 5430   1.274  15.692  10.926  0.2049  0.0321  0.0962
  340POPI   C3A 5431   1.418  15.674  10.421 -0.0875  0.0336  0.1134
  340POPI   C4A 5432   1.450  15.663   9.982  0.0844 -0.2943 -0.0277
  340POPI   C1B 5433   1.780  15.934  11.080  0.0793  0.4552 -0.1264
  340POPI   C2B 5434   1.836  16.021  10.638 -0.0561  0.1456  0.0369
  340POPI   C3B 5435   1.840  15.966  10.322 -0.1462 -0.1434 -0.1942
  340POPI   C4B 5436   1.863  15.964   9.829  0.3067 -0.1793  0.0746
  341POPI    C1 5437   7.045  12.412  11.860  0.2905  0.1488 -0.1055
  341POPI    C2 5438   7.220  12.387  12.219  0.3224 -0.1160 -0.1376
  341POPI    C3 5439   6.856  12.549  12.184  0.1294 -0.4875  0.0845
  341POPI   PO4 5440   7.199  12.496  11.652  0.1673 -0.0460  0.0715
  341POPI   GL1 5441   7.376  12.330  11.325  0.1229  0.2122  0.1472
  341POPI   GL2 5442   7.126  12.160  11.378  0.1333  0.0018  0.0703
  341POPI   C1A 5443   7.366  12.075  10.992  0.1965 -0.0062  0.0570
  341POPI   D2A 5444   7.404  12.024  10.512  0.3230 -0.0293 -0.2440
  341POPI   C3A 5445   7.605  11.725  10.136  0.0985 -0.0717  0.1636
  341POPI   C4A 5446   7.675  11.668   9.686  0.1662  0.2084 -0.0094
  341POPI   C1B 5447   6.896  12.295  11.040  0.0718 -0.1459  0.1027
  341POPI   C2B 5448   6.830  12.331  10.655 -0.0789  0.0280 -0.0176
  341POPI   C3B 5449   6.882  12.143  10.246 -0.3160 -0.2546 -0.1742
  341POPI   C4B 5450   7.204  11.960  10.014  0.0676  0.3246  0.0420
  342POPI    C1 5451   8.188  16.301  11.229 -0.0197 -0.0591  0.0428
  342POPI    C2 5452   8.169  16.635  11.010  0.2524 -0.0009  0.1036
  342POPI    C3 5453   8.171  16.657  11.409 -0.1248 -0.1005  0.1154
  342POPI   PO4 5454   8.091  16.163  11.126  0.2954 -0.0882  0.1146
  342POPI   GL1 5455   8.097  16.123  10.724  0.2899 -0.0650 -0.0998
  342POPI   GL2 5456   8.368  16.206  10.748  0.2231 -0.0627  0.0424
  342POPI   C1A 5457   8.008  16.072  10.312  0.0962 -0.1479  0.1857
  342POPI   D2A 5458   8.080  16.128   9.880 -0.1330 -0.1084  0.0716
  342POPI   C3A 5459   8.130  16.348   9.446 -0.2684  0.0266  0.1546
  342POPI   C4A 5460   8.014  16.177   9.123  0.2744  0.0711 -0.0951
  342POPI   C1B 5461   8.414  16.355  10.269 -0.0556 -0.1133  0.1938
  342POPI   C2B 5462   8.363  16.511   9.873  0.0867 -0.0253 -0.0693
  342POPI   C3B 5463   8.194  16.849   9.591  0.1350  0.0855 -0.0102
  342POPI   C4B 5464   8.243  17.025   9.081 -0.0261 -0.2486 -0.0518
  343POPI    C1 5465   4.032   1.231  11.898 -0.2525  0.1539 -0.1546
  343POPI    C2 5466   3.808   1.191  12.227 -0.1682  0.0960 -0.1036
  343POPI    C3 5467   4.107   1.456  12.220  0.0499 -0.1433 -0.0104
  343POPI   PO4 5468   4.099   0.964  11.750 -0.1051  0.0779  0.4110
  343POPI   GL1 5469   4.070   0.791  11.445  0.0838 -0.0033 -0.0426
  343POPI   GL2 5470   3.751   0.891  11.299  0.0221 -0.1323 -0.0618
  343POPI   C1A 5471   4.210   0.705  11.076  0.3259  0.4364  0.0589
  343POPI   D2A 5472   4.045   0.659  10.583 -0.0529 -0.1226 -0.0659
  343POPI   C3A 5473   4.237   0.782  10.206  0.1198  0.0365  0.0683
  343POPI   C4A 5474   4.218   0.748   9.755  0.0844  0.0961 -0.1932
  343POPI   C1B 5475   3.768   0.960  10.880  0.0453  0.1331  0.2126
  343POPI   C2B 5476   3.604   0.828  10.447 -0.1383 -0.1754  0.0544
  343POPI   C3B 5477   3.776   0.977  10.036  0.0043 -0.0988  0.1978
  343POPI   C4B 5478   3.725   1.027   9.651  0.1390  0.0581 -0.0483
  344POPI    C1 5479   8.466   2.503  11.462  0.0523 -0.2495 -0.0489
  344POPI    C2 5480   8.202   2.288  11.672 -0.2437  0.1776  0.0295
  344POPI    C3 5481   8.471   2.515  11.862 -0.0300 -0.0027 -0.0536
  344POPI   PO4 5482   8.325   2.623  11.317 -0.0643 -0.1019 -0.2061
  344POPI   GL1 5483   8.414   2.906  11.003  0.1759  0.1252 -0.2322
  344POPI   GL2 5484   8.534   3.177  10.709 -0.1137  0.2339 -0.1647
  344POPI   C1A 5485   8.210   2.835  10.656 -0.3054  0.0275 -0.2708
  344POPI   D2A 5486   8.003   2.997  10.338  0.1487 -0.2711  0.4685
  344POPI   C3A 5487   8.138   3.043   9.912  0.0315 -0.0512  0.1226
  344POPI   C4A 5488   8.070   3.095   9.505  0.2045 -0.1776 -0.2349
  344POPI   C1B 5489   8.482   3.327  10.253  0.1730 -0.0666  0.2293
  344POPI   C2B 5490   8.510   3.314   9.752  0.0771 -0.3721  0.1234
  344POPI   C3B 5491   8.471   3.446   9.359 -0.1460 -0.0554 -0.1221
  344POPI   C4B 5492   8.310   3.593   8.975  0.1112 -0.3010 -0.0718
  345POPI    C1 5493  12.359   3.645  10.869  0.1448  0.0126  0.2325
  345POPI    C2 5494  12.694   3.705  10.658 -0.0211  0.1487  0.0034
  345POPI    C3 5495  12.702   3.729  11.057  0.2058  0.3253 -0.0100
  345POPI   PO4 5496  12.190   3.690  10.628  0.2219 -0.2287 -0.0813
  345POPI   GL1 5497  12.213   3.517  10.160  0.1393  0.2011 -0.0048
  345POPI   GL2 5498  12.457   3.515  10.261 -0.4097  0.1402  0.2266
  345POPI   C1A 5499  12.222   3.529   9.739 -0.1845  0.0769 -0.2828
  345POPI   D2A 5500  12.149   3.568   9.431 -0.0248  0.4306  0.2441
  345POPI   C3A 5501  12.321   3.511   9.066 -0.1796 -0.1886  0.1792
  345POPI   C4A 5502  12.452   3.585   8.639  0.0871  0.1168  0.0189
  345POPI   C1B 5503  12.696   3.527   9.872  0.3464 -0.2508  0.1999
  345POPI   C2B 5504  12.759   3.639   9.504 -0.3800 -0.0639 -0.1700
  345POPI   C3B 5505  12.821   3.358   9.032  0.1046  0.0137  0.0286
  345POPI   C4B 5506  13.085   3.582   8.681  0.0935 -0.2896 -0.1754
  346POPI    C1 5507   2.015  12.451  11.902 -0.0407 -0.1232  0.0468
  346POPI    C2 5508   1.734  12.407  11.621 -0.0679  0.0385  0.0483
  346POPI    C3 5509   1.657  12.299  11.998 -0.1356  0.1001  0.0526
  346POPI   PO4 5510   2.077  12.734  11.846 -0.1245  0.0898  0.0706
  346POPI   GL1 5511   2.309  12.733  11.471 -0.0771 -0.1126 -0.0483
  346POPI   GL2 5512   2.186  12.445  11.393  0.1165  0.1428 -0.1130
  346POPI   C1A 5513   2.309  12.998  11.126 -0.1736 -0.2373 -0.5104
  346POPI   D2A 5514   2.542  13.129  10.724 -0.0060  0.2171  0.2592
  346POPI   C3A 5515   2.472  13.145  10.226 -0.4227  0.1805  0.1776
  346POPI   C4A 5516   2.620  13.157   9.801 -0.0978  0.0797 -0.4580
  346POPI   C1B 5517   2.066  12.595  10.998 -0.1185 -0.0544 -0.2206
  346POPI   C2B 5518   2.089  12.876  10.661 -0.1572 -0.3996  0.2228
  346POPI   C3B 5519   2.126  12.743  10.302  0.0854 -0.0684  0.2603
  346POPI   C4B 5520   2.204  12.777   9.915 -0.1293 -0.1658  0.1651
  347POPI    C1 5521   2.989   4.598  11.770 -0.3732 -0.0486 -0.1888
  347POPI    C2 5522   2.877   4.968  11.874  0.2296  0.1057 -0.0479
  347POPI    C3 5523   2.736   4.653  12.075  0.1128  0.2934  0.1691
  347POPI   PO4 5524   2.961   4.623  11.493 -0.1048 -0.0178  0.2162
  347POPI   GL1 5525   2.824   4.683  11.107  0.2824  0.1078 -0.0642
  347POPI   GL2 5526   2.542   4.538  11.180 -0.1174 -0.0868 -0.0651
  347POPI   C1A 5527   2.949   4.789  10.705 -0.0759 -0.0504  0.1031
  347POPI   D2A 5528   2.980   4.716  10.195 -0.1462  0.0803  0.0264
  347POPI   C3A 5529   2.952   4.941   9.847 -0.0411 -0.0327 -0.0048
  347POPI   C4A 5530   3.043   4.938   9.457 -0.0918 -0.0987  0.1227
  347POPI   C1B 5531   2.553   4.469  10.684  0.1181  0.0794  0.0558
  347POPI   C2B 5532   2.548   4.415  10.246 -0.0270 -0.4945 -0.0524
  347POPI   C3B 5533   2.534   4.606   9.916  0.4298  0.0379 -0.0056
  347POPI   C4B 5534   2.523   4.447   9.450 -0.3635 -0.2985 -0.2158
  348POPI    C1 5535   6.403  13.573  11.789  0.0506 -0.0586 -0.1088
  348POPI    C2 5536   6.763  13.731  11.864  0.0288 -0.1556  0.2139
  348POPI    C3 5537   6.685  13.352  11.967 -0.1617 -0.1396  0.1332
  348POPI   PO4 5538   6.250  13.593  11.564  0.2012  0.1993 -0.0063
  348POPI   GL1 5539   6.203  13.474  11.179  0.1189  0.0166 -0.1094
  348POPI   GL2 5540   5.827  13.588  11.210 -0.0795 -0.0532 -0.2185
  348POPI   C1A 5541   6.131  13.228  10.875  0.0755 -0.1859 -0.6135
  348POPI   D2A 5542   6.353  12.968  10.700 -0.0574  0.1982  0.0895
  348POPI   C3A 5543   6.492  13.122  10.315 -0.2429  0.0720 -0.0059
  348POPI   C4A 5544   6.796  13.274   9.999 -0.4542  0.0601 -0.1259
  348POPI   C1B 5545   5.868  13.628  10.739  0.1030 -0.0104 -0.0332
  348POPI   C2B 5546   5.781  13.752  10.292 -0.3068  0.1191  0.1356
  348POPI   C3B 5547   5.736  13.801   9.864  0.0978  0.1285 -0.1067
  348POPI   C4B 5548   5.727  13.617   9.472 -0.0287  0.1494  0.1972
  349POPI    C1 5549   3.569  10.660  11.741  0.1318  0.2601  0.1136
  349POPI    C2 5550   3.709  10.867  12.054 -0.1359 -0.0992  0.4821
  349POPI    C3 5551   3.315  10.813  12.009 -0.1034 -0.0200  0.0559
  349POPI   PO4 5552   3.808  10.562  11.631 -0.2003 -0.1031  0.0456
  349POPI   GL1 5553   3.830  10.622  11.237 -0.1180  0.1063 -0.0361
  349POPI   GL2 5554   3.872  10.975  11.302 -0.1483  0.1148  0.1457
  349POPI   C1A 5555   3.859  10.576  10.778  0.1971  0.1724  0.3297
  349POPI   D2A 5556   3.878  10.655  10.386 -0.1637 -0.1673 -0.1096
  349POPI   C3A 5557   3.768  10.597  10.079  0.1525  0.1119 -0.1736
  349POPI   C4A 5558   3.645  10.652   9.646  0.2342  0.0856  0.0748
  349POPI   C1B 5559   3.750  11.049  10.870  0.1245  0.0403  0.0324
  349POPI   C2B 5560   3.779  11.183  10.416  0.3182 -0.1034  0.0733
  349POPI   C3B 5561   3.665  11.089  10.020  0.1043 -0.1396 -0.3072
  349POPI   C4B 5562   3.656  11.132   9.587  0.0330 -0.0751 -0.0299
  350POPI    C1 5563   9.141   0.449  11.539 -0.4112  0.0088 -0.3556
  350POPI    C2 5564   8.966   0.099  11.621  0.0002 -0.1301 -0.0324
  350POPI    C3 5565   9.087   0.337  11.919  0.3673 -0.0441 -0.2433
  350POPI   PO4 5566   8.959   0.567  11.311 -0.0791  0.0733 -0.1357
  350POPI   GL1 5567   8.843   0.723  10.994 -0.0260 -0.0751  0.1447
  350POPI   GL2 5568   8.566   0.841  10.809 -0.0423  0.0444 -0.0719
  350POPI   C1A 5569   8.911   0.565  10.525 -0.2662 -0.2090 -0.2014
  350POPI   D2A 5570   8.898   0.297  10.208  0.0888  0.1691  0.1384
  350POPI   C3A 5571   8.730   0.180   9.783 -0.2358  0.0181  0.3673
  350POPI   C4A 5572   8.583   0.202   9.242 -0.6149 -0.0631  0.3825
  350POPI   C1B 5573   8.479   0.771  10.362 -0.0510 -0.2009 -0.0211
  350POPI   C2B 5574   8.325   0.734   9.899  0.0493  0.0588  0.0460
  350POPI   C3B 5575   8.181   0.757   9.528  0.0070 -0.1227  0.0391
  350POPI   C4B 5576   8.093   0.857   9.102  0.5250 -0.2689 -0.2909
  351POPI    C1 5577  15.394   2.010  11.659 -0.0994  0.0853 -0.2003
  351POPI    C2 5578  15.682   2.170  11.433 -0.0959 -0.0687 -0.3064
  351POPI    C3 5579  15.539   2.372  11.748  0.1183  0.0140 -0.2606
  351POPI   PO4 5580  15.237   1.911  11.484  0.0585 -0.1408 -0.1021
  351POPI   GL1 5581  15.390   1.865  11.116  0.1283  0.1264 -0.2036
  351POPI   GL2 5582  15.162   1.946  10.936 -0.3310  0.0786  0.0098
  351POPI   C1A 5583  15.602   1.736  10.780  0.1092 -0.0330  0.1699
  351POPI   D2A 5584  15.744   1.779  10.349 -0.0753 -0.2371  0.0727
  351POPI   C3A 5585  15.871   1.757  10.005  0.1565  0.2281  0.0143
  351POPI   C4A 5586  15.976   1.697   9.604  0.1239 -0.1493 -0.1424
  351POPI   C1B 5587  15.270   1.909  10.491 -0.0306  0.0702 -0.1747
  351POPI   C2B 5588  15.344   1.972  10.105 -0.1086  0.1215  0.0898
  351POPI   C3B 5589  15.601   2.031   9.683  0.1308 -0.2109  0.5928
  351POPI   C4B 5590  15.798   2.063   9.279  0.2373  0.0464  0.0939
  352POPI    C1 5591  16.871  16.878  12.303  0.0369  0.2480  0.1125
  352POPI    C2 5592  16.586  16.605  12.368  0.1209  0.1788  0.1928
  352POPI    C3 5593  16.486  16.973  12.248  0.0273  0.0104 -0.2670
  352POPI   PO4 5594  17.002  16.824  12.092  0.0275 -0.0875  0.3086
  352POPI   GL1 5595  17.066  16.841  11.611 -0.0993  0.0342  0.1959
  352POPI   GL2 5596  17.373  16.790  11.394 -0.0687  0.0814  0.1660
  352POPI   C1A 5597  16.917  16.928  11.196  0.5551 -0.3424  0.2444
  352POPI   D2A 5598  16.886  16.798  10.820  0.1525  0.0569  0.1650
  352POPI   C3A 5599  16.923  16.767  10.390 -0.2402  0.0184  0.0837
  352POPI   C4A 5600  17.051  16.833   9.987  0.1086 -0.2345  0.0791
  352POPI   C1B 5601  17.409  16.697  11.004 -0.0428 -0.1258  0.2108
  352POPI   C2B 5602  17.566  16.528  10.605 -0.0101  0.0947  0.0416
  352POPI   C3B 5603  17.462  16.588  10.146 -0.2885 -0.1102 -0.1562
  352POPI   C4B 5604  17.515  16.553   9.600  0.2003 -0.0581  0.0248
  353POPI    C1 5605  13.526   9.865  11.205  0.0703  0.1629 -0.2929
  353POPI    C2 5606  13.561   9.539  11.434 -0.1173  0.1614 -0.2648
  353POPI    C3 5607  13.760   9.872  11.529 -0.1684  0.1504 -0.1170
  353POPI   PO4 5608  13.589   9.814  10.882 -0.0415 -0.1675 -0.0814
  353POPI   GL1 5609  13.627   9.844  10.414  0.2371 -0.0275  0.2789
  353POPI   GL2 5610  13.879   9.623  10.562  0.0141 -0.0551  0.2066
  353POPI   C1A 5611  13.652   9.730   9.938  0.0195  0.2673  0.0490
  353POPI   D2A 5612  13.622   9.641   9.573  0.1183  0.0575  0.2915
  353POPI   C3A 5613  13.365   9.478   9.403  0.2201 -0.1921  0.1027
  353POPI   C4A 5614  13.440   9.331   9.064 -0.1589  0.0224 -0.1136
  353POPI   C1B 5615  13.936   9.435  10.175  0.0964  0.1276 -0.1063
  353POPI   C2B 5616  14.028   9.314   9.779  0.2824 -0.2511  0.0776
  353POPI   C3B 5617  13.869   9.239   9.333  0.0304  0.2162 -0.2533
  353POPI   C4B 5618  13.854   9.314   8.849 -0.2605 -0.1831  0.0497
  354POPI    C1 5619  12.134   4.227  10.857  0.3147  0.0789 -0.1382
  354POPI    C2 5620  11.971   3.926  11.064 -0.0487  0.3541 -0.0123
  354POPI    C3 5621  12.315   4.090  11.186  0.0562  0.1125  0.0214
  354POPI   PO4 5622  12.113   4.234  10.667 -0.1543 -0.4049  0.0301
  354POPI   GL1 5623  11.829   4.144  10.242 -0.0016  0.1329 -0.2467
  354POPI   GL2 5624  11.958   3.933  10.095 -0.0437 -0.1139  0.0919
  354POPI   C1A 5625  11.654   4.379   9.916  0.0712 -0.0598 -0.0701
  354POPI   D2A 5626  11.561   4.411   9.485 -0.0305 -0.0639 -0.0764
  354POPI   C3A 5627  11.557   4.711   9.220 -0.2224  0.0799 -0.0636
  354POPI   C4A 5628  11.422   5.109   9.055  0.1129  0.1312 -0.1072
  354POPI   C1B 5629  11.925   3.998   9.689  0.0619  0.1673 -0.0701
  354POPI   C2B 5630  11.878   4.002   9.339  0.2890  0.2772 -0.3384
  354POPI   C3B 5631  11.860   4.161   8.952  0.0564 -0.1956 -0.1135
  354POPI   C4B 5632  11.616   4.067   8.670 -0.1192 -0.1596 -0.1366
  355POPI    C1 5633  15.980   7.462  11.427  0.0815  0.0981  0.1108
  355POPI    C2 5634  16.056   7.851  11.375 -0.1324  0.1083 -0.1437
  355POPI    C3 5635  15.678   7.722  11.397 -0.0617 -0.0801 -0.0097
  355POPI   PO4 5636  16.161   7.336  11.321  0.3468  0.1160  0.2120
  355POPI   GL1 5637  16.246   7.142  10.930 -0.3120  0.1271  0.0022
  355POPI   GL2 5638  16.553   7.214  10.778 -0.0175  0.1878 -0.1803
  355POPI   C1A 5639  16.150   6.962  10.459  0.2292 -0.0043  0.0623
  355POPI   D2A 5640  16.254   6.961  10.151 -0.1924 -0.1590  0.3210
  355POPI   C3A 5641  16.303   7.102   9.819  0.3192 -0.0753  0.2529
  355POPI   C4A 5642  16.410   7.218   9.471 -0.2557 -0.1212  0.1055
  355POPI   C1B 5643  16.669   7.121  10.252  0.2679  0.0763  0.2672
  355POPI   C2B 5644  16.791   7.084   9.795  0.0638  0.1348 -0.2121
  355POPI   C3B 5645  16.829   7.027   9.268  0.0627  0.0171 -0.1971
  355POPI   C4B 5646  16.624   6.847   8.865  0.2917 -0.2257 -0.0617
  356POPI    C1 5647   7.120  17.037  11.586 -0.0164  0.0373 -0.1805
  356POPI    C2 5648   7.257  16.768  11.323 -0.0001 -0.0264 -0.1073
  356POPI    C3 5649   7.329  16.721  11.714 -0.1360 -0.0016 -0.0787
  356POPI   PO4 5650   7.242  17.314  11.454 -0.0392 -0.0555  0.1963
  356POPI   GL1 5651   7.099  17.300  11.088 -0.0724  0.2108  0.2345
  356POPI   GL2 5652   6.888  17.100  11.117 -0.0800 -0.1333  0.0292
  356POPI   C1A 5653   7.283  17.137  10.685 -0.0327  0.1883 -0.2233
  356POPI   D2A 5654   7.204  17.108  10.248 -0.1787 -0.2086  0.1421
  356POPI   C3A 5655   7.010  17.162   9.803  0.3684  0.2530 -0.0397
  356POPI   C4A 5656   6.838  17.112   9.423  0.0476  0.1797 -0.1421
  356POPI   C1B 5657   6.793  17.126  10.657  0.0864  0.1609  0.3523
  356POPI   C2B 5658   6.676  17.065  10.249  0.0553 -0.2830 -0.1677
  356POPI   C3B 5659   6.527  17.000   9.838  0.2061 -0.0027 -0.0203
  356POPI   C4B 5660   6.351  16.908   9.439 -0.2239  0.0029 -0.3397
  357POPI    C1 5661  16.713  12.482  11.735  0.0203  0.2513 -0.0278
  357POPI    C2 5662  17.032  12.685  11.605  0.1049  0.1768  0.0615
  357POPI    C3 5663  17.039  12.511  11.964  0.0342  0.0130 -0.0155
  357POPI   PO4 5664  16.510  12.546  11.525 -0.2153  0.2608 -0.1015
  357POPI   GL1 5665  16.530  12.808  11.107  0.1943  0.0756 -0.2257
  357POPI   GL2 5666  16.799  12.973  11.153  0.2963  0.1859 -0.1308
  357POPI   C1A 5667  16.463  12.997  10.672 -0.0926  0.1796 -0.3384
  357POPI   D2A 5668  16.562  13.007  10.252  0.1838  0.1582 -0.2054
  357POPI   C3A 5669  16.516  13.089   9.839 -0.0341 -0.0134 -0.3464
  357POPI   C4A 5670  16.542  13.237   9.465 -0.1350 -0.0216  0.2495
  357POPI   C1B 5671  16.903  12.723  10.727  0.3845  0.1962  0.1472
  357POPI   C2B 5672  17.032  12.787  10.264 -0.1189 -0.0888 -0.2264
  357POPI   C3B 5673  16.995  12.890   9.835 -0.1612  0.2279 -0.0048
  357POPI   C4B 5674  16.944  12.914   9.372  0.1533 -0.3655 -0.0773
  358POPI    C1 5675  13.477  12.047  11.698  0.0423 -0.1038  0.0157
  358POPI    C2 5676  13.365  12.295  11.991 -0.0057 -0.1836  0.0648
  358POPI    C3 5677  13.753  12.246  11.909 -0.0017  0.0239 -0.0461
  358POPI   PO4 5678  13.346  12.155  11.506  0.0753 -0.1474  0.0423
  358POPI   GL1 5679  13.383  12.349  11.063  0.1833  0.0986 -0.2691
  358POPI   GL2 5680  13.343  12.020  11.007  0.2332  0.1564  0.0516
  358POPI   C1A 5681  13.602  12.460  10.640 -0.1546 -0.0101  0.1721
  358POPI   D2A 5682  13.580  12.419  10.203  0.0887  0.1312  0.0523
  358POPI   C3A 5683  13.542  12.422   9.768 -0.2046  0.0709  0.2088
  358POPI   C4A 5684  13.538  12.339   9.339 -0.4552 -0.0491  0.0088
  358POPI   C1B 5685  13.272  12.060  10.529  0.4104 -0.1047  0.0381
  358POPI   C2B 5686  13.159  12.090  10.118  0.1560  0.0447  0.0519
  358POPI   C3B 5687  13.135  12.153   9.703  0.0686 -0.0730  0.1915
  358POPI   C4B 5688  12.921  12.247   9.274 -0.1116 -0.2440  0.2268
  359POPI    C1 5689   4.226   6.320  11.609  0.0687 -0.2351  0.1666
  359POPI    C2 5690   3.961   6.573  11.770  0.2237  0.1075 -0.1048
  359POPI    C3 5691   4.170   6.326  12.005 -0.1782 -0.0169  0.1309
  359POPI   PO4 5692   4.265   6.462  11.361 -0.0713  0.2624 -0.0707
  359POPI   GL1 5693   4.224   6.337  10.954 -0.1634 -0.0151  0.1657
  359POPI   GL2 5694   4.114   6.070  11.057  0.2513  0.4324 -0.2646
  359POPI   C1A 5695   4.163   6.213  10.564 -0.1220 -0.2642  0.1629
  359POPI   D2A 5696   4.184   6.206  10.183  0.1195 -0.0210  0.2045
  359POPI   C3A 5697   4.158   6.413   9.865 -0.0823  0.1489  0.5662
  359POPI   C4A 5698   4.123   6.556   9.489  0.3120 -0.2688  0.3759
  359POPI   C1B 5699   4.202   5.793  10.829 -0.4773  0.0429  0.0040
  359POPI   C2B 5700   4.246   5.742  10.365  0.0089  0.0155  0.0463
  359POPI   C3B 5701   4.257   5.767   9.922  0.3769  0.0117 -0.1406
  359POPI   C4B 5702   4.231   5.862   9.526  0.1737 -0.0088  0.2404
  360POPI    C1 5703   4.159   8.882  11.894 -0.1184 -0.0993 -0.1265
  360POPI    C2 5704   4.236   8.712  12.248  0.0891 -0.1393 -0.1894
  360POPI    C3 5705   4.019   9.047  12.230  0.1146 -0.1128 -0.0203
  360POPI   PO4 5706   4.280   8.680  11.768  0.1405 -0.0418  0.0224
  360POPI   GL1 5707   4.321   8.523  11.331  0.0062  0.0591  0.0767
  360POPI   GL2 5708   4.098   8.236  11.216  0.1235 -0.0169 -0.1091
  360POPI   C1A 5709   4.240   8.787  11.009  0.0617 -0.2216 -0.0621
  360POPI   D2A 5710   4.011   8.977  10.602  0.0621  0.3383 -0.1548
  360POPI   C3A 5711   3.967   9.114  10.178  0.1022  0.2263 -0.1254
  360POPI   C4A 5712   3.875   9.110   9.787  0.0537 -0.0180  0.1892
  360POPI   C1B 5713   4.000   8.433  10.782 -0.4481  0.2712  0.2436
  360POPI   C2B 5714   3.938   8.542  10.303 -0.2700  0.1209  0.2113
  360POPI   C3B 5715   3.892   8.513   9.787 -0.1449  0.3193  0.0789
  360POPI   C4B 5716   3.926   8.683   9.439  0.1302  0.0850 -0.2210
  361POPI    C1 5717  14.317   6.671  11.555 -0.1293 -0.1207 -0.0639
  361POPI    C2 5718  14.451   6.839  11.892 -0.0253 -0.2511 -0.0392
  361POPI    C3 5719  14.061   6.851  11.804 -0.0203 -0.0035 -0.0354
  361POPI   PO4 5720  14.572   6.687  11.413  0.0466 -0.3127  0.1933
  361POPI   GL1 5721  14.788   6.636  11.008  0.0561  0.0122 -0.2799
  361POPI   GL2 5722  14.775   7.064  11.043 -0.2032 -0.0402 -0.0955
  361POPI   C1A 5723  14.951   6.776  10.587 -0.3183  0.0618  0.2439
  361POPI   D2A 5724  14.945   6.742  10.116 -0.2557 -0.0044  0.2812
  361POPI   C3A 5725  14.994   6.698   9.699  0.3425  0.1320  0.0036
  361POPI   C4A 5726  15.011   6.567   9.297  0.0513 -0.0283  0.0833
  361POPI   C1B 5727  14.833   7.237  10.638  0.0062 -0.1583 -0.3133
  361POPI   C2B 5728  14.774   7.190  10.273  0.1164 -0.1882  0.0261
  361POPI   C3B 5729  14.950   7.204   9.855  0.0537  0.0261  0.1410
  361POPI   C4B 5730  14.969   7.173   9.516  0.0063  0.0937  0.1589
  362POPI    C1 5731   0.912   9.072  11.754  0.0464  0.0706 -0.0819
  362POPI    C2 5732   1.085   8.878  12.058 -0.0335 -0.0628 -0.1211
  362POPI    C3 5733   0.813   8.692  11.830 -0.2210  0.1408 -0.0671
  362POPI   PO4 5734   1.103   9.183  11.619  0.1290 -0.1226  0.1720
  362POPI   GL1 5735   1.310   9.107  11.228 -0.2595  0.0798 -0.2210
  362POPI   GL2 5736   1.346   8.808  11.104  0.0420 -0.3772 -0.1421
  362POPI   C1A 5737   1.152   9.197  10.798  0.1278  0.1429  0.2286
  362POPI   D2A 5738   1.103   9.363  10.410 -0.4095 -0.0585  0.2022
  362POPI   C3A 5739   1.221   9.258  10.019  0.1484 -0.1468 -0.0042
  362POPI   C4A 5740   1.171   9.230   9.590 -0.2811  0.5754 -0.2265
  362POPI   C1B 5741   1.220   8.700  10.659 -0.3740  0.1220  0.0814
  362POPI   C2B 5742   1.312   8.594  10.188  0.2412 -0.1274 -0.4887
  362POPI   C3B 5743   1.306   8.626   9.805 -0.2188  0.0988  0.0226
  362POPI   C4B 5744   1.422   8.669   9.435 -0.0739  0.0982  0.1738
  363POPI    C1 5745  16.277  11.300  11.635 -0.2923  0.0759  0.2413
  363POPI    C2 5746  16.196  11.053  11.331  0.0085  0.0722  0.1608
  363POPI    C3 5747  16.339  10.906  11.674  0.3533  0.1463  0.0531
  363POPI   PO4 5748  16.376  11.508  11.438 -0.0284  0.4195 -0.0288
  363POPI   GL1 5749  16.475  11.374  10.997 -0.1877 -0.2284 -0.2015
  363POPI   GL2 5750  16.196  11.612  10.957  0.0869 -0.4186  0.0052
  363POPI   C1A 5751  16.672  11.297  10.637  0.1148 -0.0411  0.0870
  363POPI   D2A 5752  16.760  11.318  10.238 -0.0637 -0.1947 -0.0008
  363POPI   C3A 5753  16.704  11.492   9.853  0.1241 -0.0920  0.0361
  363POPI   C4A 5754  16.681  11.505   9.462 -0.0974  0.0423  0.3094
  363POPI   C1B 5755  16.181  11.494  10.592  0.3520  0.0654  0.1062
  363POPI   C2B 5756  16.253  11.500  10.224  0.1678 -0.2811  0.0143
  363POPI   C3B 5757  16.201  11.689   9.869  0.1061 -0.2256 -0.1236
  363POPI   C4B 5758  16.313  11.802   9.539 -0.1043  0.1012  0.2595
  364POPI    C1 5759   5.172   7.267  11.706 -0.0344  0.0648  0.0357
  364POPI    C2 5760   5.023   7.586  11.897  0.0809 -0.0401  0.3066
  364POPI    C3 5761   5.126   7.260  12.104  0.0526 -0.2197  0.0424
  364POPI   PO4 5762   5.298   7.308  11.478 -0.1748 -0.0085  0.1070
  364POPI   GL1 5763   5.347   7.469  11.108 -0.2101  0.2980  0.0290
  364POPI   GL2 5764   5.068   7.424  10.892 -0.0524  0.0163  0.1249
  364POPI   C1A 5765   5.496   7.253  10.802  0.0731  0.2623  0.3755
  364POPI   D2A 5766   5.412   7.285  10.302 -0.2591  0.0157  0.2948
  364POPI   C3A 5767   5.397   7.248   9.801  0.0213 -0.0804 -0.0432
  364POPI   C4A 5768   5.324   7.295   9.293  0.2385  0.2089 -0.0376
  364POPI   C1B 5769   5.005   7.423  10.433  0.0199 -0.1725 -0.0233
  364POPI   C2B 5770   5.009   7.472  10.041 -0.1431  0.3989 -0.1638
  364POPI   C3B 5771   4.996   7.595   9.646 -0.1827 -0.0681  0.0165
  364POPI   C4B 5772   4.860   7.564   9.245  0.2070 -0.3042  0.3045
  365POPI    C1 5773  16.770   1.313  11.711  0.2862  0.1251 -0.0709
  365POPI    C2 5774  16.748   1.669  11.530 -0.2763  0.1728  0.0723
  365POPI    C3 5775  16.886   1.643  11.905 -0.0361  0.2077 -0.0121
  365POPI   PO4 5776  16.594   1.133  11.491  0.1881  0.2679 -0.0696
  365POPI   GL1 5777  16.663   0.800  11.220  0.1664 -0.1923  0.0760
  365POPI   GL2 5778  16.336   0.608  11.063 -0.1729 -0.1872  0.1206
  365POPI   C1A 5779  16.749   0.822  10.811  0.1063 -0.0638  0.0232
  365POPI   D2A 5780  16.813   0.636  10.475  0.0036 -0.3592  0.0281
  365POPI   C3A 5781  16.899   0.725  10.086 -0.1870 -0.1965  0.2992
  365POPI   C4A 5782  16.999   0.704   9.611  0.1168 -0.0404  0.0641
  365POPI   C1B 5783  16.387   0.467  10.616  0.1330 -0.0781 -0.0865
  365POPI   C2B 5784  16.451   0.459  10.201  0.0682 -0.1824 -0.1507
  365POPI   C3B 5785  16.552   0.381   9.839  0.0162 -0.2611 -0.2004
  365POPI   C4B 5786  16.667   0.280   9.445  0.0412 -0.2825  0.2354
  366POPI    C1 5787  13.543   5.599  11.236 -0.0102  0.0811  0.2095
  366POPI    C2 5788  13.738   5.265  11.338 -0.0584 -0.0285 -0.0498
  366POPI    C3 5789  13.815   5.608  11.530  0.2932 -0.0983 -0.0599
  366POPI   PO4 5790  13.556   5.587  10.994 -0.0246 -0.1343  0.1744
  366POPI   GL1 5791  13.663   5.715  10.621 -0.1420 -0.1244  0.0546
  366POPI   GL2 5792  13.611   5.384  10.542 -0.2278  0.0004  0.3446
  366POPI   C1A 5793  13.629   5.621  10.123  0.3429 -0.2813 -0.1016
  366POPI   D2A 5794  13.776   5.509   9.663  0.0329 -0.1952  0.1048
  366POPI   C3A 5795  13.716   5.680   9.330  0.1484 -0.1996 -0.0940
  366POPI   C4A 5796  13.832   5.834   8.945  0.1794 -0.0069  0.2415
  366POPI   C1B 5797  13.783   5.159  10.138  0.3523 -0.1208  0.1605
  366POPI   C2B 5798  13.852   5.005   9.746  0.0836 -0.1148 -0.0496
  366POPI   C3B 5799  13.909   5.163   9.296  0.5011  0.0115 -0.3534
  366POPI   C4B 5800  14.076   5.389   8.854  0.0643  0.3484  0.3310
  367POPI    C1 5801   5.015   3.009  11.864  0.0219  0.2330 -0.1236
  367POPI    C2 5802   5.051   3.319  12.113  0.1262  0.1302 -0.0094
  367POPI    C3 5803   5.067   2.946  12.255 -0.1075  0.0723 -0.1315
  367POPI   PO4 5804   4.865   3.096  11.653 -0.2630  0.1745 -0.0378
  367POPI   GL1 5805   4.899   2.934  11.233  0.0683 -0.0813  0.1533
  367POPI   GL2 5806   5.161   3.019  11.132 -0.0795  0.0529 -0.2884
  367POPI   C1A 5807   4.629   2.651  11.006  0.2096 -0.1690  0.1994
  367POPI   D2A 5808   4.549   2.598  10.619 -0.0414  0.0065  0.2577
  367POPI   C3A 5809   4.516   2.555  10.201 -0.3021  0.1506  0.0474
  367POPI   C4A 5810   4.455   2.635   9.788 -0.1995 -0.1717 -0.1016
  367POPI   C1B 5811   4.887   2.954  10.743  0.0902  0.0217  0.2765
  367POPI   C2B 5812   4.801   2.972  10.255  0.1829  0.0413 -0.3344
  367POPI   C3B 5813   4.872   2.918   9.873  0.0074  0.0944 -0.2835
  367POPI   C4B 5814   4.924   2.992   9.458  0.0358 -0.1411 -0.2134
  368POPI    C1 5815   9.491  11.540  11.608 -0.3498  0.0022  0.1540
  368POPI    C2 5816   9.834  11.539  11.815 -0.2026 -0.3898 -0.0806
  368POPI    C3 5817   9.711  11.874  11.634 -0.1054 -0.1641  0.2608
  368POPI   PO4 5818   9.493  11.279  11.421 -0.2436 -0.1627 -0.1974
  368POPI   GL1 5819   9.389  11.196  10.990  0.2629 -0.1208 -0.1733
  368POPI   GL2 5820   9.659  11.439  10.923 -0.0987 -0.1014 -0.0101
  368POPI   C1A 5821   9.277  11.160  10.588 -0.0471 -0.0777 -0.1092
  368POPI   D2A 5822   9.085  11.143  10.214 -0.4465  0.0363 -0.4564
  368POPI   C3A 5823   9.128  11.085   9.769  0.1446 -0.2364 -0.0496
  368POPI   C4A 5824   9.027  11.262   9.372 -0.1102  0.0694 -0.2963
  368POPI   C1B 5825   9.658  11.427  10.411  0.1053 -0.1677  0.3433
  368POPI   C2B 5826   9.478  11.438  10.001  0.2009 -0.2322 -0.1685
  368POPI   C3B 5827   9.413  11.480   9.589  0.2728 -0.1173 -0.3514
  368POPI   C4B 5828   9.628  11.459   9.267  0.1646 -0.1528  0.0296
  369POPI    C1 5829   9.733   2.707  11.174 -0.1476 -0.1500  0.3033
  369POPI    C2 5830  10.094   2.708  11.001 -0.1389 -0.0429  0.3212
  369POPI    C3 5831  10.063   2.715  11.400 -0.1610 -0.0469  0.3196
  369POPI   PO4 5832   9.604   2.687  10.872 -0.2804 -0.1123 -0.0567
  369POPI   GL1 5833   9.614   2.819  10.470 -0.1496 -0.2217  0.2629
  369POPI   GL2 5834   9.446   3.076  10.468 -0.4863  0.2721 -0.1044
  369POPI   C1A 5835   9.648   2.627  10.018 -0.2779 -0.0575  0.1383
  369POPI   D2A 5836   9.600   2.589   9.543  0.0305 -0.1739 -0.0251
  369POPI   C3A 5837   9.445   2.880   9.141 -0.1150 -0.1933 -0.0923
  369POPI   C4A 5838   9.188   3.002   8.898  0.1565  0.0757  0.0119
  369POPI   C1B 5839   9.498   3.098  10.057  0.1066  0.1876  0.0102
  369POPI   C2B 5840   9.435   3.095   9.616  0.2938  0.2969  0.1506
  369POPI   C3B 5841   9.313   3.433   9.225 -0.4015 -0.0031  0.2348
  369POPI   C4B 5842   9.263   3.710   8.860 -0.0089 -0.0843 -0.1041
  370POPI    C1 5843  16.908   8.401  11.643  0.0133 -0.0127  0.1656
  370POPI    C2 5844  16.563   8.594  11.703 -0.0738 -0.0991 -0.0469
  370POPI    C3 5845  16.907   8.754  11.831 -0.1537  0.1544 -0.1414
  370POPI   PO4 5846  16.923   8.348  11.329 -0.0644  0.0264  0.0107
  370POPI   GL1 5847  16.729   8.534  10.900 -0.2327 -0.1135 -0.0666
  370POPI   GL2 5848  16.444   8.545  10.834  0.0155 -0.1521 -0.0487
  370POPI   C1A 5849  16.719   8.513  10.411 -0.0183 -0.1704  0.3909
  370POPI   D2A 5850  16.573   8.559  10.058  0.0526 -0.0182 -0.0565
  370POPI   C3A 5851  16.664   8.563   9.718  0.1860  0.1414 -0.1172
  370POPI   C4A 5852  16.662   8.589   9.158 -0.1957  0.3658 -0.0521
  370POPI   C1B 5853  16.164   8.723  10.605 -0.0779 -0.0277  0.0436
  370POPI   C2B 5854  16.135   8.721  10.197  0.1241 -0.2714 -0.1185
  370POPI   C3B 5855  16.204   8.760   9.769 -0.0072  0.4100 -0.1624
  370POPI   C4B 5856  16.099   8.686   9.310  0.2299  0.4064  0.0049
  371POPI    C1 5857  10.529   8.949  11.320  0.0054  0.0902 -0.0609
  371POPI    C2 5858  10.878   9.136  11.374 -0.0817  0.2039  0.1158
  371POPI    C3 5859  10.746   8.877  11.648 -0.0581  0.0348 -0.0310
  371POPI   PO4 5860  10.512   8.882  11.145 -0.0967 -0.0795 -0.1051
  371POPI   GL1 5861  10.321   9.045  10.747 -0.2945  0.3179 -0.2109
  371POPI   GL2 5862  10.516   8.678  10.667  0.0039  0.1924 -0.1839
  371POPI   C1A 5863  10.289   9.023  10.327 -0.0886 -0.1044 -0.2267
  371POPI   D2A 5864  10.303   9.097   9.926  0.0829 -0.1972  0.1046
  371POPI   C3A 5865  10.160   9.288   9.484 -0.1944  0.0450  0.1229
  371POPI   C4A 5866  10.185   9.335   9.005 -0.2314 -0.0779  0.0671
  371POPI   C1B 5867  10.372   8.491  10.239  0.0210 -0.0470 -0.1961
  371POPI   C2B 5868  10.459   8.594   9.884  0.1664 -0.1365  0.1282
  371POPI   C3B 5869  10.472   8.786   9.492  0.1890 -0.0282  0.3518
  371POPI   C4B 5870  10.616   9.152   9.295  0.1595 -0.2133 -0.0955
  372POPI    C1 5871  13.903   7.357  11.629  0.2698  0.1051 -0.2389
  372POPI    C2 5872  13.761   7.396  12.001 -0.0490  0.0997 -0.3563
  372POPI    C3 5873  14.148   7.313  11.941 -0.0139  0.0119 -0.0252
  372POPI   PO4 5874  13.770   7.168  11.552  0.0299 -0.1365  0.1885
  372POPI   GL1 5875  13.844   7.212  11.125 -0.1259 -0.1939  0.2785
  372POPI   GL2 5876  13.739   7.489  11.061  0.0564  0.1904 -0.1362
  372POPI   C1A 5877  13.954   7.171  10.666  0.2403  0.0623 -0.1322
  372POPI   D2A 5878  13.979   7.124  10.206  0.0532  0.0508  0.0871
  372POPI   C3A 5879  14.077   7.089   9.775 -0.1459  0.4058  0.0668
  372POPI   C4A 5880  14.134   7.023   9.353 -0.1214 -0.1132 -0.0117
  372POPI   C1B 5881  13.870   7.713  10.651 -0.2405  0.0830  0.1610
  372POPI   C2B 5882  13.992   7.788  10.192 -0.1343 -0.1898 -0.0847
  372POPI   C3B 5883  14.059   7.686   9.762 -0.0588 -0.1260  0.3143
  372POPI   C4B 5884  13.995   7.514   9.391 -0.1755  0.1710 -0.0906
  373POPI    C1 5885   6.732   8.668  11.354 -0.0159  0.0650 -0.1182
  373POPI    C2 5886   6.904   8.488  11.667  0.2830  0.2495 -0.1719
  373POPI    C3 5887   6.913   8.315  11.306  0.1094  0.1286 -0.1194
  373POPI   PO4 5888   6.898   8.978  11.369  0.0030  0.2648 -0.0310
  373POPI   GL1 5889   7.067   9.376  11.067 -0.0941 -0.0664 -0.0433
  373POPI   GL2 5890   6.715   9.326  11.012 -0.1672  0.1575 -0.2235
  373POPI   C1A 5891   7.124   9.518  10.636  0.0053 -0.0629  0.2694
  373POPI   D2A 5892   7.117   9.619  10.176 -0.0707  0.0381  0.1873
  373POPI   C3A 5893   6.996   9.572   9.713  0.0545 -0.0881 -0.1882
  373POPI   C4A 5894   6.830   9.624   9.276  0.1855  0.1208 -0.4954
  373POPI   C1B 5895   6.682   9.276  10.570 -0.0420  0.0335  0.0577
  373POPI   C2B 5896   6.666   9.309  10.077 -0.0038  0.0006 -0.0380
  373POPI   C3B 5897   6.583   9.285   9.660  0.1128 -0.2195  0.0012
  373POPI   C4B 5898   6.391   9.267   9.271 -0.0546 -0.0968  0.0566
  374POPI    C1 5899  15.001  10.085  11.749  0.3045  0.0945 -0.0262
  374POPI    C2 5900  14.984   9.786  12.014 -0.1635 -0.1439 -0.3125
  374POPI    C3 5901  14.936  10.163  12.136 -0.1260 -0.2294 -0.0254
  374POPI   PO4 5902  15.031   9.846  11.491 -0.1261 -0.0277  0.4189
  374POPI   GL1 5903  15.253   9.878  11.049 -0.2510 -0.2009  0.2056
  374POPI   GL2 5904  15.002  10.088  10.995 -0.0453  0.2340 -0.0672
  374POPI   C1A 5905  15.440   9.971  10.672  0.1326  0.0855  0.2167
  374POPI   D2A 5906  15.427   9.844  10.229  0.0813  0.1936 -0.0470
  374POPI   C3A 5907  15.549   9.878   9.896  0.1630 -0.0281 -0.4460
  374POPI   C4A 5908  15.677  10.226   9.538 -0.1689 -0.0033 -0.0800
  374POPI   C1B 5909  14.910   9.937  10.701  0.1501  0.2881 -0.1565
  374POPI   C2B 5910  14.909   9.956  10.253  0.0894 -0.2798  0.0001
  374POPI   C3B 5911  15.001   9.996   9.936  0.1084 -0.0360 -0.0034
  374POPI   C4B 5912  15.149  10.133   9.579  0.2029 -0.2681 -0.2584
  375POPI    C1 5913   7.020  15.805  11.760 -0.0108  0.1405  0.1903
  375POPI    C2 5914   6.725  15.538  11.798 -0.0190  0.1146 -0.0434
  375POPI    C3 5915   7.072  15.480  11.989  0.0234 -0.1278 -0.1895
  375POPI   PO4 5916   7.013  15.862  11.522  0.0976 -0.2027  0.2026
  375POPI   GL1 5917   6.987  15.949  11.135 -0.1552 -0.2418  0.0049
  375POPI   GL2 5918   7.172  15.645  11.073  0.0215  0.0620 -0.2052
  375POPI   C1A 5919   6.855  16.121  10.738 -0.1405  0.3317 -0.0040
  375POPI   D2A 5920   6.809  16.184  10.331  0.1640 -0.4044 -0.0169
  375POPI   C3A 5921   6.756  16.111  10.002 -0.0749  0.0603  0.0284
  375POPI   C4A 5922   6.847  16.063   9.618 -0.3063 -0.3330  0.0428
  375POPI   C1B 5923   7.205  15.738  10.630 -0.3045 -0.1054 -0.2328
  375POPI   C2B 5924   7.165  15.818  10.133 -0.0946  0.1941  0.0262
  375POPI   C3B 5925   7.204  15.733   9.672 -0.1829 -0.0826  0.1724
  375POPI   C4B 5926   7.227  15.554   9.318 -0.0574 -0.1692 -0.0300
  376POPI    C1 5927   6.430   2.584  11.688  0.1842  0.1570  0.0818
  376POPI    C2 5928   6.647   2.826  11.922  0.0992  0.2142  0.1022
  376POPI    C3 5929   6.574   2.449  12.036  0.3242  0.1436  0.0196
  376POPI   PO4 5930   6.454   2.754  11.502 -0.0877 -0.1042 -0.2560
  376POPI   GL1 5931   6.630   2.771  11.088 -0.1661  0.3493 -0.0673
  376POPI   GL2 5932   6.902   2.599  10.950 -0.2085 -0.1541  0.0256
  376POPI   C1A 5933   6.365   2.719  10.733 -0.2123 -0.0411  0.0035
  376POPI   D2A 5934   6.156   2.726  10.223 -0.0149  0.0517 -0.0034
  376POPI   C3A 5935   6.187   2.803   9.821 -0.0247  0.1446 -0.1499
  376POPI   C4A 5936   6.308   2.889   9.428 -0.0099 -0.3203  0.2904
  376POPI   C1B 5937   6.830   2.525  10.598 -0.0423 -0.2173 -0.0480
  376POPI   C2B 5938   6.658   2.569  10.155  0.0545  0.0974 -0.1460
  376POPI   C3B 5939   6.741   2.580   9.735 -0.1191  0.2270  0.0548
  376POPI   C4B 5940   6.654   2.461   9.282  0.0424  0.0433 -0.1978
  377POPI    C1 5941  11.758   3.461  11.022 -0.1395  0.4535  0.0125
  377POPI    C2 5942  11.428   3.422  10.801  0.0141 -0.0211 -0.1462
  377POPI    C3 5943  11.411   3.364  11.196 -0.1344  0.1883 -0.1200
  377POPI   PO4 5944  11.923   3.336  10.849 -0.0799  0.1714  0.0338
  377POPI   GL1 5945  11.845   3.145  10.427 -0.1036 -0.2738 -0.5233
  377POPI   GL2 5946  11.758   3.378  10.355  0.0610 -0.1154  0.0637
  377POPI   C1A 5947  12.122   3.065  10.039 -0.0733  0.0291 -0.2068
  377POPI   D2A 5948  12.088   3.022   9.523 -0.2265 -0.1395 -0.0451
  377POPI   C3A 5949  11.936   3.115   9.166  0.2523 -0.3808  0.0520
  377POPI   C4A 5950  11.790   3.114   8.727  0.0332  0.3227  0.2034
  377POPI   C1B 5951  11.791   3.373   9.908  0.1272 -0.3021 -0.0285
  377POPI   C2B 5952  11.682   3.550   9.534  0.0387  0.0898  0.0674
  377POPI   C3B 5953  11.630   3.583   9.144 -0.0948 -0.1939 -0.1512
  377POPI   C4B 5954  11.919   3.661   8.768  0.4183  0.1313  0.0319
  378POPI    C1 5955  13.350   5.088  11.089  0.1716 -0.1343 -0.0433
  378POPI    C2 5956  13.515   4.732  11.009 -0.2603 -0.2933 -0.2539
  378POPI    C3 5957  13.337   4.795  11.362  0.2955 -0.0986  0.0017
  378POPI   PO4 5958  13.223   5.097  10.887  0.1260 -0.0762 -0.1554
  378POPI   GL1 5959  13.406   4.943  10.454  0.0806 -0.3644 -0.3704
  378POPI   GL2 5960  12.993   4.881  10.333 -0.1626 -0.4538  0.1738
  378POPI   C1A 5961  13.487   4.790  10.062  0.1772  0.1782  0.2957
  378POPI   D2A 5962  13.429   4.763   9.624 -0.0430 -0.0557  0.0461
  378POPI   C3A 5963  13.584   4.749   9.309 -0.2310  0.0694 -0.1101
  378POPI   C4A 5964  13.587   4.821   8.799  0.1198 -0.2019 -0.0133
  378POPI   C1B 5965  12.976   4.894   9.883 -0.4548  0.3477 -0.2509
  378POPI   C2B 5966  12.974   4.977   9.438 -0.1032  0.0457  0.1180
  378POPI   C3B 5967  13.092   4.842   9.146  0.0396  0.3913  0.0512
  378POPI   C4B 5968  13.108   4.710   8.732  0.1230  0.0003  0.1836
  379POPI    C1 5969   9.950   9.594  11.395 -0.0830  0.0423  0.0667
  379POPI    C2 5970   9.911   9.320  11.684  0.0152 -0.0515 -0.0083
  379POPI    C3 5971  10.075   9.675  11.766  0.1328 -0.1140  0.0298
  379POPI   PO4 5972   9.703   9.593  11.225 -0.1599  0.1390 -0.0868
  379POPI   GL1 5973   9.502   9.591  10.824 -0.1253 -0.0149  0.0278
  379POPI   GL2 5974   9.414   9.294  10.962  0.0969  0.1831  0.2154
  379POPI   C1A 5975   9.311   9.519  10.365  0.0481 -0.0473  0.1253
  379POPI   D2A 5976   9.448   9.583  10.028 -0.3899  0.0442  0.2773
  379POPI   C3A 5977   9.296   9.572   9.705 -0.1826 -0.1656  0.2440
  379POPI   C4A 5978   9.226   9.653   9.207 -0.0930 -0.1395  0.2887
  379POPI   C1B 5979   9.393   9.021  10.719 -0.2459 -0.1358 -0.1174
  379POPI   C2B 5980   9.379   8.975  10.270  0.0324 -0.1739 -0.2857
  379POPI   C3B 5981   9.417   9.060   9.845  0.0473 -0.2821  0.0802
  379POPI   C4B 5982   9.430   9.096   9.404  0.0568  0.0965  0.0608
  380POPI    C1 5983  14.360  13.103  11.456  0.0844  0.0093  0.0397
  380POPI    C2 5984  14.737  13.236  11.459  0.1544 -0.1865  0.1915
  380POPI    C3 5985  14.580  13.072  11.789 -0.0310 -0.1974  0.0992
  380POPI   PO4 5986  14.332  13.155  11.196  0.1571  0.1953 -0.0881
  380POPI   GL1 5987  14.064  13.350  10.932  0.0235  0.1753 -0.0597
  380POPI   GL2 5988  13.717  13.277  10.868 -0.3867  0.0418  0.0507
  380POPI   C1A 5989  14.206  13.272  10.572 -0.0374  0.0604 -0.0125
  380POPI   D2A 5990  14.399  13.206  10.229  0.2192 -0.1865  0.0291
  380POPI   C3A 5991  14.275  13.117   9.794  0.2808 -0.1938  0.3531
  380POPI   C4A 5992  14.298  13.016   9.407  0.2091 -0.2999  0.2265
  380POPI   C1B 5993  13.746  13.257  10.420  0.0244 -0.0749  0.1253
  380POPI   C2B 5994  13.849  13.255   9.956 -0.1011 -0.1871  0.0169
  380POPI   C3B 5995  13.904  13.338   9.493 -0.2042  0.0692  0.1415
  380POPI   C4B 5996  13.844  13.347   9.139  0.0304  0.3107 -0.0494
  381POPI    C1 5997   6.331  16.405  11.613  0.1142  0.0017  0.0314
  381POPI    C2 5998   6.347  16.697  11.341  0.3555  0.0113  0.0539
  381POPI    C3 5999   6.232  16.778  11.716 -0.0046 -0.0069 -0.0492
  381POPI   PO4 6000   6.166  16.258  11.509 -0.2252 -0.2931 -0.1868
  381POPI   GL1 6001   5.954  16.215  11.157  0.4701 -0.0278  0.1311
  381POPI   GL2 6002   6.072  16.540  10.985  0.4284  0.3034  0.1607
  381POPI   C1A 6003   5.797  16.148  10.745 -0.1442  0.0775 -0.0139
  381POPI   D2A 6004   5.692  16.240  10.283  0.0003  0.0714 -0.5016
  381POPI   C3A 6005   5.481  15.927  10.062 -0.0444 -0.2345  0.1985
  381POPI   C4A 6006   5.289  15.929   9.725 -0.1596  0.1058 -0.1956
  381POPI   C1B 6007   6.025  16.581  10.489  0.1137 -0.0320  0.1173
  381POPI   C2B 6008   5.808  16.679  10.089 -0.4320  0.1976 -0.1769
  381POPI   C3B 6009   5.594  16.823   9.689 -0.2158 -0.3035  0.0365
  381POPI   C4B 6010   5.228  16.979   9.787  0.2296 -0.0171 -0.1196
  382POPI    C1 6011  11.957   2.015  11.010 -0.1458 -0.1225 -0.0678
  382POPI    C2 6012  12.193   1.830  11.275 -0.3087 -0.0796  0.1092
  382POPI    C3 6013  12.235   2.223  11.209 -0.0897 -0.1397 -0.1278
  382POPI   PO4 6014  11.980   1.832  10.834  0.2830 -0.2138  0.0766
  382POPI   GL1 6015  11.641   1.845  10.499  0.4765  0.0468 -0.0639
  382POPI   GL2 6016  11.773   2.084  10.436 -0.0965  0.3118 -0.1765
  382POPI   C1A 6017  11.653   1.835  10.019 -0.0196 -0.1226  0.1391
  382POPI   D2A 6018  11.869   1.729   9.562 -0.1926  0.0803 -0.0896
  382POPI   C3A 6019  11.898   1.804   9.178  0.0297 -0.3089 -0.0781
  382POPI   C4A 6020  11.922   2.179   8.930 -0.1434  0.0038  0.0240
  382POPI   C1B 6021  12.013   2.217  10.076 -0.0508 -0.4382 -0.2534
  382POPI   C2B 6022  12.108   2.200   9.612 -0.2165 -0.1364 -0.3054
  382POPI   C3B 6023  12.283   2.131   9.268  0.1507  0.0553 -0.1056
  382POPI   C4B 6024  12.640   2.038   8.882 -0.1826 -0.0796 -0.0685
  383POPI    C1 6025  16.622   9.031  11.381  0.1394 -0.5383  0.1130
  383POPI    C2 6026  16.288   9.054  11.164  0.2566  0.1932 -0.0163
  383POPI    C3 6027  16.266   9.032  11.562  0.0527  0.4348 -0.0118
  383POPI   PO4 6028  16.776   8.884  11.258 -0.3476  0.2249 -0.0117
  383POPI   GL1 6029  17.060   8.990  10.997 -0.1002  0.2506  0.0672
  383POPI   GL2 6030  17.373   9.145  11.139  0.1500  0.1842  0.0538
  383POPI   C1A 6031  17.065   8.833  10.554 -0.0991  0.1177 -0.1485
  383POPI   D2A 6032  17.143   8.870  10.151  0.0269  0.2205 -0.0131
  383POPI   C3A 6033  17.073   8.959   9.752 -0.1870  0.1436  0.2136
  383POPI   C4A 6034  17.027   8.838   9.423 -0.0366  0.0173 -0.1500
  383POPI   C1B 6035  17.505   9.014  10.753 -0.1610 -0.3046 -0.1136
  383POPI   C2B 6036  17.625   8.925  10.282 -0.2560  0.1268 -0.2306
  383POPI   C3B 6037  17.599   8.668   9.843  0.0755  0.0363  0.1539
  383POPI   C4B 6038  17.525   8.740   9.464  0.0866 -0.1055 -0.0957
  384POPI    C1 6039  11.338   5.838  11.076  0.1240 -0.1533 -0.1517
  384POPI    C2 6040  11.681   5.640  11.131  0.0568 -0.2253  0.0138
  384POPI    C3 6041  11.336   5.481  11.257  0.0006 -0.0095  0.1381
  384POPI   PO4 6042  11.396   5.941  10.848 -0.0039  0.1906 -0.1702
  384POPI   GL1 6043  11.535   5.795  10.505  0.3640 -0.0103  0.3334
  384POPI   GL2 6044  11.459   5.637  10.255  0.0718 -0.3946 -0.0587
  384POPI   C1A 6045  11.942   5.632  10.300 -0.4065  0.0663 -0.0576
  384POPI   D2A 6046  12.197   5.555   9.951  0.0849  0.1999 -0.0148
  384POPI   C3A 6047  12.036   5.514   9.612 -0.1439  0.1946 -0.0495
  384POPI   C4A 6048  11.839   5.877   9.419  0.0928  0.1137  0.2717
  384POPI   C1B 6049  10.953   5.689  10.203  0.2716 -0.0318  0.0596
  384POPI   C2B 6050  10.649   5.734   9.947  0.0561  0.1852 -0.1108
  384POPI   C3B 6051  10.562   5.884   9.563  0.0348  0.0204 -0.0867
  384POPI   C4B 6052  10.551   6.150   9.112 -0.1373  0.2613 -0.0352
  385POPI    C1 6053   1.184  12.679  12.165 -0.1243  0.0311 -0.0533
  385POPI    C2 6054   0.824  12.513  12.215 -0.0282 -0.1373  0.0888
  385POPI    C3 6055   0.894  12.883  12.351 -0.1478 -0.1030  0.0584
  385POPI   PO4 6056   1.192  12.572  11.857  0.1221 -0.2651  0.0401
  385POPI   GL1 6057   1.269  12.565  11.424  0.2297 -0.2175  0.2413
  385POPI   GL2 6058   0.989  12.547  11.398 -0.0347 -0.1436  0.3535
  385POPI   C1A 6059   1.554  12.609  11.169  0.5302  0.1036  0.1985
  385POPI   D2A 6060   1.636  12.379  10.813  0.1179  0.3289  0.0039
  385POPI   C3A 6061   1.698  12.488  10.365  0.0383 -0.0479 -0.1334
  385POPI   C4A 6062   1.718  12.523   9.940 -0.0018  0.0018  0.0760
  385POPI   C1B 6063   1.066  12.652  10.890  0.1313 -0.0041  0.0234
  385POPI   C2B 6064   1.205  12.682  10.465 -0.2892  0.0665  0.1414
  385POPI   C3B 6065   1.259  12.816  10.084 -0.0150  0.3906  0.0120
  385POPI   C4B 6066   1.384  12.871   9.671 -0.0339  0.2194 -0.2360
  386POPI    C1 6067   9.472   0.200  10.997  0.2508 -0.0284 -0.0509
  386POPI    C2 6068   9.264   0.507  10.847 -0.0396 -0.1922  0.0074
  386POPI    C3 6069   9.464   0.549  11.191 -0.1347 -0.0887  0.0505
  386POPI   PO4 6070   9.509   0.065  10.855 -0.2071 -0.1205 -0.3230
  386POPI   GL1 6071   9.519  -0.134  10.478 -0.0230 -0.0207  0.1274
  386POPI   GL2 6072   9.503  -0.333  10.586 -0.0760  0.1552  0.3356
  386POPI   C1A 6073   9.645  -0.048  10.078  0.0080  0.0835  0.1426
  386POPI   D2A 6074   9.811   0.066   9.681  0.1194 -0.1501 -0.0910
  386POPI   C3A 6075   9.607  -0.177   9.362  0.0750 -0.0057  0.0859
  386POPI   C4A 6076   9.756  -0.311   9.015 -0.1041 -0.1773 -0.0957
  386POPI   C1B 6077   9.420  -0.571  10.148  0.3301 -0.2278 -0.1585
  386POPI   C2B 6078   9.331  -0.563   9.688 -0.0369 -0.2038 -0.0552
  386POPI   C3B 6079   9.226  -0.417   9.285  0.0054 -0.1038  0.0422
  386POPI   C4B 6080   9.325  -0.063   8.950  0.1788  0.1349 -0.1393
  387POPI    C1 6081   1.910  10.149  11.780  0.1718 -0.0338  0.0952
  387POPI    C2 6082   1.937  10.404  12.087 -0.0318 -0.0509  0.1289
  387POPI    C3 6083   2.106  10.043  12.112 -0.0106 -0.0360  0.2038
  387POPI   PO4 6084   1.760  10.276  11.660  0.4970 -0.1619  0.1366
  387POPI   GL1 6085   1.774  10.538  11.403  0.0088 -0.2567 -0.2620
  387POPI   GL2 6086   1.676  10.936  11.453 -0.0087 -0.1240  0.1661
  387POPI   C1A 6087   1.920  10.395  10.938  0.0015 -0.0242 -0.0441
  387POPI   D2A 6088   2.006  10.313  10.438 -0.1311  0.1457  0.2059
  387POPI   C3A 6089   1.907  10.433  10.059 -0.1260  0.2153 -0.1197
  387POPI   C4A 6090   2.014  10.367   9.640  0.0704 -0.1090  0.0249
  387POPI   C1B 6091   1.867  10.975  11.041  0.0402 -0.0870 -0.0228
  387POPI   C2B 6092   1.980  10.859  10.698  0.0929 -0.0427  0.0948
  387POPI   C3B 6093   1.947  10.827  10.341 -0.0329  0.3950  0.4813
  387POPI   C4B 6094   1.827  10.975   9.983 -0.2518  0.3261  0.2222
  388POPI    C1 6095   6.569  14.489  11.535  0.3341  0.1974 -0.0671
  388POPI    C2 6096   6.201  14.618  11.445  0.2927  0.0437 -0.1212
  388POPI    C3 6097   6.349  14.675  11.812  0.1504 -0.0403 -0.0497
  388POPI   PO4 6098   6.656  14.440  11.295  0.0031  0.3436  0.2163
  388POPI   GL1 6099   6.378  14.426  10.965 -0.3688 -0.2906 -0.3564
  388POPI   GL2 6100   6.075  14.513  11.017 -0.0897 -0.2106 -0.2240
  388POPI   C1A 6101   6.691  14.190  10.652 -0.3430  0.0694  0.1291
  388POPI   D2A 6102   6.745  13.819  10.430  0.1014  0.1672  0.1868
  388POPI   C3A 6103   6.747  13.821   9.991 -0.1421  0.0320  0.1471
  388POPI   C4A 6104   6.753  13.617   9.567  0.1982  0.1627 -0.2345
  388POPI   C1B 6105   5.975  14.524  10.574 -0.0077 -0.1368  0.2325
  388POPI   C2B 6106   6.087  14.613  10.211 -0.1117 -0.1043 -0.1866
  388POPI   C3B 6107   6.115  14.686   9.835  0.1904  0.1065  0.0904
  388POPI   C4B 6108   6.391  14.575   9.461  0.0536 -0.1585 -0.3954
  389POPI    C1 6109  11.494  13.377  11.626  0.2949  0.1196  0.0482
  389POPI    C2 6110  11.783  13.263  11.877 -0.0138  0.0053  0.3599
  389POPI    C3 6111  11.502  13.520  11.999 -0.0538  0.1049  0.0648
  389POPI   PO4 6112  11.546  13.465  11.398 -0.2210 -0.3305 -0.0925
  389POPI   GL1 6113  11.493  13.547  10.980 -0.1866  0.1588 -0.1005
  389POPI   GL2 6114  11.331  13.840  11.003 -0.0515  0.0952 -0.0623
  389POPI   C1A 6115  11.297  13.694  10.566  0.3158 -0.0771 -0.1297
  389POPI   D2A 6116  11.511  13.789  10.205  0.1433 -0.1762  0.2098
  389POPI   C3A 6117  11.479  13.764   9.752 -0.1324 -0.1025  0.0023
  389POPI   C4A 6118  11.480  13.757   9.297 -0.0491  0.0047  0.2270
  389POPI   C1B 6119  11.800  13.820  10.726 -0.1685  0.0456 -0.0067
  389POPI   C2B 6120  11.923  14.020  10.369 -0.0012 -0.1662  0.0912
  389POPI   C3B 6121  11.871  14.064   9.891  0.0994  0.1844 -0.0667
  389POPI   C4B 6122  11.925  14.100   9.480  0.0532  0.1194  0.1450
  390POPI    C1 6123  11.788   5.151  10.981  0.0073  0.1148 -0.0605
  390POPI    C2 6124  12.171   5.133  10.867  0.0711 -0.2149  0.1907
  390POPI    C3 6125  12.070   5.330  11.200 -0.0120  0.0723 -0.0007
  390POPI   PO4 6126  11.628   5.226  10.798 -0.0528  0.1195  0.0051
  390POPI   GL1 6127  11.434   5.062  10.436 -0.1129 -0.0247  0.1971
  390POPI   GL2 6128  11.108   4.885  10.423  0.0971 -0.0660 -0.0513
  390POPI   C1A 6129  11.620   5.274   9.995  0.1605  0.0747  0.2036
  390POPI   D2A 6130  11.588   5.251   9.550 -0.0529  0.0433  0.2989
  390POPI   C3A 6131  11.456   5.557   9.256  0.0879 -0.2923 -0.1090
  390POPI   C4A 6132  11.552   5.848   8.961 -0.0290  0.1756 -0.1799
  390POPI   C1B 6133  11.128   5.214  10.043  0.2262  0.0532  0.2146
  390POPI   C2B 6134  11.175   5.496   9.737 -0.2140 -0.0750  0.2728
  390POPI   C3B 6135  10.994   5.616   9.369 -0.0387 -0.0932  0.1935
  390POPI   C4B 6136  10.979   5.901   9.085 -0.2072 -0.1555  0.2840
  391POPI    C1 6137   3.945  16.072  11.794 -0.2715 -0.0084 -0.0774
  391POPI    C2 6138   3.946  16.343  12.089 -0.2925  0.0816 -0.1596
  391POPI    C3 6139   4.214  16.369  11.793 -0.1726 -0.0973 -0.0688
  391POPI   PO4 6140   3.831  16.059  11.677  0.1091 -0.0186 -0.1696
  391POPI   GL1 6141   3.398  16.202  11.526  0.1011 -0.0626 -0.0962
  391POPI   GL2 6142   3.538  16.036  11.279 -0.0541 -0.1463 -0.2224
  391POPI   C1A 6143   3.056  16.345  11.177 -0.0181 -0.5851 -0.0604
  391POPI   D2A 6144   3.167  16.364  10.748  0.0879  0.1332 -0.0968
  391POPI   C3A 6145   3.084  16.342  10.425 -0.0316  0.4040 -0.1037
  391POPI   C4A 6146   3.045  16.418   9.991 -0.0885  0.0892  0.0411
  391POPI   C1B 6147   3.711  16.122  10.967  0.0131 -0.1351 -0.0878
  391POPI   C2B 6148   3.601  16.156  10.554 -0.1487 -0.1807  0.0484
  391POPI   C3B 6149   3.556  16.135  10.208 -0.1854 -0.0331  0.0897
  391POPI   C4B 6150   3.550  16.168   9.773  0.1194  0.0304 -0.1559
  392POPI    C1 6151   0.173   0.027  12.252  0.0364 -0.0464  0.0142
  392POPI    C2 6152   0.517  -0.134  12.126  0.0541  0.0079 -0.0073
  392POPI    C3 6153   0.500   0.047  12.482  0.0654  0.0655 -0.0356
  392POPI   PO4 6154   0.104   0.088  11.939  0.1339  0.0617  0.0613
  392POPI   GL1 6155   0.325   0.150  11.562 -0.1084 -0.0242  0.3030
  392POPI   GL2 6156   0.566  -0.097  11.648  0.1137 -0.2490 -0.1445
  392POPI   C1A 6157   0.129   0.128  11.163  0.2382  0.0936  0.1778
  392POPI   D2A 6158   0.175   0.050  10.717 -0.0068 -0.0929  0.0094
  392POPI   C3A 6159   0.255  -0.085  10.350  0.0101 -0.0602 -0.3161
  392POPI   C4A 6160   0.314  -0.099   9.862  0.0381  0.0535 -0.2213
  392POPI   C1B 6161   0.590  -0.095  11.171  0.3013 -0.0735 -0.0015
  392POPI   C2B 6162   0.653  -0.164  10.799  0.3326  0.2687  0.0973
  392POPI   C3B 6163   0.723  -0.257  10.433 -0.1677 -0.1998  0.0733
  392POPI   C4B 6164   0.710  -0.404   9.910  0.0691 -0.3613  0.0174
  393POPI    C1 6165   9.486   1.760  10.927  0.0752 -0.0740  0.1210
  393POPI    C2 6166   9.739   1.761  10.617 -0.1078  0.4297 -0.0364
  393POPI    C3 6167   9.869   1.861  10.981  0.1145 -0.1918  0.0667
  393POPI   PO4 6168   9.307   1.587  10.865 -0.0356 -0.0957 -0.1982
  393POPI   GL1 6169   9.265   1.335  10.611 -0.1948 -0.0732  0.0948
  393POPI   GL2 6170   8.947   1.101  10.597 -0.1602 -0.0203 -0.2865
  393POPI   C1A 6171   9.093   1.346  10.237  0.1976 -0.0938 -0.1711
  393POPI   D2A 6172   9.043   1.350   9.786 -0.1144  0.0016  0.0293
  393POPI   C3A 6173   9.010   1.161   9.473  0.0303 -0.2402 -0.0520
  393POPI   C4A 6174   9.153   1.393   9.222 -0.2131  0.0736  0.1404
  393POPI   C1B 6175   8.930   0.900  10.149 -0.2409 -0.0212 -0.2141
  393POPI   C2B 6176   8.997   0.665   9.746  0.2628  0.1749 -0.0834
  393POPI   C3B 6177   9.165   0.661   9.323  0.1784 -0.2616  0.1101
  393POPI   C4B 6178   9.454   0.510   8.934 -0.0790  0.0487 -0.1673
  394POPI    C1 6179   9.211  14.461  11.307  0.1205  0.1312 -0.0707
  394POPI    C2 6180   9.462  14.735  11.454 -0.0688  0.3281 -0.1107
  394POPI    C3 6181   9.167  14.590  11.683  0.1019  0.0680 -0.0509
  394POPI   PO4 6182   9.255  14.402  11.141  0.0160  0.0164  0.0891
  394POPI   GL1 6183   9.057  14.361  10.716 -0.1543  0.0487  0.1019
  394POPI   GL2 6184   8.877  14.130  10.893  0.1174  0.1209  0.2083
  394POPI   C1A 6185   9.009  14.374  10.354  0.2556  0.0296 -0.0404
  394POPI   D2A 6186   8.894  14.387   9.926  0.1422  0.1915 -0.1603
  394POPI   C3A 6187   8.720  14.349   9.573  0.4246  0.1702 -0.1692
  394POPI   C4A 6188   8.646  14.521   9.211 -0.0001  0.1014  0.0040
  394POPI   C1B 6189   8.831  13.873  10.435  0.0252 -0.0468 -0.0186
  394POPI   C2B 6190   8.722  13.928  10.053 -0.1152 -0.0443  0.2470
  394POPI   C3B 6191   8.812  13.871   9.616  0.0284  0.3281 -0.1019
  394POPI   C4B 6192   8.955  13.934   9.214 -0.1387 -0.0255 -0.0404
  395POPI    C1 6193  10.313   2.246  10.901 -0.1266  0.0622 -0.0325
  395POPI    C2 6194  10.444   2.448  11.220 -0.1489  0.2789 -0.1589
  395POPI    C3 6195  10.116   2.221  11.248  0.0103  0.0703  0.0462
  395POPI   PO4 6196  10.291   2.408  10.647  0.0772 -0.1030  0.1164
  395POPI   GL1 6197  10.090   2.707  10.514  0.0342 -0.1470  0.1534
  395POPI   GL2 6198  10.558   2.743  10.398 -0.0193  0.0035  0.3022
  395POPI   C1A 6199  10.095   2.798  10.075  0.2101 -0.0129  0.4233
  395POPI   D2A 6200   9.950   3.002   9.633  0.1447 -0.2238  0.0131
  395POPI   C3A 6201   9.908   2.918   9.257 -0.1620 -0.0943 -0.1628
  395POPI   C4A 6202   9.884   2.596   8.944 -0.1582 -0.1334 -0.0499
  395POPI   C1B 6203  10.580   2.631   9.903  0.3750  0.1802  0.0019
  395POPI   C2B 6204  10.465   2.847   9.517 -0.1427  0.0735 -0.2319
  395POPI   C3B 6205  10.397   2.738   9.121 -0.0692 -0.0705  0.1182
  395POPI   C4B 6206  10.211   2.894   8.673  0.2814 -0.2571 -0.2272
  396POPI    C1 6207   7.140   5.179  11.513  0.0749 -0.2409 -0.1099
  396POPI    C2 6208   7.440   4.965  11.668 -0.0171 -0.1876  0.1477
  396POPI    C3 6209   7.095   4.998  11.867 -0.0453  0.1027  0.0557
  396POPI   PO4 6210   7.263   5.217  11.277 -0.1477 -0.2927  0.1546
  396POPI   GL1 6211   7.149   5.371  10.874  0.1794 -0.1642  0.2899
  396POPI   GL2 6212   6.715   5.499  10.819  0.0139  0.0120  0.1235
  396POPI   C1A 6213   7.064   5.429  10.405 -0.0551  0.3080 -0.0086
  396POPI   D2A 6214   6.796   5.457   9.968 -0.1195 -0.0062 -0.0317
  396POPI   C3A 6215   6.946   5.550   9.586 -0.1414  0.1299  0.2902
  396POPI   C4A 6216   6.943   5.494   9.098 -0.0751  0.2083 -0.1251
  396POPI   C1B 6217   6.524   5.216  10.458 -0.2415 -0.1268 -0.2064
  396POPI   C2B 6218   6.482   5.075  10.104 -0.2062  0.0689 -0.3861
  396POPI   C3B 6219   6.437   5.235   9.664 -0.3303  0.1340 -0.2337
  396POPI   C4B 6220   6.528   5.227   9.254 -0.0768  0.1684  0.0173
  397POPI    C1 6221   7.106  13.459  11.652 -0.0268 -0.0956 -0.0142
  397POPI    C2 6222   7.369  13.169  11.737  0.1439  0.0588 -0.0118
  397POPI    C3 6223   7.179  13.359  12.033  0.1786  0.0832 -0.0051
  397POPI   PO4 6224   7.202  13.609  11.449 -0.2394 -0.4834 -0.0389
  397POPI   GL1 6225   7.363  13.627  10.978  0.3689 -0.0352 -0.1703
  397POPI   GL2 6226   7.016  13.648  11.018 -0.0193 -0.0028 -0.3007
  397POPI   C1A 6227   7.249  13.745  10.591  0.0858 -0.2743 -0.1941
  397POPI   D2A 6228   7.140  13.554  10.217  0.1004  0.0778  0.0618
  397POPI   C3A 6229   7.177  13.810   9.795 -0.0927 -0.0181  0.0111
  397POPI   C4A 6230   7.399  14.218   9.597 -0.1618 -0.1741  0.4819
  397POPI   C1B 6231   6.596  13.645  10.876  0.1916  0.1302  0.3426
  397POPI   C2B 6232   6.415  13.474  10.592  0.1056  0.2698 -0.0800
  397POPI   C3B 6233   6.304  13.547  10.228  0.1760 -0.0835  0.1426
  397POPI   C4B 6234   6.232  13.748   9.950  0.0613 -0.0261 -0.1397
  398POPI    C1 6235  12.450   5.501  11.481  0.0879  0.0030 -0.0996
  398POPI    C2 6236  12.817   5.645  11.548  0.1781 -0.1372 -0.2810
  398POPI    C3 6237  12.641   5.412  11.821  0.1141  0.1444 -0.0765
  398POPI   PO4 6238  12.587   5.428  11.145  0.1728  0.1820 -0.0118
  398POPI   GL1 6239  12.470   5.540  10.795  0.1349  0.1909  0.0161
  398POPI   GL2 6240  12.657   5.714  10.539 -0.2715  0.1677  0.1626
  398POPI   C1A 6241  12.346   5.323  10.428 -0.2698 -0.1688 -0.0709
  398POPI   D2A 6242  12.619   5.183  10.122  0.4210  0.1823  0.1245
  398POPI   C3A 6243  12.499   5.139   9.746 -0.1465 -0.1827  0.1041
  398POPI   C4A 6244  12.396   5.272   9.328  0.0313  0.1941  0.0103
  398POPI   C1B 6245  12.618   5.697  10.206  0.1527  0.1587  0.0170
  398POPI   C2B 6246  12.791   5.638   9.826  0.1826  0.1911 -0.1139
  398POPI   C3B 6247  12.843   5.457   9.529  0.0704 -0.2682 -0.0315
  398POPI   C4B 6248  12.843   5.441   9.101 -0.2548 -0.3197 -0.0169
  399POPI    C1 6249   2.373   1.125  12.095  0.2719 -0.0065 -0.3066
  399POPI    C2 6250   2.552   1.482  12.090 -0.0803  0.1778 -0.1157
  399POPI    C3 6251   2.321   1.378  12.400 -0.0204 -0.1980 -0.1926
  399POPI   PO4 6252   2.264   1.097  11.790  0.0663 -0.0142  0.2195
  399POPI   GL1 6253   2.184   0.733  11.490  0.1132  0.3033  0.0337
  399POPI   GL2 6254   2.417   0.437  11.415  0.1564  0.1225  0.0409
  399POPI   C1A 6255   2.286   0.865  11.006  0.2073 -0.1714 -0.3157
  399POPI   D2A 6256   2.352   0.811  10.548 -0.1781 -0.1661  0.1203
  399POPI   C3A 6257   2.412   0.967  10.237  0.1230 -0.0839  0.1611
  399POPI   C4A 6258   2.282   1.001   9.807  0.1961 -0.0684 -0.2007
  399POPI   C1B 6259   2.454   0.372  10.996 -0.1171  0.0712 -0.3210
  399POPI   C2B 6260   2.561   0.363  10.681  0.1944 -0.0257  0.0093
  399POPI   C3B 6261   2.439   0.375  10.204 -0.0369 -0.0381 -0.1279
  399POPI   C4B 6262   2.394   0.495   9.741 -0.3336  0.1065  0.1140
  400POPI    C1 6263  13.674   3.487  11.120 -0.3130  0.0136  0.0333
  400POPI    C2 6264  13.750   3.611  11.493 -0.1531 -0.1532  0.0578
  400POPI    C3 6265  13.462   3.342  11.427 -0.3107  0.0183  0.0370
  400POPI   PO4 6266  13.687   3.710  10.982 -0.0063  0.0451 -0.2237
  400POPI   GL1 6267  13.962   3.750  10.750  0.1873 -0.3611  0.0438
  400POPI   GL2 6268  13.819   3.977  10.514  0.2866  0.4157  0.0392
  400POPI   C1A 6269  14.088   3.503  10.355 -0.0775  0.1946  0.2275
  400POPI   D2A 6270  14.104   3.590   9.889  0.2641  0.0658 -0.0066
  400POPI   C3A 6271  14.199   3.488   9.585  0.1148  0.3047 -0.0183
  400POPI   C4A 6272  14.469   3.564   9.234  0.0038 -0.2006 -0.1240
  400POPI   C1B 6273  13.919   3.982  10.142  0.1570  0.0539 -0.1021
  400POPI   C2B 6274  13.960   4.049   9.761 -0.0810 -0.2420  0.2301
  400POPI   C3B 6275  14.111   3.960   9.454 -0.1976  0.0137 -0.2267
  400POPI   C4B 6276  14.177   3.894   9.001  0.0089 -0.1476  0.2052
  401POPI    C1 6277   1.983   4.394  11.678  0.0570 -0.0595 -0.0053
  401POPI    C2 6278   2.036   4.743  11.865 -0.3940 -0.0725  0.1606
  401POPI    C3 6279   2.012   4.405  12.077 -0.0497 -0.1979  0.0073
  401POPI   PO4 6280   1.724   4.440  11.509 -0.0537 -0.2533  0.0863
  401POPI   GL1 6281   1.568   4.475  11.137  0.4378  0.0926 -0.1597
  401POPI   GL2 6282   1.620   4.148  11.150 -0.2828  0.0806  0.3576
  401POPI   C1A 6283   1.512   4.438  10.681  0.1835  0.0299  0.0139
  401POPI   D2A 6284   1.470   4.292  10.361 -0.1204  0.0238 -0.0624
  401POPI   C3A 6285   1.685   4.457  10.004  0.0058  0.1243  0.0877
  401POPI   C4A 6286   1.645   4.495   9.502  0.2173  0.0605 -0.1819
  401POPI   C1B 6287   1.530   3.802  10.781  0.3181  0.1478 -0.0216
  401POPI   C2B 6288   1.259   3.702  10.498  0.1198 -0.0979  0.1727
  401POPI   C3B 6289   1.189   3.555  10.122 -0.2707 -0.2819 -0.1234
  401POPI   C4B 6290   1.232   3.553   9.741 -0.3409  0.1128 -0.3014
  402POPI    C1 6291   7.964  11.527  11.680 -0.0229  0.1747 -0.2372
  402POPI    C2 6292   8.007  11.906  11.799  0.0159  0.1503 -0.1728
  402POPI    C3 6293   7.692  11.693  11.921  0.0038  0.1560 -0.1941
  402POPI   PO4 6294   7.963  11.458  11.452 -0.4000 -0.1111 -0.0647
  402POPI   GL1 6295   8.189  11.503  10.996  0.1532 -0.0794 -0.1866
  402POPI   GL2 6296   7.841  11.295  10.973 -0.2193  0.0331 -0.0301
  402POPI   C1A 6297   8.212  11.560  10.641  0.2021 -0.2451 -0.3172
  402POPI   D2A 6298   8.135  11.523  10.249 -0.2906 -0.2373 -0.4401
  402POPI   C3A 6299   8.206  11.553   9.775  0.1115 -0.0650 -0.0016
  402POPI   C4A 6300   8.039  11.607   9.340  0.0291 -0.0085  0.1019
  402POPI   C1B 6301   7.800  11.283  10.510 -0.0762 -0.1749  0.1254
  402POPI   C2B 6302   7.782  11.243  10.102 -0.0961 -0.2234  0.0657
  402POPI   C3B 6303   7.729  11.163   9.764  0.0004  0.0643  0.1249
  402POPI   C4B 6304   7.677  11.222   9.309  0.1183  0.0095 -0.1039
  403POPI    C1 6305  12.911  17.086  11.505 -0.2685 -0.0109  0.1634
  403POPI    C2 6306  13.257  17.277  11.448 -0.3130 -0.0130 -0.1272
  403POPI    C3 6307  13.218  17.020  11.752 -0.0467 -0.0440 -0.1167
  403POPI   PO4 6308  12.859  17.049  11.183  0.0794  0.1437 -0.1511
  403POPI   GL1 6309  12.962  16.766  10.816 -0.0096 -0.2125 -0.1323
  403POPI   GL2 6310  12.657  16.887  10.727 -0.1831 -0.2152  0.2014
  403POPI   C1A 6311  12.971  16.566  10.459  0.5201  0.1759 -0.0685
  403POPI   D2A 6312  13.121  16.571  10.174  0.0832 -0.1795  0.2326
  403POPI   C3A 6313  13.072  16.595   9.745 -0.2470  0.2583  0.2572
  403POPI   C4A 6314  12.979  16.595   9.363 -0.1382 -0.1021  0.1471
  403POPI   C1B 6315  12.563  16.770  10.274  0.1252  0.1106  0.1605
  403POPI   C2B 6316  12.589  16.739   9.774  0.2770 -0.1566  0.2374
  403POPI   C3B 6317  12.490  16.788   9.255  0.1714  0.2725  0.0677
  403POPI   C4B 6318  12.569  16.956   8.805 -0.5586  0.2823 -0.0866
  404POPI    C1 6319   6.526   0.824  11.575  0.1005  0.1081  0.2218
  404POPI    C2 6320   6.756   0.667  11.863 -0.0488 -0.2920  0.1296
  404POPI    C3 6321   6.360   0.692  11.914 -0.0499 -0.1426  0.0538
  404POPI   PO4 6322   6.584   1.050  11.507 -0.0053  0.1932  0.1116
  404POPI   GL1 6323   6.816   1.117  11.158 -0.3063  0.0217 -0.1944
  404POPI   GL2 6324   6.567   0.802  11.049 -0.0910  0.0859 -0.2794
  404POPI   C1A 6325   6.634   1.339  10.798  0.1541 -0.4364 -0.0324
  404POPI   D2A 6326   6.480   1.223  10.392  0.0819  0.2234 -0.0599
  404POPI   C3A 6327   6.490   1.325   9.973 -0.0534  0.1368 -0.3394
  404POPI   C4A 6328   6.421   1.256   9.621 -0.1420 -0.2284  0.1690
  404POPI   C1B 6329   6.619   0.774  10.645  0.0755 -0.2696 -0.2706
  404POPI   C2B 6330   6.593   0.756  10.276 -0.2405 -0.1662  0.0631
  404POPI   C3B 6331   6.482   0.778   9.793 -0.2260  0.2701 -0.5126
  404POPI   C4B 6332   6.344   0.742   9.352 -0.3363 -0.2534  0.1425
  405POPI    C1 6333   4.131   5.867  11.766  0.1162 -0.0580 -0.0932
  405POPI    C2 6334   4.095   5.612  12.072  0.1148  0.0226 -0.0258
  405POPI    C3 6335   4.457   5.699  11.925  0.1090 -0.0812 -0.1029
  405POPI   PO4 6336   3.981   5.837  11.637  0.0667 -0.0581  0.0718
  405POPI   GL1 6337   4.013   5.559  11.183  0.0499  0.2286 -0.0004
  405POPI   GL2 6338   3.629   5.625  11.186  0.3001 -0.0652  0.2153
  405POPI   C1A 6339   3.812   5.351  10.798 -0.0860 -0.0687  0.0314
  405POPI   D2A 6340   3.707   5.329  10.329 -0.2697 -0.1798 -0.0863
  405POPI   C3A 6341   3.811   5.466   9.920 -0.3784  0.1595 -0.1739
  405POPI   C4A 6342   3.882   5.513   9.547  0.0814  0.1450 -0.0314
  405POPI   C1B 6343   3.719   5.855  10.822  0.0650  0.2553  0.1337
  405POPI   C2B 6344   3.699   5.916  10.387 -0.1562  0.2305  0.0745
  405POPI   C3B 6345   3.780   5.970  10.014  0.0298 -0.1806  0.2807
  405POPI   C4B 6346   3.804   6.115   9.607  0.1600 -0.0207 -0.0110
  406POPI    C1 6347  12.833   4.698  11.197  0.1237 -0.1094 -0.2607
  406POPI    C2 6348  12.777   4.319  11.310  0.2234 -0.0424  0.0205
  406POPI    C3 6349  12.923   4.586  11.570 -0.2314  0.2834 -0.0469
  406POPI   PO4 6350  12.964   4.664  10.980  0.1687  0.1489 -0.1618
  406POPI   GL1 6351  13.006   4.500  10.662  0.1637 -0.0179 -0.0973
  406POPI   GL2 6352  12.852   4.363  10.410 -0.2152 -0.4349  0.4089
  406POPI   C1A 6353  13.389   4.448  10.412 -0.1870  0.4450  0.4550
  406POPI   D2A 6354  13.477   4.211   9.982  0.0145 -0.0570  0.1205
  406POPI   C3A 6355  13.524   4.301   9.601  0.1273 -0.1048 -0.0047
  406POPI   C4A 6356  13.647   4.007   9.272 -0.0724  0.1158 -0.2535
  406POPI   C1B 6357  13.009   4.427   9.992 -0.1348  0.2141 -0.0144
  406POPI   C2B 6358  13.021   4.496   9.546 -0.0381 -0.2705 -0.0399
  406POPI   C3B 6359  12.765   4.344   9.146  0.0452  0.0201  0.1764
  406POPI   C4B 6360  12.677   4.428   8.801 -0.4054 -0.3423  0.2767
  407POPI    C1 6361   5.320  16.160  11.704 -0.0635 -0.1269 -0.1894
  407POPI    C2 6362   4.987  16.344  11.578 -0.0257  0.0778  0.0039
  407POPI    C3 6363   5.121  16.405  11.951  0.1459 -0.1211 -0.0236
  407POPI   PO4 6364   5.531  16.249  11.514  0.0450  0.2057 -0.1369
  407POPI   GL1 6365   5.507  16.405  11.134  0.2525  0.1790 -0.0417
  407POPI   GL2 6366   5.238  16.605  11.174 -0.0684  0.0629 -0.0591
  407POPI   C1A 6367   5.504  16.527  10.695 -0.2282  0.0121  0.0282
  407POPI   D2A 6368   5.338  16.680  10.294 -0.0106  0.1152 -0.2998
  407POPI   C3A 6369   5.298  16.467   9.962 -0.3742 -0.0733  0.0239
  407POPI   C4A 6370   5.282  16.369   9.536 -0.1171  0.3872 -0.0516
  407POPI   C1B 6371   5.030  16.643  10.772 -0.1787  0.0046 -0.1322
  407POPI   C2B 6372   4.821  16.660  10.290  0.1649  0.2129  0.0609
  407POPI   C3B 6373   4.778  16.660   9.997  0.1950 -0.0561  0.0087
  407POPI   C4B 6374   4.909  16.721   9.525  0.1301 -0.2306  0.0107
  408POPI    C1 6375   4.724  10.722  11.753  0.1452  0.3248 -0.0265
  408POPI    C2 6376   4.741  10.590  12.131  0.1621 -0.0608 -0.1570
  408POPI    C3 6377   4.619  10.964  12.054 -0.0554 -0.0502  0.2132
  408POPI   PO4 6378   4.702  10.437  11.641 -0.0408  0.0056 -0.1270
  408POPI   GL1 6379   4.682  10.211  11.280 -0.0815 -0.1729 -0.0045
  408POPI   GL2 6380   4.547  10.002  11.336  0.0247  0.1143 -0.1191
  408POPI   C1A 6381   4.852  10.068  10.830  0.0563 -0.0468 -0.2630
  408POPI   D2A 6382   4.883  10.141  10.394 -0.0175 -0.1352  0.0728
  408POPI   C3A 6383   4.688  10.229  10.006  0.3114  0.0647  0.1824
  408POPI   C4A 6384   4.554  10.250   9.583  0.2836  0.2634  0.2640
  408POPI   C1B 6385   4.471   9.759  11.041 -0.0108  0.0979 -0.1772
  408POPI   C2B 6386   4.444   9.804  10.667 -0.1790 -0.2287  0.1093
  408POPI   C3B 6387   4.339   9.902  10.243  0.0902 -0.3549 -0.0097
  408POPI   C4B 6388   4.234   9.962   9.792 -0.0425  0.0167 -0.2153
  409POPI    C1 6389  15.788   5.110  11.744  0.0747 -0.0336  0.0485
  409POPI    C2 6390  15.758   4.712  11.729 -0.1830 -0.0187  0.1181
  409POPI    C3 6391  15.950   4.887  12.033  0.1258 -0.0963 -0.0282
  409POPI   PO4 6392  15.815   5.196  11.512 -0.0918 -0.0127  0.0226
  409POPI   GL1 6393  15.722   5.046  11.084  0.0745  0.1576  0.1138
  409POPI   GL2 6394  15.643   5.271  11.066 -0.1002  0.1458  0.0934
  409POPI   C1A 6395  15.799   5.064  10.630 -0.0814 -0.1557 -0.2398
  409POPI   D2A 6396  15.892   5.038  10.199  0.1911  0.0021 -0.3589
  409POPI   C3A 6397  16.028   5.275   9.766  0.0183 -0.1292 -0.0017
  409POPI   C4A 6398  16.075   5.523   9.426  0.3507 -0.2107  0.1437
  409POPI   C1B 6399  15.485   5.470  10.739  0.1575 -0.3335 -0.0575
  409POPI   C2B 6400  15.606   5.494  10.230 -0.1687 -0.0739 -0.3454
  409POPI   C3B 6401  15.627   5.529   9.849  0.0024  0.0302 -0.0960
  409POPI   C4B 6402  15.626   5.251   9.473 -0.2011  0.1711  0.1983
  410POPI    C1 6403  12.763   3.247  10.988  0.1310  0.1094 -0.2526
  410POPI    C2 6404  13.041   3.145  11.257  0.0241 -0.2608 -0.2770
  410POPI    C3 6405  12.705   3.327  11.376  0.1734 -0.0177 -0.2198
  410POPI   PO4 6406  12.805   3.219  10.784 -0.3686 -0.1476  0.0541
  410POPI   GL1 6407  13.057   3.444  10.432  0.0461 -0.1096 -0.3272
  410POPI   GL2 6408  13.199   3.173  10.528  0.1898 -0.0201 -0.1440
  410POPI   C1A 6409  13.188   3.403   9.972  0.0514  0.0409  0.0527
  410POPI   D2A 6410  13.255   3.423   9.531 -0.3671  0.0206  0.1359
  410POPI   C3A 6411  13.205   3.138   9.229 -0.1301  0.1407  0.0557
  410POPI   C4A 6412  12.898   2.807   9.026 -0.0588  0.1038  0.1634
  410POPI   C1B 6413  13.268   2.897  10.135  0.0046  0.2746  0.2152
  410POPI   C2B 6414  13.421   2.999   9.720 -0.2636  0.0846 -0.1809
  410POPI   C3B 6415  13.661   3.103   9.307  0.0699 -0.4185  0.0354
  410POPI   C4B 6416  13.751   3.106   8.911 -0.1874 -0.1016  0.0126
  411POPI    C1 6417   3.185   3.726  12.149  0.0963 -0.3046 -0.2891
  411POPI    C2 6418   3.566   3.847  12.137  0.0741 -0.1781  0.1181
  411POPI    C3 6419   3.475   3.489  12.291  0.0306 -0.2276 -0.0207
  411POPI   PO4 6420   3.005   3.679  11.925 -0.0668  0.0760 -0.0786
  411POPI   GL1 6421   2.954   3.522  11.443  0.0426  0.0512  0.3287
  411POPI   GL2 6422   3.050   3.804  11.167 -0.2118  0.0139 -0.0605
  411POPI   C1A 6423   2.947   3.314  11.085  0.1373 -0.2768  0.1831
  411POPI   D2A 6424   2.992   3.283  10.629  0.1593 -0.2432  0.1783
  411POPI   C3A 6425   2.892   3.119  10.344  0.0737  0.1886  0.1262
  411POPI   C4A 6426   3.028   3.184   9.972  0.3617 -0.1014  0.1695
  411POPI   C1B 6427   3.052   3.862  10.739 -0.0928 -0.2697 -0.0237
  411POPI   C2B 6428   2.959   3.709  10.297  0.1678  0.0507  0.0917
  411POPI   C3B 6429   3.015   3.781   9.897  0.0489 -0.2725 -0.0859
  411POPI   C4B 6430   3.092   3.531   9.545  0.0136 -0.0655  0.0345
  412POPI    C1 6431  13.221   6.009  11.324 -0.0806  0.2165  0.1182
  412POPI    C2 6432  13.559   6.039  11.536 -0.0388  0.1071  0.0678
  412POPI    C3 6433  13.228   5.895  11.707  0.0185 -0.0659  0.0345
  412POPI   PO4 6434  13.280   5.994  11.112 -0.2561 -0.1178  0.0031
  412POPI   GL1 6435  13.006   6.016  10.777 -0.1036 -0.1044 -0.1465
  412POPI   GL2 6436  13.178   5.870  10.617  0.0266  0.2710 -0.0164
  412POPI   C1A 6437  12.799   6.132  10.415 -0.0409  0.0831 -0.0400
  412POPI   D2A 6438  12.722   6.135  10.034  0.1215  0.0823  0.0079
  412POPI   C3A 6439  12.859   6.066   9.585  0.1402  0.2766 -0.6179
  412POPI   C4A 6440  12.848   5.946   9.155 -0.2009 -0.1695  0.0110
  412POPI   C1B 6441  13.251   5.911  10.272  0.0905  0.1011  0.1682
  412POPI   C2B 6442  13.197   5.861   9.956  0.3203  0.0208 -0.2451
  412POPI   C3B 6443  13.264   5.834   9.511  0.0955 -0.1686  0.3453
  412POPI   C4B 6444  13.291   5.661   9.056 -0.0668 -0.0667 -0.1404
  413POPI    C1 6445  15.658   6.644  11.624  0.0880 -0.2433 -0.0012
  413POPI    C2 6446  15.283   6.782  11.628  0.2582  0.2463 -0.1661
  413POPI    C3 6447  15.382   6.465  11.850 -0.1553  0.3714  0.2111
  413POPI   PO4 6448  15.706   6.645  11.320  0.1278  0.1889 -0.0571
  413POPI   GL1 6449  15.793   6.985  11.014  0.3054  0.3481 -0.3452
  413POPI   GL2 6450  15.817   7.357  10.936 -0.1387  0.0894 -0.0666
  413POPI   C1A 6451  15.699   6.903  10.555 -0.2840  0.1492  0.0674
  413POPI   D2A 6452  15.813   6.735  10.153  0.2488 -0.0289  0.2658
  413POPI   C3A 6453  15.878   6.830   9.806  0.0983 -0.0900 -0.1267
  413POPI   C4A 6454  15.893   6.996   9.437  0.1394 -0.1932 -0.0485
  413POPI   C1B 6455  15.854   7.408  10.614  0.1508 -0.3864  0.0283
  413POPI   C2B 6456  15.793   7.267  10.150 -0.1588  0.1635  0.0642
  413POPI   C3B 6457  15.859   7.379   9.795  0.2258  0.4551  0.1078
  413POPI   C4B 6458  15.849   7.495   9.416 -0.1250 -0.0212  0.2135
  414POPI    C1 6459  12.129   9.899  11.500 -0.0036 -0.1023 -0.1284
  414POPI    C2 6460  11.943   9.552  11.569  0.0626 -0.1210 -0.0427
  414POPI    C3 6461  12.287   9.635  11.755 -0.0373  0.0604  0.0632
  414POPI   PO4 6462  12.155  10.021  11.303  0.0672  0.0459  0.0303
  414POPI   GL1 6463  11.993   9.911  10.815 -0.1264 -0.2120 -0.0904
  414POPI   GL2 6464  12.287  10.129  10.803 -0.0793  0.0378 -0.0744
  414POPI   C1A 6465  12.103   9.907  10.394  0.0226  0.0334  0.2000
  414POPI   D2A 6466  11.997   9.798   9.992 -0.0729 -0.1273 -0.0680
  414POPI   C3A 6467  12.301   9.709   9.650 -0.0348 -0.0814 -0.2346
  414POPI   C4A 6468  12.360   9.714   9.235  0.0581 -0.4258 -0.0707
  414POPI   C1B 6469  12.514  10.134  10.437  0.2360  0.0701 -0.0016
  414POPI   C2B 6470  12.676  10.032  10.053 -0.2138 -0.1563 -0.0948
  414POPI   C3B 6471  12.614  10.067   9.589  0.2311  0.3231  0.0562
  414POPI   C4B 6472  12.747  10.072   9.164  0.1149 -0.1759  0.2093
  415POPI    C1 6473   5.228  11.673  11.798 -0.1767  0.0727  0.0821
  415POPI    C2 6474   5.085  11.873  12.113 -0.1034 -0.0892  0.2195
  415POPI    C3 6475   5.383  11.611  12.161 -0.2179 -0.2533  0.0465
  415POPI   PO4 6476   5.039  11.644  11.648  0.1266  0.0290 -0.0407
  415POPI   GL1 6477   5.041  11.449  11.283 -0.0580  0.2960  0.0874
  415POPI   GL2 6478   5.092  11.093  11.097 -0.3555  0.0034 -0.2418
  415POPI   C1A 6479   5.028  11.525  10.823  0.1336  0.2683  0.2765
  415POPI   D2A 6480   5.026  11.566  10.427 -0.2189  0.1470  0.1731
  415POPI   C3A 6481   5.017  11.521   9.973  0.2280  0.2037  0.0755
  415POPI   C4A 6482   4.924  11.515   9.644 -0.0678  0.1165  0.0556
  415POPI   C1B 6483   5.187  11.010  10.727 -0.3288 -0.1953 -0.0185
  415POPI   C2B 6484   5.125  10.975  10.328  0.1449 -0.1458  0.3777
  415POPI   C3B 6485   5.042  10.983   9.869 -0.0041  0.2633 -0.1899
  415POPI   C4B 6486   4.889  11.026   9.497 -0.0377  0.2175  0.1300
  416POPI    C1 6487   5.996  12.115  11.817 -0.0356 -0.0159  0.1510
  416POPI    C2 6488   5.918  11.915  12.154 -0.0489  0.1198  0.2290
  416POPI    C3 6489   5.929  12.315  12.157  0.2221  0.1153  0.1276
  416POPI   PO4 6490   6.216  11.902  11.664  0.1496  0.3356  0.2450
  416POPI   GL1 6491   6.300  11.720  11.223  0.1450 -0.4137  0.2135
  416POPI   GL2 6492   6.020  11.680  11.171 -0.0127  0.3533 -0.1591
  416POPI   C1A 6493   6.456  12.008  10.919  0.0330 -0.2705 -0.0211
  416POPI   D2A 6494   6.474  12.052  10.535  0.2408 -0.1150 -0.0670
  416POPI   C3A 6495   6.300  11.955  10.181 -0.0076  0.1820 -0.0453
  416POPI   C4A 6496   6.196  11.929   9.714  0.1210  0.3551 -0.2393
  416POPI   C1B 6497   6.068  11.633  10.694 -0.0560  0.0086 -0.0299
  416POPI   C2B 6498   5.924  11.636  10.255  0.2806  0.0478  0.1246
  416POPI   C3B 6499   5.795  11.683   9.933  0.1132  0.0276 -0.0450
  416POPI   C4B 6500   5.648  11.732   9.536  0.3287  0.0098  0.1454
  417POPI    C1 6501   0.705  11.402  11.791  0.2490  0.0973 -0.0355
  417POPI    C2 6502   0.570  11.778  11.795 -0.2220 -0.0651 -0.1017
  417POPI    C3 6503   0.586  11.568  12.135  0.1390  0.0441 -0.0475
  417POPI   PO4 6504   0.620  11.270  11.524  0.0668  0.1442  0.2174
  417POPI   GL1 6505   0.447  11.418  11.110 -0.1935  0.1738  0.0934
  417POPI   GL2 6506   0.818  11.320  11.074 -0.4879 -0.3793 -0.1890
  417POPI   C1A 6507   0.378  11.593  10.795  0.1563 -0.0207  0.2874
  417POPI   D2A 6508   0.465  11.498  10.455  0.1382 -0.0565 -0.0388
  417POPI   C3A 6509   0.372  11.580  10.056  0.2146  0.3798 -0.0071
  417POPI   C4A 6510   0.453  11.575   9.670 -0.1888 -0.0307 -0.0834
  417POPI   C1B 6511   0.903  11.376  10.632  0.0273  0.0953  0.3611
  417POPI   C2B 6512   0.932  11.345  10.238  0.0719 -0.1724 -0.3252
  417POPI   C3B 6513   0.888  11.463   9.812  0.0004 -0.2842  0.0631
  417POPI   C4B 6514   0.974  11.512   9.339  0.2027  0.3322 -0.1521
  418POPI    C1 6515  13.687  14.661  11.732  0.1759 -0.1633 -0.1411
  418POPI    C2 6516  13.680  14.319  11.939 -0.1080 -0.1196 -0.0751
  418POPI    C3 6517  13.467  14.634  12.064  0.2359  0.1187 -0.0758
  418POPI   PO4 6518  13.662  14.592  11.436 -0.2063  0.1535 -0.1892
  418POPI   GL1 6519  13.949  14.746  11.118 -0.0848 -0.0674  0.0330
  418POPI   GL2 6520  14.085  15.118  11.109  0.1891 -0.0412  0.0472
  418POPI   C1A 6521  14.074  14.588  10.664 -0.2062  0.0909  0.0592
  418POPI   D2A 6522  14.229  14.598  10.291 -0.2001  0.0257 -0.1003
  418POPI   C3A 6523  14.157  14.660   9.866  0.0505 -0.0548  0.3493
  418POPI   C4A 6524  14.250  14.669   9.436  0.1787  0.1285 -0.1217
  418POPI   C1B 6525  14.107  15.074  10.691  0.0481  0.2399 -0.0464
  418POPI   C2B 6526  14.132  15.164  10.267 -0.0629 -0.0308 -0.1161
  418POPI   C3B 6527  14.117  15.194   9.866 -0.0883 -0.2793 -0.0238
  418POPI   C4B 6528  14.145  15.197   9.467  0.4775  0.3826  0.1061
  419POPI    C1 6529  15.484  11.212  11.583 -0.1043 -0.0204 -0.0683
  419POPI    C2 6530  15.836  11.037  11.659 -0.0651  0.0706 -0.0396
  419POPI    C3 6531  15.497  10.868  11.787 -0.0857 -0.3627 -0.6251
  419POPI   PO4 6532  15.489  11.271  11.224  0.2690  0.0826 -0.2651
  419POPI   GL1 6533  15.834  11.185  11.012 -0.0724 -0.0837 -0.0471
  419POPI   GL2 6534  16.170  11.040  10.822 -0.1984  0.0546  0.0443
  419POPI   C1A 6535  15.725  11.272  10.597 -0.1231 -0.0134 -0.4248
  419POPI   D2A 6536  15.797  11.294  10.132  0.0067  0.0071 -0.3360
  419POPI   C3A 6537  15.791  11.412   9.760 -0.0879 -0.2100 -0.1277
  419POPI   C4A 6538  15.697  11.584   9.321  0.0184 -0.3519 -0.1316
  419POPI   C1B 6539  16.280  10.984  10.400 -0.3558  0.1984 -0.3600
  419POPI   C2B 6540  16.297  11.062  10.003 -0.2462  0.0455  0.3195
  419POPI   C3B 6541  16.382  10.784   9.636 -0.4641 -0.3613 -0.0323
  419POPI   C4B 6542  16.653  10.892   9.245  0.0362  0.0031 -0.3952
  420POPI    C1 6543   1.626   1.888  11.940  0.1177  0.1560  0.0164
  420POPI    C2 6544   1.378   1.577  11.897  0.1132  0.1557  0.0445
  420POPI    C3 6545   1.636   1.587  12.203  0.1737  0.1385 -0.0056
  420POPI   PO4 6546   1.734   1.919  11.656 -0.2373 -0.3558 -0.3782
  420POPI   GL1 6547   1.792   2.105  11.235  0.0402 -0.1041 -0.2477
  420POPI   GL2 6548   2.139   2.216  11.409 -0.0628 -0.1796 -0.0554
  420POPI   C1A 6549   1.731   1.973  10.803  0.1246  0.0774  0.0669
  420POPI   D2A 6550   1.940   1.820  10.488 -0.1486  0.0551  0.0541
  420POPI   C3A 6551   1.742   1.739  10.124  0.1447  0.0596  0.1502
  420POPI   C4A 6552   1.831   1.757   9.651 -0.4844  0.3840 -0.0477
  420POPI   C1B 6553   2.284   2.043  11.065 -0.3068  0.0917  0.1187
  420POPI   C2B 6554   2.315   2.059  10.659  0.1295 -0.2935  0.0167
  420POPI   C3B 6555   2.233   2.070  10.162  0.4715 -0.0796  0.0197
  420POPI   C4B 6556   2.376   1.990   9.754  0.0244  0.0628  0.2445
  421POPI    C1 6557   3.980  14.050  11.866 -0.0210 -0.1089  0.0150
  421POPI    C2 6558   3.797  13.796  12.116 -0.0342  0.1615  0.2859
  421POPI    C3 6559   4.183  13.743  12.023 -0.1270 -0.1541  0.0648
  421POPI   PO4 6560   3.704  14.222  11.785  0.1083 -0.0558 -0.0149
  421POPI   GL1 6561   3.553  14.402  11.406 -0.0128 -0.2396  0.1134
  421POPI   GL2 6562   3.358  14.203  11.254  0.0259  0.2805  0.0877
  421POPI   C1A 6563   3.662  14.551  10.966  0.0785 -0.2489 -0.1566
  421POPI   D2A 6564   3.720  14.577  10.501  0.2707 -0.1414 -0.1518
  421POPI   C3A 6565   3.806  14.549  10.110  0.0089  0.2387  0.0185
  421POPI   C4A 6566   3.634  14.527   9.710 -0.0343 -0.4965 -0.1027
  421POPI   C1B 6567   3.244  14.272  10.886 -0.0048 -0.2251  0.2283
  421POPI   C2B 6568   3.319  14.260  10.519  0.1783 -0.0826 -0.2058
  421POPI   C3B 6569   3.349  14.219  10.060 -0.0842  0.1206  0.1129
  421POPI   C4B 6570   3.413  14.120   9.613  0.1341 -0.0945 -0.3885
  422POPI    C1 6571   5.514  14.340  11.865 -0.0854  0.1921  0.0961
  422POPI    C2 6572   5.791  14.179  12.104  0.0397 -0.2187 -0.3097
  422POPI    C3 6573   5.894  14.463  11.842 -0.0521  0.0681 -0.0404
  422POPI   PO4 6574   5.407  14.171  11.672  0.1693 -0.0049 -0.2582
  422POPI   GL1 6575   5.306  14.119  11.243 -0.2259 -0.1806 -0.0532
  422POPI   GL2 6576   5.066  14.076  11.245  0.3704  0.0306 -0.2235
  422POPI   C1A 6577   5.436  14.375  10.964  0.0980 -0.1463 -0.0728
  422POPI   D2A 6578   5.638  14.744  10.881 -0.3588  0.0156 -0.0574
  422POPI   C3A 6579   5.492  14.867  10.491 -0.0339 -0.3238  0.0543
  422POPI   C4A 6580   5.598  14.882  10.052  0.3392 -0.1868 -0.0946
  422POPI   C1B 6581   5.297  13.960  10.792  0.2416 -0.2225 -0.0038
  422POPI   C2B 6582   5.215  13.965  10.451 -0.0017  0.2044 -0.1599
  422POPI   C3B 6583   5.284  14.019  10.056 -0.1728  0.1654 -0.0020
  422POPI   C4B 6584   5.084  13.931   9.669  0.1186  0.2844  0.1901
  423DPPI    C1 6585  13.667  16.456  11.932 -0.0785  0.2647 -0.4705
  423DPPI    C2 6586  13.365  16.589  11.706 -0.3724  0.1734 -0.1416
  423DPPI    C3 6587  13.289  16.413  12.057  0.0484 -0.1667 -0.2133
  423DPPI   PO4 6588  14.010  16.431  11.720 -0.0904 -0.3352  0.4166
  423DPPI   GL1 6589  14.108  16.305  11.164  0.0346 -0.2608 -0.1206
  423DPPI   GL2 6590  14.388  16.157  11.152  0.1534 -0.0920  0.2824
  423DPPI   C1A 6591  13.997  16.197  10.742 -0.0059 -0.0863 -0.2513
  423DPPI   C2A 6592  14.070  16.150  10.310 -0.1024  0.0042  0.0504
  423DPPI   C3A 6593  14.055  16.164   9.843 -0.1541 -0.0464  0.2490
  423DPPI   C4A 6594  13.992  16.228   9.365  0.0866 -0.1849 -0.0825
  423DPPI   C1B 6595  14.509  15.944  10.697 -0.1980  0.2802 -0.0330
  423DPPI   C2B 6596  14.524  15.852  10.291 -0.0330 -0.0322  0.1313
  423DPPI   C3B 6597  14.478  15.950   9.830 -0.0347 -0.0207  0.3594
  423DPPI   C4B 6598  14.493  16.150   9.393 -0.1019 -0.1583 -0.0798
  424DPPI    C1 6599  11.036   6.270  11.040  0.0899  0.0004  0.0938
  424DPPI    C2 6600  11.312   6.369  11.312  0.0232  0.0679  0.1372
  424DPPI    C3 6601  11.044   6.084  11.394  0.2088 -0.1448  0.0161
  424DPPI   PO4 6602  11.078   6.468  10.907 -0.0768 -0.1464 -0.1169
  424DPPI   GL1 6603  10.989   6.805  10.539 -0.0293  0.0390 -0.0230
  424DPPI   GL2 6604  11.162   7.006  10.591 -0.2680 -0.0430 -0.4920
  424DPPI   C1A 6605  11.163   6.668  10.213  0.0785 -0.0155 -0.0810
  424DPPI   C2A 6606  11.489   6.532   9.984  0.0155  0.0728  0.1271
  424DPPI   C3A 6607  11.914   6.265   9.676  0.2450  0.1493  0.0951
  424DPPI   C4A 6608  12.162   6.388   9.398  0.1648  0.1485  0.3117
  424DPPI   C1B 6609  11.112   7.169  10.198 -0.3492  0.3294 -0.0578
  424DPPI   C2B 6610  11.037   7.331   9.924  0.0600  0.0237  0.0274
  424DPPI   C3B 6611  10.916   7.159   9.448 -0.0880 -0.2465 -0.0187
  424DPPI   C4B 6612  10.913   6.750   9.226 -0.0358 -0.1965  0.1483
  425DPPI    C1 6613   4.691  16.791  12.015 -0.3897 -0.1098  0.0343
  425DPPI    C2 6614   4.586  16.527  12.298 -0.2488 -0.1697  0.0314
  425DPPI    C3 6615   4.849  16.817  12.382 -0.0255 -0.3309 -0.1025
  425DPPI   PO4 6616   4.611  16.678  11.787 -0.1381 -0.1050  0.1554
  425DPPI   GL1 6617   4.617  16.792  11.313  0.2391  0.4464  0.1659
  425DPPI   GL2 6618   4.342  16.625  11.339  0.1945  0.2894  0.0168
  425DPPI   C1A 6619   4.522  16.813  10.895 -0.2319 -0.0750 -0.1737
  425DPPI   C2A 6620   4.352  16.903  10.405  0.2393 -0.3561  0.2134
  425DPPI   C3A 6621   4.263  16.792  10.045 -0.1964  0.2546 -0.1220
  425DPPI   C4A 6622   4.317  16.803   9.605  0.0438 -0.0941  0.3832
  425DPPI   C1B 6623   4.049  16.529  11.029 -0.0919  0.1591 -0.0547
  425DPPI   C2B 6624   4.071  16.559  10.574 -0.0069 -0.1130  0.2545
  425DPPI   C3B 6625   3.928  16.415  10.262  0.1065  0.1558 -0.0626
  425DPPI   C4B 6626   3.967  16.442   9.818 -0.0172 -0.2221 -0.1001
  426DPPI    C1 6627  16.644  15.699  11.957 -0.1607  0.1309 -0.0473
  426DPPI    C2 6628  16.879  15.457  12.171 -0.0766  0.0829 -0.1928
  426DPPI    C3 6629  16.893  15.852  12.229 -0.0167  0.0740 -0.1461
  426DPPI   PO4 6630  16.679  15.569  11.735  0.1005 -0.4071  0.1368
  426DPPI   GL1 6631  16.510  15.656  11.380  0.1243  0.1178 -0.0179
  426DPPI   GL2 6632  16.414  15.315  11.428 -0.0289 -0.2601  0.0224
  426DPPI   C1A 6633  16.620  15.547  10.948 -0.0124  0.2528  0.0195
  426DPPI   C2A 6634  16.709  15.475  10.548 -0.1602  0.2386  0.1275
  426DPPI   C3A 6635  16.712  15.361  10.275  0.2020  0.1775  0.1997
  426DPPI   C4A 6636  16.726  15.506   9.882 -0.0112  0.2471 -0.0030
  426DPPI   C1B 6637  16.321  15.182  11.059  0.2362  0.0508 -0.1221
  426DPPI   C2B 6638  16.310  14.965  10.723 -0.0775  0.1771  0.1429
  426DPPI   C3B 6639  16.295  15.076  10.270 -0.0224  0.0361 -0.1472
  426DPPI   C4B 6640  16.346  15.051   9.922  0.2580  0.0081 -0.2716
  427DPPI    C1 6641  12.274   7.583  10.968  0.1661 -0.1325 -0.0052
  427DPPI    C2 6642  12.556   7.384  11.170 -0.0198 -0.0233  0.3721
  427DPPI    C3 6643  12.179   7.388  11.304 -0.1411  0.0848  0.0387
  427DPPI   PO4 6644  12.246   7.467  10.701 -0.0228 -0.1595  0.1086
  427DPPI   GL1 6645  12.285   7.586  10.328  0.0077 -0.0775  0.3400
  427DPPI   GL2 6646  12.551   7.394  10.305  0.0468  0.0333  0.1428
  427DPPI   C1A 6647  12.269   7.731   9.884  0.0644 -0.2175 -0.1951
  427DPPI   C2A 6648  12.213   7.848   9.531 -0.1426 -0.0191  0.0340
  427DPPI   C3A 6649  12.378   7.733   9.092  0.1825  0.1392  0.3253
  427DPPI   C4A 6650  12.542   7.612   8.723 -0.3487 -0.3565  0.0441
  427DPPI   C1B 6651  12.354   7.271   9.894 -0.1741  0.2867 -0.0374
  427DPPI   C2B 6652  12.255   6.911   9.561 -0.2924  0.3029  0.1868
  427DPPI   C3B 6653  12.348   6.851   9.166  0.1844 -0.1954  0.2277
  427DPPI   C4B 6654  12.275   6.614   8.884 -0.1726  0.0442 -0.0108
  428DPPI    C1 6655   1.240  11.603  11.898 -0.1424  0.1392  0.2712
  428DPPI    C2 6656   1.103  11.652  12.271 -0.5235  0.0894  0.1420
  428DPPI    C3 6657   1.089  11.291  12.098  0.1064  0.0024  0.2498
  428DPPI   PO4 6658   1.082  11.719  11.769  0.1012 -0.5498 -0.1553
  428DPPI   GL1 6659   0.875  11.743  11.406 -0.0349 -0.2671 -0.2128
  428DPPI   GL2 6660   0.923  12.057  11.394 -0.0837  0.2058 -0.1443
  428DPPI   C1A 6661   0.819  11.814  10.915 -0.2781  0.1166 -0.0816
  428DPPI   C2A 6662   0.857  11.874  10.507 -0.1509 -0.0553 -0.2114
  428DPPI   C3A 6663   0.761  11.931  10.114  0.1160  0.1139  0.0124
  428DPPI   C4A 6664   0.832  11.964   9.625 -0.0131  0.1146  0.0890
  428DPPI   C1B 6665   1.136  12.210  11.070 -0.0317 -0.2409 -0.0788
  428DPPI   C2B 6666   1.194  12.171  10.666 -0.0469  0.1575 -0.0697
  428DPPI   C3B 6667   1.303  12.197  10.253 -0.1921  0.0611  0.1930
  428DPPI   C4B 6668   1.267  12.177   9.836 -0.1708 -0.2088 -0.0316
  429DPPI    C1 6669   1.187  15.161  12.217  0.2407  0.0705 -0.0923
  429DPPI    C2 6670   1.254  15.555  12.243 -0.1307  0.1382 -0.1070
  429DPPI    C3 6671   1.524  15.296  12.384  0.0977  0.3979 -0.0601
  429DPPI   PO4 6672   1.082  15.141  12.033 -0.3653  0.5229 -0.0496
  429DPPI   GL1 6673   1.118  15.069  11.631  0.1712 -0.0366  0.1569
  429DPPI   GL2 6674   0.851  15.026  11.563  0.1324  0.0760  0.0828
  429DPPI   C1A 6675   1.278  15.305  11.354 -0.4063  0.0194  0.0074
  429DPPI   C2A 6676   1.308  15.179  10.854 -0.1798  0.1923 -0.1935
  429DPPI   C3A 6677   1.405  15.154  10.396  0.2810  0.1596  0.2157
  429DPPI   C4A 6678   1.437  15.114   9.974  0.0707 -0.0323  0.1489
  429DPPI   C1B 6679   0.923  14.982  11.146 -0.1974 -0.1464  0.0012
  429DPPI   C2B 6680   0.930  14.726  10.744  0.1116 -0.2525  0.0630
  429DPPI   C3B 6681   0.938  14.831  10.357 -0.2713 -0.0190  0.0218
  429DPPI   C4B 6682   1.026  14.812   9.868  0.0852  0.1936  0.0809
  430DPPI    C1 6683   8.828   8.513  11.519  0.0358 -0.1229 -0.1221
  430DPPI    C2 6684   9.136   8.712  11.680 -0.2076  0.0373  0.1543
  430DPPI    C3 6685   8.768   8.871  11.689 -0.3132 -0.1855 -0.1063
  430DPPI   PO4 6686   8.917   8.434  11.338 -0.2007 -0.2429 -0.0843
  430DPPI   GL1 6687   9.119   8.383  10.946  0.0105  0.0335 -0.0880
  430DPPI   GL2 6688   9.045   8.714  10.841  0.0716 -0.2125 -0.7265
  430DPPI   C1A 6689   9.102   8.176  10.516  0.1153 -0.0716 -0.0977
  430DPPI   C2A 6690   9.019   8.196  10.051  0.1210  0.0969 -0.2318
  430DPPI   C3A 6691   8.921   8.161   9.646  0.0622  0.0706  0.2120
  430DPPI   C4A 6692   8.940   8.251   9.168  0.3752 -0.2009 -0.1900
  430DPPI   C1B 6693   8.996   8.669  10.365 -0.1916  0.1624  0.1377
  430DPPI   C2B 6694   8.922   8.703  10.013 -0.5701  0.0740  0.0720
  430DPPI   C3B 6695   8.847   8.649   9.580 -0.0682  0.0448  0.4648
  430DPPI   C4B 6696   9.074   8.723   9.321  0.1216 -0.1043 -0.1147
  431DPPI    C1 6697  14.800   8.872  11.555  0.0630 -0.0580 -0.0912
  431DPPI    C2 6698  14.894   9.016  11.916 -0.0767 -0.0471 -0.0587
  431DPPI    C3 6699  14.985   8.639  11.822 -0.1155 -0.0759  0.0184
  431DPPI   PO4 6700  14.924   8.963  11.371  0.1065  0.3231  0.1549
  431DPPI   GL1 6701  15.029   8.898  10.961  0.1685 -0.1365  0.0581
  431DPPI   GL2 6702  15.332   8.703  10.793  0.3732 -0.1103  0.0237
  431DPPI   C1A 6703  14.846   8.823  10.496 -0.3692  0.1157 -0.1129
  431DPPI   C2A 6704  14.897   8.798  10.098  0.0973 -0.0817  0.0408
  431DPPI   C3A 6705  14.791   9.050   9.711  0.0935  0.2858  0.1545
  431DPPI   C4A 6706  14.681   9.157   9.357  0.0715 -0.2089  0.2983
  431DPPI   C1B 6707  15.279   8.581  10.445 -0.1883 -0.1486 -0.3505
  431DPPI   C2B 6708  15.365   8.532   9.998  0.2308 -0.0959 -0.3264
  431DPPI   C3B 6709  15.149   8.578   9.642  0.0634  0.2742  0.3096
  431DPPI   C4B 6710  15.125   8.448   9.193  0.3485 -0.0230 -0.1165
  432DPPI    C1 6711  17.154  11.081  11.748  0.1097  0.0807 -0.0792
  432DPPI    C2 6712  17.461  11.065  12.003 -0.1271  0.2261  0.2219
  432DPPI    C3 6713  17.238  11.396  11.979 -0.2720  0.1158  0.0189
  432DPPI   PO4 6714  17.217  11.114  11.484  0.0058 -0.1941 -0.0870
  432DPPI   GL1 6715  17.233  10.948  11.194 -0.1345  0.4189 -0.0968
  432DPPI   GL2 6716  17.605  10.930  11.091  0.1532  0.0063  0.0790
  432DPPI   C1A 6717  17.226  10.761  10.797 -0.0038 -0.1464 -0.0723
  432DPPI   C2A 6718  17.280  10.735  10.355 -0.3792  0.1201 -0.1492
  432DPPI   C3A 6719  17.323  10.665   9.990 -0.1731  0.2296 -0.0395
  432DPPI   C4A 6720  17.181  10.677   9.607  0.4088  0.1152 -0.0207
  432DPPI   C1B 6721  17.655  11.067  10.747  0.0050  0.2373  0.0498
  432DPPI   C2B 6722  17.725  10.993  10.378 -0.1579  0.1540  0.1127
  432DPPI   C3B 6723  17.673  11.110   9.993  0.0577  0.0932  0.0109
  432DPPI   C4B 6724  17.507  11.041   9.614  0.2269 -0.0585 -0.0199
  433DPPI    C1 6725  13.285   4.306  11.252  0.0776  0.0482  0.1201
  433DPPI    C2 6726  13.513   4.002  11.378 -0.0294 -0.1446 -0.1438
  433DPPI    C3 6727  13.675   4.364  11.324  0.0477 -0.0899  0.4049
  433DPPI   PO4 6728  13.147   4.047  11.051 -0.0639 -0.1363  0.0251
  433DPPI   GL1 6729  13.180   3.996  10.634  0.2272 -0.2694 -0.1041
  433DPPI   GL2 6730  13.343   3.867  10.643  0.0091 -0.2479  0.0271
  433DPPI   C1A 6731  12.967   3.941  10.251 -0.3315  0.2283 -0.0167
  433DPPI   C2A 6732  13.077   3.899   9.872  0.0565 -0.1505 -0.0253
  433DPPI   C3A 6733  13.102   4.031   9.421 -0.0666 -0.1232 -0.0557
  433DPPI   C4A 6734  12.881   3.883   8.998  0.3358 -0.1623 -0.4345
  433DPPI   C1B 6735  13.463   3.748  10.252 -0.0765 -0.0490  0.2219
  433DPPI   C2B 6736  13.579   3.751   9.846  0.1569  0.2006  0.0012
  433DPPI   C3B 6737  13.733   3.583   9.565 -0.1328  0.3256 -0.3503
  433DPPI   C4B 6738  13.915   3.545   9.179 -0.1790 -0.0890  0.0731
  434DPPI    C1 6739   5.359   2.178  11.915 -0.1367 -0.0273  0.1318
  434DPPI    C2 6740   5.552   2.465  12.117 -0.2832  0.0469  0.1679
  434DPPI    C3 6741   5.152   2.456  12.116 -0.2803 -0.0999  0.0853
  434DPPI   PO4 6742   5.450   2.146  11.678  0.0176 -0.2610 -0.0675
  434DPPI   GL1 6743   5.221   2.209  11.245  0.1067  0.1878  0.0624
  434DPPI   GL2 6744   5.066   2.485  11.209  0.3059 -0.3515  0.1904
  434DPPI   C1A 6745   5.439   2.156  10.904 -0.3172 -0.1840 -0.2485
  434DPPI   C2A 6746   5.496   2.100  10.543  0.1797  0.1456 -0.1694
  434DPPI   C3A 6747   5.374   2.181  10.104  0.1977  0.2151 -0.3232
  434DPPI   C4A 6748   5.393   2.239   9.668 -0.2946 -0.0350 -0.0951
  434DPPI   C1B 6749   4.988   2.310  10.837  0.0945 -0.2267  0.0780
  434DPPI   C2B 6750   4.905   2.292  10.326  0.0125 -0.1150  0.1006
  434DPPI   C3B 6751   4.951   2.401   9.976 -0.1907  0.1594 -0.1826
  434DPPI   C4B 6752   4.899   2.484   9.543  0.1076  0.0973 -0.0422
  435DPPI    C1 6753   9.019  11.151  11.527  0.1394 -0.1856  0.1923
  435DPPI    C2 6754   8.765  11.170  11.835 -0.0435  0.1678  0.0266
  435DPPI    C3 6755   9.049  11.448  11.793  0.1689 -0.0447  0.0336
  435DPPI   PO4 6756   8.911  11.087  11.318 -0.0582 -0.0991 -0.1647
  435DPPI   GL1 6757   8.761  11.258  10.922 -0.0468  0.1414  0.0116
  435DPPI   GL2 6758   8.789  11.008  10.820  0.0055  0.0097 -0.2288
  435DPPI   C1A 6759   8.683  11.343  10.497 -0.0407  0.1747  0.0133
  435DPPI   C2A 6760   8.621  11.345  10.089 -0.0790 -0.0539  0.0287
  435DPPI   C3A 6761   8.670  11.365   9.659  0.1747  0.0917  0.0528
  435DPPI   C4A 6762   8.508  11.383   9.315  0.0234 -0.0208  0.1314
  435DPPI   C1B 6763   8.721  10.840  10.406 -0.3417  0.2259  0.0923
  435DPPI   C2B 6764   8.669  10.853   9.966  0.0390  0.0820  0.0326
  435DPPI   C3B 6765   8.597  10.789   9.519  0.1169 -0.3381  0.0359
  435DPPI   C4B 6766   8.525  10.963   9.046  0.2662 -0.1306 -0.1416
  436DPPI    C1 6767  12.015   0.276  11.206  0.0891 -0.0893 -0.1610
  436DPPI    C2 6768  12.067   0.236  11.601  0.0521 -0.1457 -0.1617
  436DPPI    C3 6769  11.700   0.208  11.444  0.0458  0.0355 -0.1815
  436DPPI   PO4 6770  12.169   0.403  11.119 -0.0543 -0.1559  0.1530
  436DPPI   GL1 6771  12.600   0.210  10.874  0.4012 -0.2322 -0.2845
  436DPPI   GL2 6772  12.895   0.159  10.679  0.2528 -0.0075  0.2123
  436DPPI   C1A 6773  12.423   0.091  10.440 -0.3037  0.0399  0.1337
  436DPPI   C2A 6774  12.445   0.039  10.022  0.4286  0.1075 -0.0577
  436DPPI   C3A 6775  12.570   0.041   9.662 -0.0639  0.0761  0.0615
  436DPPI   C4A 6776  12.496   0.198   9.299  0.3283 -0.1392 -0.0303
  436DPPI   C1B 6777  12.895  -0.012  10.391 -0.1913  0.3263 -0.1326
  436DPPI   C2B 6778  12.927  -0.122   9.979  0.1043 -0.2020 -0.1822
  436DPPI   C3B 6779  13.008  -0.085   9.580 -0.1656 -0.0064 -0.1124
  436DPPI   C4B 6780  13.025  -0.045   9.048 -0.0253 -0.1094 -0.2824
  437DPPI    C1 6781   8.578  12.808  11.345 -0.2757 -0.1786  0.0423
  437DPPI    C2 6782   8.769  12.908  11.682 -0.1236  0.3560 -0.1910
  437DPPI    C3 6783   8.374  12.846  11.687 -0.0373 -0.2565  0.1958
  437DPPI   PO4 6784   8.592  12.907  11.115  0.0754 -0.2153  0.0105
  437DPPI   GL1 6785   8.382  12.830  10.804  0.1652 -0.0024 -0.3127
  437DPPI   GL2 6786   8.255  12.566  10.748  0.1426  0.1751  0.0426
  437DPPI   C1A 6787   8.374  12.848  10.280  0.1130 -0.1759  0.3111
  437DPPI   C2A 6788   8.377  12.967   9.804 -0.2629 -0.0740  0.1886
  437DPPI   C3A 6789   8.417  12.852   9.388 -0.0133 -0.1262  0.1744
  437DPPI   C4A 6790   8.403  12.696   8.970  0.3533 -0.0452 -0.1156
  437DPPI   C1B 6791   8.150  12.388  10.366 -0.0409  0.0063  0.2877
  437DPPI   C2B 6792   8.164  12.497   9.973  0.0161  0.1019 -0.2057
  437DPPI   C3B 6793   7.958  12.636   9.613 -0.1993  0.2268 -0.0022
  437DPPI   C4B 6794   7.919  12.699   9.198 -0.2292  0.1224 -0.0088
  438DPPI    C1 6795  15.674   3.467  11.600 -0.0406  0.1458 -0.1183
  438DPPI    C2 6796  15.287   3.453  11.702 -0.0781  0.0949 -0.2650
  438DPPI    C3 6797  15.513   3.761  11.819 -0.2124  0.2261 -0.3474
  438DPPI   PO4 6798  15.640   3.406  11.322  0.1783  0.1301 -0.2232
  438DPPI   GL1 6799  15.625   3.409  10.880  0.0426  0.0093  0.0989
  438DPPI   GL2 6800  15.616   3.705  10.899  0.2493  0.1429  0.0966
  438DPPI   C1A 6801  15.493   3.251  10.507 -0.2333  0.1347 -0.2306
  438DPPI   C2A 6802  15.546   3.274  10.100  0.2167  0.1746  0.2653
  438DPPI   C3A 6803  15.731   3.258   9.695 -0.0472 -0.0259 -0.2330
  438DPPI   C4A 6804  15.974   3.390   9.315  0.1784  0.3374  0.2111
  438DPPI   C1B 6805  15.656   3.741  10.457  0.1442 -0.2826 -0.1015
  438DPPI   C2B 6806  15.802   3.701  10.016 -0.0924  0.0692 -0.0129
  438DPPI   C3B 6807  16.115   3.687   9.732  0.0943  0.2267  0.1201
  438DPPI   C4B 6808  16.421   3.642   9.350 -0.1265  0.1345  0.3017
  439DPPI    C1 6809  12.060  10.867  11.394 -0.0273  0.2132 -0.0112
  439DPPI    C2 6810  11.935  10.512  11.530  0.0942  0.0908 -0.2140
  439DPPI    C3 6811  12.064  10.791  11.786 -0.0972  0.0269 -0.0457
  439DPPI   PO4 6812  12.235  10.768  11.204  0.0050 -0.2452 -0.1986
  439DPPI   GL1 6813  12.247  10.659  10.743 -0.0695 -0.2119  0.4907
  439DPPI   GL2 6814  12.411  11.072  10.813  0.1121 -0.1901 -0.2940
  439DPPI   C1A 6815  12.145  10.446  10.362 -0.0856  0.1808 -0.0377
  439DPPI   C2A 6816  12.181  10.317   9.972 -0.1878  0.0878 -0.0030
  439DPPI   C3A 6817  12.126  10.244   9.672 -0.0686 -0.2292  0.0546
  439DPPI   C4A 6818  11.840   9.899   9.420  0.3841 -0.0690  0.0180
  439DPPI   C1B 6819  12.382  10.937  10.317 -0.0868 -0.2820 -0.0363
  439DPPI   C2B 6820  12.144  10.793   9.936 -0.2015 -0.3321 -0.3496
  439DPPI   C3B 6821  12.078  10.749   9.529  0.0556  0.0809  0.0134
  439DPPI   C4B 6822  12.076  10.858   9.020  0.0435  0.3179 -0.3590
  440DPPI    C1 6823  11.688   1.061  10.704 -0.0582  0.0191  0.0506
  440DPPI    C2 6824  11.658   1.455  10.770 -0.2285  0.0645 -0.2778
  440DPPI    C3 6825  11.593   1.197  11.068 -0.0781  0.2839 -0.0507
  440DPPI   PO4 6826  11.910   0.972  10.705  0.0286 -0.1882  0.2497
  440DPPI   GL1 6827  12.154   0.557  10.640 -0.3786 -0.0354  0.3052
  440DPPI   GL2 6828  11.878   0.478  10.737  0.0266 -0.0765  0.0697
  440DPPI   C1A 6829  12.323   0.502  10.208  0.3026  0.3046  0.1349
  440DPPI   C2A 6830  12.167   0.434   9.801 -0.0492  0.2842 -0.0900
  440DPPI   C3A 6831  12.053   0.394   9.336  0.1007  0.0358 -0.0649
  440DPPI   C4A 6832  12.191   0.226   8.903 -0.2232  0.3744 -0.0519
  440DPPI   C1B 6833  11.921   0.196  10.409 -0.0213 -0.1576 -0.1146
  440DPPI   C2B 6834  11.982  -0.021  10.100  0.0934  0.1850  0.0289
  440DPPI   C3B 6835  12.063  -0.119   9.607  0.0454  0.1551 -0.0956
  440DPPI   C4B 6836  12.052  -0.174   9.233  0.3881  0.2679 -0.1435
  441DPPI    C1 6837   5.839   9.580  11.647  0.4071  0.0947  0.1261
  441DPPI    C2 6838   5.822   9.321  11.952  0.2123  0.0353  0.0663
  441DPPI    C3 6839   5.613   9.661  11.967  0.0333 -0.0654 -0.0902
  441DPPI   PO4 6840   5.761   9.442  11.444  0.0869  0.1207  0.2295
  441DPPI   GL1 6841   5.826   9.266  11.119  0.0329 -0.1806 -0.0310
  441DPPI   GL2 6842   6.048   9.135  11.022 -0.0393  0.1597 -0.1430
  441DPPI   C1A 6843   5.572   8.955  10.839  0.1300  0.0818 -0.0025
  441DPPI   C2A 6844   5.396   8.762  10.535 -0.0531 -0.0836 -0.1320
  441DPPI   C3A 6845   5.392   8.738  10.128 -0.1304 -0.1242  0.2380
  441DPPI   C4A 6846   5.246   8.905   9.779  0.1074  0.0287  0.0066
  441DPPI   C1B 6847   5.912   9.223  10.574  0.0001  0.1003  0.0348
  441DPPI   C2B 6848   5.787   9.177  10.218 -0.1587  0.0692 -0.0902
  441DPPI   C3B 6849   5.723   9.226   9.816 -0.2134  0.0843 -0.2065
  441DPPI   C4B 6850   5.458   9.215   9.429 -0.2537 -0.1821  0.1326
  442DPPI    C1 6851   2.693   5.435  11.880  0.1552  0.0737 -0.1839
  442DPPI    C2 6852   2.575   5.772  12.060 -0.1218 -0.0286 -0.1693
  442DPPI    C3 6853   2.624   5.437  12.274  0.2047  0.0130 -0.1748
  442DPPI   PO4 6854   2.621   5.419  11.640 -0.1681 -0.0342 -0.1250
  442DPPI   GL1 6855   2.571   5.564  11.281  0.1256  0.2416  0.0655
  442DPPI   GL2 6856   2.881   5.521  11.092 -0.0540  0.0106 -0.0996
  442DPPI   C1A 6857   2.407   5.524  10.790  0.1532  0.0335  0.0550
  442DPPI   C2A 6858   2.455   5.598  10.352 -0.2810  0.1229 -0.0895
  442DPPI   C3A 6859   2.401   5.614   9.909 -0.2139  0.2464  0.0748
  442DPPI   C4A 6860   2.363   5.663   9.407  0.1292 -0.0367 -0.3839
  442DPPI   C1B 6861   2.799   5.362  10.637 -0.2772 -0.3711  0.0922
  442DPPI   C2B 6862   2.830   5.394  10.083  0.1340  0.0528  0.3821
  442DPPI   C3B 6863   2.961   5.428   9.659  0.0744 -0.1244  0.0564
  442DPPI   C4B 6864   3.108   5.616   9.262 -0.0156  0.2554  0.0850
  443DPPI    C1 6865  14.603   9.679  11.302  0.0106 -0.1130 -0.0449
  443DPPI    C2 6866  14.469   9.303  11.293  0.2672 -0.2043 -0.1289
  443DPPI    C3 6867  14.683   9.432  11.606  0.1376 -0.1128 -0.0774
  443DPPI   PO4 6868  14.421   9.776  11.263 -0.0194 -0.1261  0.0316
  443DPPI   GL1 6869  14.438  10.202  10.963 -0.0844  0.2258  0.1483
  443DPPI   GL2 6870  14.248  10.007  10.750  0.0710 -0.2878  0.2906
  443DPPI   C1A 6871  14.552  10.279  10.511 -0.1557 -0.0905 -0.0059
  443DPPI   C2A 6872  14.547  10.202  10.085 -0.2060  0.0593  0.0907
  443DPPI   C3A 6873  14.593  10.173   9.653  0.0632 -0.1820 -0.0015
  443DPPI   C4A 6874  14.379  10.177   9.322 -0.1188 -0.1619  0.3695
  443DPPI   C1B 6875  14.121   9.997  10.315  0.1333  0.1182 -0.0150
  443DPPI   C2B 6876  14.153  10.009   9.914 -0.1065  0.1039  0.3423
  443DPPI   C3B 6877  14.075   9.781   9.546  0.1190 -0.0145 -0.2005
  443DPPI   C4B 6878  14.198   9.564   9.208  0.0647 -0.1039 -0.2491
  444DPPI    C1 6879   8.038   2.773  11.759 -0.2165 -0.0353 -0.0396
  444DPPI    C2 6880   7.769   2.541  11.942 -0.0402 -0.0933  0.1500
  444DPPI    C3 6881   7.894   2.878  12.117  0.0678 -0.1068  0.0991
  444DPPI   PO4 6882   7.938   2.901  11.569 -0.0145  0.0991  0.0893
  444DPPI   GL1 6883   7.942   2.899  11.134  0.2544  0.1934 -0.0553
  444DPPI   GL2 6884   7.818   2.598  10.935 -0.1726  0.0900  0.2906
  444DPPI   C1A 6885   7.709   3.189  10.849  0.1144  0.2160  0.0781
  444DPPI   C2A 6886   7.588   3.214  10.449 -0.3051 -0.0461 -0.1502
  444DPPI   C3A 6887   7.578   3.264   9.959 -0.2365 -0.1455 -0.0725
  444DPPI   C4A 6888   7.603   3.264   9.554  0.1996  0.0712  0.0388
  444DPPI   C1B 6889   7.695   2.726  10.588  0.0944 -0.1746  0.0185
  444DPPI   C2B 6890   7.581   2.791  10.140  0.0783  0.1695  0.1387
  444DPPI   C3B 6891   7.629   2.793   9.689  0.0995 -0.1588 -0.3290
  444DPPI   C4B 6892   7.807   2.672   9.327 -0.1002  0.1007 -0.0833
  445DPPI    C1 6893  16.815  11.599  11.685 -0.1298  0.0415 -0.2195
  445DPPI    C2 6894  16.721  11.251  11.859  0.2799  0.0007 -0.0701
  445DPPI    C3 6895  16.504  11.578  11.936 -0.2338 -0.2572 -0.3689
  445DPPI   PO4 6896  16.892  11.522  11.409  0.2219 -0.0040 -0.0974
  445DPPI   GL1 6897  17.083  11.425  11.020  0.2284  0.0576  0.1162
  445DPPI   GL2 6898  17.149  11.769  11.027  0.1312 -0.1670  0.0841
  445DPPI   C1A 6899  17.170  11.256  10.751 -0.1196  0.1355  0.0054
  445DPPI   C2A 6900  17.237  11.243  10.364  0.0662  0.0111 -0.2628
  445DPPI   C3A 6901  17.164  11.237   9.975 -0.0811  0.0283 -0.0127
  445DPPI   C4A 6902  16.832  11.024   9.708 -0.0250  0.0386  0.0448
  445DPPI   C1B 6903  17.187  11.719  10.511  0.0433 -0.0684 -0.0626
  445DPPI   C2B 6904  17.089  11.850  10.047  0.0058  0.0577 -0.0851
  445DPPI   C3B 6905  17.119  11.659   9.690 -0.2753  0.1970  0.1982
  445DPPI   C4B 6906  17.053  11.784   9.302 -0.2662 -0.0321  0.0741
  446DPPI    C1 6907  11.021  11.624  11.743  0.1013 -0.0514 -0.0381
  446DPPI    C2 6908  10.800  11.395  11.985  0.0551  0.0768  0.0421
  446DPPI    C3 6909  10.718  11.785  11.950 -0.0620  0.0226 -0.3287
  446DPPI   PO4 6910  11.050  11.564  11.381 -0.0667 -0.4977 -0.0274
  446DPPI   GL1 6911  10.992  11.263  10.995  0.1373  0.1987  0.0087
  446DPPI   GL2 6912  10.659  11.516  11.002 -0.1507 -0.0308  0.1075
  446DPPI   C1A 6913  11.026  11.397  10.569 -0.1534 -0.1174  0.3153
  446DPPI   C2A 6914  10.954  11.491  10.128  0.2061 -0.0071  0.3522
  446DPPI   C3A 6915  10.994  11.526   9.734 -0.3113  0.1432  0.0803
  446DPPI   C4A 6916  10.955  11.515   9.353 -0.2072  0.1447  0.1348
  446DPPI   C1B 6917  10.605  11.618  10.614  0.3040  0.2635 -0.1403
  446DPPI   C2B 6918  10.457  11.635  10.210 -0.1580 -0.0034 -0.0296
  446DPPI   C3B 6919  10.496  11.628   9.723 -0.1350  0.2712  0.1282
  446DPPI   C4B 6920  10.521  11.764   9.255 -0.0057 -0.1257 -0.0038
  447DPPI    C1 6921   8.013   9.185  11.382 -0.0564  0.2577  0.0684
  447DPPI    C2 6922   7.829   8.958  11.655  0.0739  0.0467 -0.0170
  447DPPI    C3 6923   8.093   9.235  11.771 -0.0258  0.1009  0.0827
  447DPPI   PO4 6924   8.005   9.097  11.182  0.2976  0.2022 -0.3236
  447DPPI   GL1 6925   8.007   9.269  10.848  0.1919  0.0665  0.0506
  447DPPI   GL2 6926   7.965   9.596  10.708 -0.0487 -0.0080 -0.0864
  447DPPI   C1A 6927   8.007   9.101  10.410  0.1435  0.3120  0.2446
  447DPPI   C2A 6928   8.040   9.070   9.999 -0.0397  0.0845 -0.2893
  447DPPI   C3A 6929   8.016   9.118   9.613  0.1347 -0.1227  0.1340
  447DPPI   C4A 6930   8.088   9.083   9.261  0.0899  0.2265  0.0808
  447DPPI   C1B 6931   8.040   9.619  10.274  0.1490  0.0994 -0.1210
  447DPPI   C2B 6932   7.965   9.645   9.849  0.1617 -0.2776  0.2824
  447DPPI   C3B 6933   7.896   9.567   9.518 -0.2071 -0.3168  0.4332
  447DPPI   C4B 6934   7.690   9.722   9.175 -0.0888 -0.4280 -0.1755
  448DPPI    C1 6935   5.707   4.992  11.648 -0.1072 -0.3322  0.0131
  448DPPI    C2 6936   6.095   4.992  11.748 -0.0697  0.2261 -0.0989
  448DPPI    C3 6937   5.815   4.947  12.031  0.0687  0.2154  0.0375
  448DPPI   PO4 6938   5.675   5.213  11.598  0.1270  0.0112  0.1740
  448DPPI   GL1 6939   5.536   5.406  11.199 -0.0921  0.0046  0.3679
  448DPPI   GL2 6940   5.172   5.364  11.193  0.0791 -0.3758 -0.1048
  448DPPI   C1A 6941   5.693   5.065  10.830  0.2436 -0.2899  0.0430
  448DPPI   C2A 6942   5.688   5.078  10.425  0.1061  0.1925  0.0177
  448DPPI   C3A 6943   5.582   5.079  10.032  0.0369  0.1802 -0.1362
  448DPPI   C4A 6944   5.654   5.238   9.680 -0.0491 -0.0558  0.0375
  448DPPI   C1B 6945   5.146   5.323  10.746  0.1532 -0.0323  0.1273
  448DPPI   C2B 6946   5.146   5.280  10.327  0.1903  0.0802  0.6971
  448DPPI   C3B 6947   5.195   5.411   9.836  0.2209  0.0943 -0.4982
  448DPPI   C4B 6948   5.160   5.473   9.383  0.1444  0.2182  0.0574
  449DPPI    C1 6949   5.337   8.750  11.480  0.0932 -0.1386  0.2566
  449DPPI    C2 6950   5.668   8.762  11.256 -0.0529 -0.1060  0.0395
  449DPPI    C3 6951   5.619   9.025  11.554  0.1633 -0.1795  0.1424
  449DPPI   PO4 6952   5.096   8.649  11.222 -0.1832  0.0368  0.0759
  449DPPI   GL1 6953   4.870   8.810  10.982 -0.1419 -0.3557  0.1897
  449DPPI   GL2 6954   5.042   9.108  10.798 -0.0865  0.1564  0.2941
  449DPPI   C1A 6955   4.582   8.812  10.642  0.2120 -0.1676  0.2957
  449DPPI   C2A 6956   4.415   8.800  10.265 -0.0102 -0.1689 -0.0688
  449DPPI   C3A 6957   4.374   8.898   9.956  0.0370  0.0330 -0.1780
  449DPPI   C4A 6958   4.344   8.861   9.568 -0.0771  0.0160  0.2291
  449DPPI   C1B 6959   4.804   9.177  10.386 -0.0332  0.1434 -0.0754
  449DPPI   C2B 6960   4.750   9.189   9.959 -0.0964 -0.3115  0.1307
  449DPPI   C3B 6961   4.808   9.063   9.531 -0.2837 -0.2567 -0.2670
  449DPPI   C4B 6962   4.598   8.966   9.106  0.3462 -0.3201 -0.0108
  450DPPI    C1 6963   0.245  15.672  12.212  0.0099  0.2662 -0.0719
  450DPPI    C2 6964   0.138  15.519  12.566  0.1708  0.0881 -0.0989
  450DPPI    C3 6965   0.447  15.772  12.542  0.3438 -0.1241 -0.1493
  450DPPI   PO4 6966   0.216  15.459  12.005  0.0774  0.1989  0.2400
  450DPPI   GL1 6967   0.029  15.273  11.657 -0.5525 -0.2930  0.2772
  450DPPI   GL2 6968   0.308  15.173  11.526 -0.0524 -0.0205  0.2079
  450DPPI   C1A 6969  -0.086  15.330  11.252 -0.1508  0.1751  0.1023
  450DPPI   C2A 6970   0.002  15.333  10.762  0.2113  0.0135 -0.1974
  450DPPI   C3A 6971  -0.003  15.234  10.342 -0.0087 -0.0750 -0.2041
  450DPPI   C4A 6972  -0.006  15.248  10.026 -0.0416 -0.0264  0.1680
  450DPPI   C1B 6973   0.369  15.180  11.112  0.0009 -0.2434  0.4210
  450DPPI   C2B 6974   0.426  15.058  10.768  0.0398 -0.1617 -0.0232
  450DPPI   C3B 6975   0.459  15.027  10.365  0.0924  0.0030 -0.0031
  450DPPI   C4B 6976   0.589  15.022   9.991 -0.0824 -0.2300 -0.0426
  451DPPI    C1 6977   9.564   5.761  11.232 -0.0403 -0.0869  0.3059
  451DPPI    C2 6978   9.427   5.933  11.566  0.1337  0.1692  0.2481
  451DPPI    C3 6979   9.815   5.845  11.531  0.0634 -0.1471  0.2364
  451DPPI   PO4 6980   9.284   5.605  11.110  0.2008  0.1900 -0.1414
  451DPPI   GL1 6981   9.060   5.752  10.778  0.0878 -0.0660  0.0505
  451DPPI   GL2 6982   8.888   5.469  10.826  0.2306 -0.0934 -0.1442
  451DPPI   C1A 6983   9.259   5.904  10.378  0.0600  0.1331  0.1113
  451DPPI   C2A 6984   9.292   6.013   9.917 -0.2512  0.1668  0.0034
  451DPPI   C3A 6985   9.185   6.105   9.537  0.0842 -0.2326 -0.0701
  451DPPI   C4A 6986   9.236   6.204   9.204  0.2882  0.0192  0.1114
  451DPPI   C1B 6987   8.891   5.517  10.384 -0.3120  0.1833  0.2230
  451DPPI   C2B 6988   8.878   5.733  10.006 -0.6067  0.3343  0.3481
  451DPPI   C3B 6989   8.764   5.794   9.526 -0.1497  0.2582  0.1153
  451DPPI   C4B 6990   8.550   5.775   9.136  0.3506  0.1253 -0.2451
  452DPPI    C1 6991   2.185  14.022  12.270 -0.1019 -0.1039  0.2635
  452DPPI    C2 6992   2.525  14.065  12.477  0.0227 -0.1305  0.0674
  452DPPI    C3 6993   2.390  13.699  12.386  0.0202 -0.1173  0.0176
  452DPPI   PO4 6994   2.077  14.075  12.081 -0.1366  0.0543 -0.3141
  452DPPI   GL1 6995   2.197  14.043  11.601  0.2475  0.0721  0.0836
  452DPPI   GL2 6996   2.414  13.859  11.556 -0.0650  0.4417  0.2058
  452DPPI   C1A 6997   1.925  13.950  11.200  0.0180  0.0800  0.2040
  452DPPI   C2A 6998   1.883  13.845  10.852 -0.1934  0.1153 -0.2032
  452DPPI   C3A 6999   1.971  13.947  10.524  0.0854 -0.1980  0.1357
  452DPPI   C4A 7000   2.039  13.826  10.108  0.3753 -0.0416 -0.0386
  452DPPI   C1B 7001   2.384  13.673  11.140 -0.0556  0.0497  0.0508
  452DPPI   C2B 7002   2.361  13.734  10.751 -0.1446 -0.1299 -0.0449
  452DPPI   C3B 7003   2.513  13.619  10.417 -0.0029 -0.4090 -0.3109
  452DPPI   C4B 7004   2.561  13.613   9.981  0.0875  0.0675  0.1543
  453DPPI    C1 7005  15.652   1.056  11.649 -0.0106  0.1844 -0.0088
  453DPPI    C2 7006  15.866   0.969  11.976 -0.0111  0.4652  0.0695
  453DPPI    C3 7007  15.467   0.991  11.998 -0.0554 -0.0488 -0.0742
  453DPPI   PO4 7008  15.832   1.157  11.520  0.0080 -0.0794 -0.0648
  453DPPI   GL1 7009  16.148   1.269  11.222  0.1195  0.0134  0.0008
  453DPPI   GL2 7010  16.547   1.484  11.144  0.0917 -0.0607 -0.2332
  453DPPI   C1A 7011  16.267   1.046  10.876  0.0736 -0.1354  0.0068
  453DPPI   C2A 7012  16.318   0.966  10.496  0.2618 -0.0618  0.4172
  453DPPI   C3A 7013  16.340   1.013  10.064  0.0284  0.2199 -0.0042
  453DPPI   C4A 7014  16.431   0.846   9.705 -0.0744  0.0554 -0.0730
  453DPPI   C1B 7015  16.650   1.305  10.671 -0.1344  0.0111 -0.2592
  453DPPI   C2B 7016  16.739   1.276  10.246  0.2050 -0.2754  0.0018
  453DPPI   C3B 7017  16.786   1.271   9.765 -0.3806  0.0444 -0.0320
  453DPPI   C4B 7018  16.771   1.275   9.306 -0.0950  0.0048 -0.2212
  454DPPI    C1 7019   1.130   5.293  11.601  0.0990 -0.2092 -0.1883
  454DPPI    C2 7020   1.459   5.249  11.824 -0.0291 -0.1755  0.0105
  454DPPI    C3 7021   1.135   5.026  11.899 -0.0922 -0.1245 -0.1069
  454DPPI   PO4 7022   1.250   5.329  11.349  0.0338 -0.1890 -0.0762
  454DPPI   GL1 7023   1.119   5.180  10.937 -0.0078  0.0509  0.1326
  454DPPI   GL2 7024   1.346   4.946  11.006 -0.1799 -0.0383  0.0678
  454DPPI   C1A 7025   1.144   5.105  10.459  0.2200 -0.5178  0.1413
  454DPPI   C2A 7026   1.166   5.152  10.100 -0.1001  0.0491 -0.0179
  454DPPI   C3A 7027   1.165   5.257   9.696 -0.1366  0.0842 -0.1403
  454DPPI   C4A 7028   1.066   5.108   9.335  0.3551  0.0392  0.0830
  454DPPI   C1B 7029   1.593   4.905  10.646 -0.2546  0.1729 -0.2237
  454DPPI   C2B 7030   1.645   4.958  10.244 -0.0404  0.1184 -0.2903
  454DPPI   C3B 7031   1.626   4.928   9.800 -0.1433  0.2756  0.1663
  454DPPI   C4B 7032   1.691   5.025   9.354 -0.1632  0.0730  0.0154
  455DPPI    C1 7033   6.421   7.595  11.534 -0.1743 -0.0470  0.0347
  455DPPI    C2 7034   6.139   7.479  11.793  0.0317  0.0933  0.3276
  455DPPI    C3 7035   6.345   7.815  11.860  0.1854  0.0562  0.0527
  455DPPI   PO4 7036   6.278   7.530  11.346  0.0481  0.1887 -0.1801
  455DPPI   GL1 7037   6.403   7.582  10.966 -0.0844 -0.1259 -0.2975
  455DPPI   GL2 7038   6.447   7.359  10.849  0.0565  0.2106  0.0625
  455DPPI   C1A 7039   6.426   7.787  10.595  0.1286 -0.4662 -0.1127
  455DPPI   C2A 7040   6.501   7.911  10.258  0.0663 -0.1128 -0.1475
  455DPPI   C3A 7041   6.374   7.858   9.797  0.1773  0.0101 -0.1792
  455DPPI   C4A 7042   6.216   8.025   9.452 -0.1069 -0.0442 -0.0176
  455DPPI   C1B 7043   6.487   7.356  10.399  0.1079  0.0953  0.0867
  455DPPI   C2B 7044   6.520   7.375   9.961 -0.1812 -0.0175 -0.0358
  455DPPI   C3B 7045   6.379   7.357   9.571 -0.4449 -0.0380  0.3368
  455DPPI   C4B 7046   6.256   7.360   9.176 -0.1171 -0.0938 -0.1399
  456DPPI    C1 7047  12.561   6.831  11.256  0.1958  0.0537 -0.1436
  456DPPI    C2 7048  12.833   6.646  11.484  0.1579 -0.0026 -0.1438
  456DPPI    C3 7049  12.449   6.532  11.498  0.0802  0.2739  0.0799
  456DPPI   PO4 7050  12.789   6.879  11.034  0.0303  0.0673  0.1093
  456DPPI   GL1 7051  12.894   7.073  10.583  0.1450  0.0882 -0.3446
  456DPPI   GL2 7052  12.625   6.908  10.516 -0.0130 -0.0031  0.0697
  456DPPI   C1A 7053  13.122   7.125  10.294 -0.2662 -0.1213 -0.1250
  456DPPI   C2A 7054  13.231   7.138   9.842  0.0015  0.5260 -0.0537
  456DPPI   C3A 7055  13.495   7.015   9.466 -0.3794 -0.0297  0.3482
  456DPPI   C4A 7056  13.722   7.130   9.153  0.4555  0.0491 -0.0786
  456DPPI   C1B 7057  12.668   6.913  10.104 -0.1985 -0.1050 -0.0810
  456DPPI   C2B 7058  12.779   6.992   9.790  0.0301  0.5130 -0.0395
  456DPPI   C3B 7059  12.872   6.923   9.388 -0.1493  0.2974 -0.1318
  456DPPI   C4B 7060  12.824   6.843   8.960 -0.0737  0.2485 -0.0776
  457DPPI    C1 7061  11.819   6.981  11.124 -0.0781 -0.0073  0.1616
  457DPPI    C2 7062  11.735   6.701  11.397 -0.0035 -0.2179 -0.0279
  457DPPI    C3 7063  12.095   6.874  11.392 -0.0674 -0.0775  0.1229
  457DPPI   PO4 7064  11.806   6.957  10.885 -0.3854 -0.1237  0.0865
  457DPPI   GL1 7065  11.634   7.195  10.565 -0.1805  0.0601  0.1965
  457DPPI   GL2 7066  11.845   7.501  10.454 -0.0172 -0.3368 -0.1760
  457DPPI   C1A 7067  11.546   6.997  10.197 -0.0104  0.0867 -0.2999
  457DPPI   C2A 7068  11.332   6.960   9.786  0.1171  0.1094  0.0552
  457DPPI   C3A 7069  11.488   7.125   9.467  0.0247 -0.1344 -0.0453
  457DPPI   C4A 7070  11.387   6.908   9.166 -0.1367 -0.0458 -0.1655
  457DPPI   C1B 7071  11.823   7.822  10.066  0.1694  0.1136 -0.0056
  457DPPI   C2B 7072  11.758   8.003   9.621  0.2172 -0.0449 -0.1637
  457DPPI   C3B 7073  11.792   7.892   9.196 -0.4270  0.0224 -0.0158
  457DPPI   C4B 7074  11.977   7.826   8.794 -0.3466  0.4805  0.3553
  458DPPI    C1 7075  16.978  14.551  12.099  0.1967  0.0682 -0.0743
  458DPPI    C2 7076  16.724  14.835  12.222  0.0425 -0.1108  0.0270
  458DPPI    C3 7077  16.977  14.667  12.482 -0.0226 -0.2245  0.0175
  458DPPI   PO4 7078  16.859  14.419  11.934  0.1478  0.0035 -0.0243
  458DPPI   GL1 7079  16.753  14.512  11.611  0.0329 -0.1689 -0.1423
  458DPPI   GL2 7080  16.560  14.807  11.440  0.0847 -0.0729  0.1231
  458DPPI   C1A 7081  16.876  14.399  11.190  0.1067 -0.1816 -0.0037
  458DPPI   C2A 7082  16.815  14.402  10.776  0.3319  0.0364 -0.1047
  458DPPI   C3A 7083  16.773  14.456  10.385 -0.1875  0.1224  0.1665
  458DPPI   C4A 7084  16.895  14.389   9.944  0.1300 -0.1693 -0.0665
  458DPPI   C1B 7085  16.786  15.036  11.067  0.1934 -0.1232  0.1869
  458DPPI   C2B 7086  16.831  14.946  10.595 -0.0071  0.1483 -0.0083
  458DPPI   C3B 7087  16.787  14.908  10.184 -0.1927  0.0809 -0.1113
  458DPPI   C4B 7088  16.788  14.983   9.720 -0.2614  0.1720 -0.3377
  459DPPI    C1 7089  13.987   2.702  10.945 -0.0931 -0.1688  0.1215
  459DPPI    C2 7090  13.952   2.636  11.338 -0.2174  0.0136  0.1422
  459DPPI    C3 7091  13.981   3.010  11.200 -0.0762 -0.0543 -0.0154
  459DPPI   PO4 7092  13.829   2.544  10.863 -0.1379 -0.3644 -0.0621
  459DPPI   GL1 7093  13.808   2.322  10.454 -0.1072  0.0432 -0.0522
  459DPPI   GL2 7094  13.648   2.105  10.352 -0.0992 -0.1384  0.1377
  459DPPI   C1A 7095  13.883   2.159   9.961  0.0693  0.1381 -0.1393
  459DPPI   C2A 7096  13.826   2.062   9.567 -0.3377 -0.1343  0.1335
  459DPPI   C3A 7097  14.025   2.084   9.189 -0.3838  0.0129 -0.4061
  459DPPI   C4A 7098  14.314   2.270   8.932  0.0045  0.3570 -0.1172
  459DPPI   C1B 7099  13.538   1.838   9.956 -0.0241  0.0893 -0.0599
  459DPPI   C2B 7100  13.578   1.668   9.475 -0.0609 -0.1612  0.2582
  459DPPI   C3B 7101  13.654   1.745   9.021  0.0175  0.1615  0.0316
  459DPPI   C4B 7102  13.656   2.099   8.610 -0.0490  0.3032 -0.0318
  460DPPI    C1 7103   7.762   9.960  11.727 -0.1168 -0.0212 -0.1659
  460DPPI    C2 7104   7.408   9.824  11.855 -0.0884 -0.1372 -0.2095
  460DPPI    C3 7105   7.747   9.659  11.990 -0.0453  0.0988 -0.0231
  460DPPI   PO4 7106   7.720   9.999  11.410  0.2604  0.0266  0.0217
  460DPPI   GL1 7107   7.799  10.246  11.018  0.2902  0.1176 -0.1845
  460DPPI   GL2 7108   7.979  10.055  10.954 -0.1377 -0.3207 -0.3094
  460DPPI   C1A 7109   7.496  10.436  10.749  0.1345 -0.2036  0.0272
  460DPPI   C2A 7110   7.368  10.484  10.356 -0.1337  0.3034 -0.1223
  460DPPI   C3A 7111   7.389  10.377   9.936  0.0775  0.2741  0.0757
  460DPPI   C4A 7112   7.340  10.368   9.500  0.1738  0.0306 -0.2767
  460DPPI   C1B 7113   7.870  10.216  10.530  0.2498  0.0495 -0.0948
  460DPPI   C2B 7114   7.937  10.270  10.110 -0.0677  0.2357  0.0826
  460DPPI   C3B 7115   7.777  10.130   9.699  0.0688 -0.3834 -0.0187
  460DPPI   C4B 7116   7.866  10.171   9.319  0.0296 -0.0791 -0.1017
  461DPPI    C1 7117  15.614   0.583  11.787  0.0658  0.0471  0.3998
  461DPPI    C2 7118  15.630   0.242  11.996 -0.0093 -0.1702  0.0588
  461DPPI    C3 7119  15.280   0.428  11.943 -0.0110 -0.1849  0.0172
  461DPPI   PO4 7120  15.772   0.506  11.475  0.0287  0.0733  0.1509
  461DPPI   GL1 7121  15.870   0.828  11.115  0.0821 -0.0819  0.1164
  461DPPI   GL2 7122  15.523   0.858  11.207  0.0602  0.1531  0.0405
  461DPPI   C1A 7123  15.900   0.694  10.767  0.2046  0.0890  0.2635
  461DPPI   C2A 7124  15.999   0.629  10.291 -0.2776 -0.1123 -0.0008
  461DPPI   C3A 7125  15.945   0.751   9.777  0.1598 -0.2670  0.0757
  461DPPI   C4A 7126  16.061   0.772   9.364 -0.2272 -0.2220  0.1108
  461DPPI   C1B 7127  15.459   0.527  10.906  0.0875 -0.0977  0.1311
  461DPPI   C2B 7128  15.501   0.584  10.449  0.0810  0.0427 -0.0333
  461DPPI   C3B 7129  15.555   0.576  10.060 -0.1985  0.2511  0.3331
  461DPPI   C4B 7130  15.517   0.394   9.645 -0.0541  0.1243  0.0226
  462DPPI    C1 7131  16.370  15.269  12.056  0.0631  0.3291  0.0250
  462DPPI    C2 7132  16.108  15.375  12.339 -0.0367 -0.1415  0.1163
  462DPPI    C3 7133  16.466  15.227  12.442  0.0264 -0.0749 -0.0057
  462DPPI   PO4 7134  16.226  15.130  11.838 -0.1853 -0.1019 -0.0037
  462DPPI   GL1 7135  15.865  15.017  11.585  0.0116  0.0398 -0.0364
  462DPPI   GL2 7136  15.857  15.317  11.466  0.2922 -0.1466 -0.0035
  462DPPI   C1A 7137  15.964  14.783  11.264  0.1943 -0.0247 -0.0367
  462DPPI   C2A 7138  15.894  14.717  10.915  0.0124 -0.2823  0.1397
  462DPPI   C3A 7139  15.896  14.666  10.473 -0.0559 -0.1388  0.1486
  462DPPI   C4A 7140  15.922  14.748  10.061  0.1203  0.0325 -0.3223
  462DPPI   C1B 7141  15.810  15.213  11.060 -0.1443 -0.0758  0.1228
  462DPPI   C2B 7142  15.838  15.121  10.636 -0.0750 -0.1974  0.2763
  462DPPI   C3B 7143  15.806  15.245  10.177  0.0073 -0.1578  0.2382
  462DPPI   C4B 7144  15.851  15.188   9.738 -0.2890  0.0812  0.0589
  463DPPI    C1 7145  11.429   9.252  11.441 -0.2256  0.1474  0.0194
  463DPPI    C2 7146  11.243   9.193  11.790 -0.1363 -0.1568  0.0186
  463DPPI    C3 7147  11.642   9.202  11.775 -0.1327 -0.4165 -0.1131
  463DPPI   PO4 7148  11.288   9.444  11.331 -0.1346  0.0249 -0.1745
  463DPPI   GL1 7149  11.196   9.760  10.990 -0.2437 -0.0087 -0.1715
  463DPPI   GL2 7150  11.026   9.582  10.920  0.0759  0.1338  0.2948
  463DPPI   C1A 7151  11.271   9.923  10.626  0.0965 -0.0353 -0.1875
  463DPPI   C2A 7152  11.373   9.870  10.207 -0.0601 -0.1767  0.1343
  463DPPI   C3A 7153  11.562   9.591   9.878  0.1794  0.0960 -0.0361
  463DPPI   C4A 7154  11.340   9.556   9.472 -0.0780 -0.1751 -0.1786
  463DPPI   C1B 7155  11.030   9.492  10.435 -0.4333  0.1544 -0.0193
  463DPPI   C2B 7156  11.064   9.577   9.939 -0.1957  0.0963  0.0504
  463DPPI   C3B 7157  11.028   9.944   9.586 -0.1298  0.1708  0.1539
  463DPPI   C4B 7158  11.372  10.057   9.217  0.2858 -0.0458 -0.1456
  464DPPI    C1 7159   3.750   3.491  11.879 -0.0900 -0.0400  0.0154
  464DPPI    C2 7160   3.934   3.145  11.962  0.1358  0.0513 -0.0957
  464DPPI    C3 7161   3.982   3.461  12.204 -0.3143 -0.0784  0.1737
  464DPPI   PO4 7162   3.756   3.562  11.673  0.0680  0.0063  0.0550
  464DPPI   GL1 7163   3.941   3.502  11.307  0.2342  0.0670 -0.0883
  464DPPI   GL2 7164   3.894   3.779  11.223  0.1596 -0.1026  0.1475
  464DPPI   C1A 7165   3.782   3.163  11.020 -0.0536 -0.0043 -0.0374
  464DPPI   C2A 7166   3.902   3.133  10.647 -0.0283  0.0807  0.1793
  464DPPI   C3A 7167   3.879   3.250  10.178 -0.3990 -0.1805  0.0348
  464DPPI   C4A 7168   3.975   3.426   9.776 -0.2361  0.0781 -0.2786
  464DPPI   C1B 7169   3.897   3.971  10.824 -0.4784 -0.2050  0.0345
  464DPPI   C2B 7170   3.931   3.908  10.412 -0.2078 -0.1185  0.3378
  464DPPI   C3B 7171   3.845   3.838  10.066  0.3439 -0.2035 -0.1232
  464DPPI   C4B 7172   3.959   3.864   9.626 -0.0457 -0.1828  0.1825
  465DPPI    C1 7173  13.469  15.582  11.744  0.0053  0.1535  0.0264
  465DPPI    C2 7174  13.404  15.915  11.956 -0.2129  0.0816  0.0751
  465DPPI    C3 7175  13.588  15.602  12.125 -0.2110  0.0953  0.0985
  465DPPI   PO4 7176  13.441  15.636  11.512  0.1302 -0.2451  0.0563
  465DPPI   GL1 7177  13.673  15.533  11.221 -0.0910 -0.2414 -0.0526
  465DPPI   GL2 7178  13.764  15.910  11.070 -0.1030  0.1891 -0.1390
  465DPPI   C1A 7179  13.468  15.307  10.874  0.1496 -0.1716 -0.4299
  465DPPI   C2A 7180  13.574  15.317  10.409 -0.0269 -0.3165 -0.3418
  465DPPI   C3A 7181  13.688  15.349  10.044 -0.2132  0.0613  0.0202
  465DPPI   C4A 7182  13.649  15.360   9.586 -0.1873 -0.2741  0.0607
  465DPPI   C1B 7183  13.605  15.854  10.629 -0.2300  0.0925  0.1640
  465DPPI   C2B 7184  13.604  15.832  10.261 -0.2789  0.1132  0.3101
  465DPPI   C3B 7185  13.666  15.858   9.886 -0.0582 -0.0422  0.2993
  465DPPI   C4B 7186  13.635  15.859   9.450 -0.0889 -0.2079  0.1932
  466DPPI    C1 7187  13.067   7.564  11.249 -0.0812 -0.1269  0.1320
  466DPPI    C2 7188  13.384   7.451  11.465 -0.0446 -0.0404  0.1238
  466DPPI    C3 7189  13.065   7.610  11.646 -0.1315 -0.2359  0.1450
  466DPPI   PO4 7190  13.089   7.354  11.032 -0.1497 -0.0258  0.2705
  466DPPI   GL1 7191  13.359   7.202  10.834  0.1177  0.2143 -0.1997
  466DPPI   GL2 7192  13.304   6.784  10.840  0.2965  0.0150  0.0916
  466DPPI   C1A 7193  13.554   7.365  10.429 -0.1957 -0.0885 -0.1064
  466DPPI   C2A 7194  13.600   7.449   9.985  0.0785 -0.0731  0.2287
  466DPPI   C3A 7195  13.442   7.541   9.554  0.0471 -0.3747 -0.1481
  466DPPI   C4A 7196  13.119   7.432   9.258  0.3938 -0.0211 -0.0949
  466DPPI   C1B 7197  13.534   6.840  10.476 -0.1691 -0.0224  0.0315
  466DPPI   C2B 7198  13.610   6.856  10.049 -0.0604  0.1104  0.1952
  466DPPI   C3B 7199  13.707   6.658   9.712  0.1011 -0.1478 -0.1548
  466DPPI   C4B 7200  13.798   6.559   9.259 -0.1492 -0.0102  0.0694
  467DPPI    C1 7201   4.104  14.944  11.620  0.0069  0.0555  0.0559
  467DPPI    C2 7202   3.860  14.828  11.325 -0.0201 -0.0119  0.1046
  467DPPI    C3 7203   3.766  14.749  11.706  0.1176 -0.1104  0.1186
  467DPPI   PO4 7204   4.188  15.129  11.595 -0.1150  0.0436 -0.3263
  467DPPI   GL1 7205   4.286  15.307  11.246  0.3363  0.1964  0.0108
  467DPPI   GL2 7206   4.291  15.574  11.145  0.3068  0.0067 -0.1596
  467DPPI   C1A 7207   4.320  14.964  10.952 -0.2178  0.4440 -0.2668
  467DPPI   C2A 7208   4.247  14.980  10.440  0.0661  0.1608 -0.5836
  467DPPI   C3A 7209   4.127  14.916   9.995  0.1451  0.1585 -0.1013
  467DPPI   C4A 7210   4.113  14.707   9.658  0.0384 -0.0980  0.1051
  467DPPI   C1B 7211   4.188  15.547  10.687 -0.0298  0.2386 -0.0727
  467DPPI   C2B 7212   4.120  15.463  10.254  0.1538  0.3582 -0.2118
  467DPPI   C3B 7213   3.989  15.410   9.831 -0.2471  0.1037 -0.4542
  467DPPI   C4B 7214   3.896  15.595   9.421 -0.1592  0.1426 -0.3410
  468DPPI    C1 7215   5.164  15.293  11.925  0.0300  0.1380 -0.2426
  468DPPI    C2 7216   5.413  15.603  11.961  0.1306  0.0281  0.0357
  468DPPI    C3 7217   5.258  15.433  12.288 -0.1658 -0.0218 -0.1281
  468DPPI   PO4 7218   5.189  15.304  11.598 -0.1136  0.0271 -0.0486
  468DPPI   GL1 7219   5.367  15.140  11.179 -0.1651  0.2046  0.1400
  468DPPI   GL2 7220   5.549  15.308  11.145  0.0134  0.0583 -0.1531
  468DPPI   C1A 7221   5.129  14.983  10.838 -0.2672 -0.1196  0.1735
  468DPPI   C2A 7222   4.788  14.847  10.616  0.0011  0.1501 -0.0905
  468DPPI   C3A 7223   4.635  14.713  10.194  0.1810  0.1035 -0.1131
  468DPPI   C4A 7224   4.564  14.726   9.740 -0.1996  0.0385  0.4577
  468DPPI   C1B 7225   5.536  15.277  10.705  0.2032 -0.3896 -0.3690
  468DPPI   C2B 7226   5.487  15.357  10.260  0.2443  0.1866  0.0638
  468DPPI   C3B 7227   5.385  15.369   9.746  0.4523 -0.2711  0.0423
  468DPPI   C4B 7228   5.377  15.591   9.326 -0.2933 -0.0129 -0.0784
  469DPPI    C1 7229  13.150   0.777  11.063  0.3155  0.0043  0.0082
  469DPPI    C2 7230  12.967   0.423  11.093 -0.1084  0.2037 -0.1390
  469DPPI    C3 7231  13.088   0.614  11.423  0.1086 -0.0668 -0.0581
  469DPPI   PO4 7232  12.937   1.053  10.940  0.0053 -0.1622  0.2620
  469DPPI   GL1 7233  12.973   1.253  10.547 -0.4653 -0.1976  0.3417
  469DPPI   GL2 7234  13.057   1.581  10.684  0.0521 -0.0708 -0.0899
  469DPPI   C1A 7235  13.027   1.102  10.103 -0.2936 -0.0607  0.2023
  469DPPI   C2A 7236  12.969   0.983   9.668  0.3208 -0.2147 -0.1083
  469DPPI   C3A 7237  12.905   0.957   9.239  0.2072 -0.0907 -0.1854
  469DPPI   C4A 7238  12.922   0.936   8.770  0.1286 -0.1842  0.0694
  469DPPI   C1B 7239  13.209   1.915  10.388  0.2617  0.1963 -0.0424
  469DPPI   C2B 7240  13.066   2.066   9.999  0.1364  0.0265 -0.0235
  469DPPI   C3B 7241  12.786   2.162   9.669  0.0175 -0.1705  0.1708
  469DPPI   C4B 7242  12.872   2.295   9.273 -0.0939  0.2574  0.0239
  470DPPI    C1 7243  15.298  12.006  11.278  0.1265  0.1427  0.0691
  470DPPI    C2 7244  15.427  11.735  11.542 -0.2866  0.0359  0.1694
  470DPPI    C3 7245  15.252  12.072  11.670  0.0444  0.2621  0.0404
  470DPPI   PO4 7246  15.089  11.884  11.098 -0.3165 -0.0147  0.3867
  470DPPI   GL1 7247  15.062  11.903  10.768 -0.2469 -0.1290  0.0068
  470DPPI   GL2 7248  14.776  11.699  10.712 -0.1371 -0.1049  0.0703
  470DPPI   C1A 7249  15.300  11.967  10.347  0.0153 -0.0163 -0.2527
  470DPPI   C2A 7250  15.248  12.074   9.932  0.1231  0.0168  0.1670
  470DPPI   C3A 7251  15.346  12.151   9.518  0.0989 -0.3591 -0.0206
  470DPPI   C4A 7252  15.323  11.989   9.051  0.1150 -0.0477  0.0995
  470DPPI   C1B 7253  14.835  11.787  10.308 -0.3300  0.3325 -0.0276
  470DPPI   C2B 7254  14.715  11.955   9.965 -0.1739 -0.0036  0.2344
  470DPPI   C3B 7255  14.463  12.108   9.511 -0.3030 -0.1871  0.1549
  470DPPI   C4B 7256  14.324  11.839   9.168 -0.3615  0.2910 -0.4778
  471DPPI    C1 7257  15.706  16.622  11.701 -0.2676  0.1184  0.0382
  471DPPI    C2 7258  15.603  16.246  11.791 -0.2054  0.0943  0.0100
  471DPPI    C3 7259  15.352  16.478  11.582 -0.0284 -0.1031 -0.4349
  471DPPI   PO4 7260  15.947  16.610  11.620  0.2987 -0.0732  0.0134
  471DPPI   GL1 7261  16.286  16.494  11.378  0.1178  0.1168 -0.1763
  471DPPI   GL2 7262  16.404  16.249  11.332  0.3200 -0.1159  0.0318
  471DPPI   C1A 7263  16.425  16.525  10.868  0.1226  0.2127 -0.2885
  471DPPI   C2A 7264  16.626  16.421  10.505 -0.1572  0.2929 -0.1334
  471DPPI   C3A 7265  16.679  16.447  10.075  0.0934  0.0407  0.0279
  471DPPI   C4A 7266  16.432  16.370   9.676 -0.1229  0.0799 -0.0677
  471DPPI   C1B 7267  16.594  16.022  10.963  0.0005 -0.1357  0.2154
  471DPPI   C2B 7268  16.585  15.951  10.604  0.0620 -0.2301  0.1704
  471DPPI   C3B 7269  16.700  15.953  10.184 -0.2569 -0.0138 -0.2144
  471DPPI   C4B 7270  16.736  15.971   9.742  0.1654  0.1004  0.1216
  472DPPI    C1 7271   8.009   4.539  11.527 -0.1896  0.0237  0.1859
  472DPPI    C2 7272   7.974   4.229  11.777 -0.0819 -0.0961  0.0540
  472DPPI    C3 7273   7.695   4.516  11.774 -0.1468 -0.1560  0.2248
  472DPPI   PO4 7274   7.985   4.438  11.316  0.0735  0.0107  0.3199
  472DPPI   GL1 7275   7.662   4.426  11.052 -0.4816 -0.0362 -0.1192
  472DPPI   GL2 7276   7.457   4.366  10.937  0.0374  0.0581  0.0525
  472DPPI   C1A 7277   7.999   4.416  10.661 -0.2077 -0.1612  0.0679
  472DPPI   C2A 7278   7.907   4.528  10.279  0.2159 -0.1692  0.2390
  472DPPI   C3A 7279   7.954   4.537   9.806  0.1952  0.1481 -0.3707
  472DPPI   C4A 7280   7.789   4.636   9.432 -0.3175  0.1924 -0.1062
  472DPPI   C1B 7281   7.491   4.193  10.558  0.0849  0.0494  0.0326
  472DPPI   C2B 7282   7.547   4.217  10.054  0.2830  0.0599 -0.0609
  472DPPI   C3B 7283   7.418   4.295   9.707 -0.0343 -0.0367  0.0592
  472DPPI   C4B 7284   7.437   4.301   9.268  0.0664 -0.2407  0.2288
  473PYPI    C1 7285  15.214  12.570  11.600  0.1044  0.0052 -0.0432
  473PYPI    C2 7286  15.143  12.924  11.774  0.1499 -0.0309  0.0492
  473PYPI    C3 7287  14.955  12.595  11.904  0.0452 -0.0272 -0.0909
  473PYPI   PO4 7288  15.208  12.609  11.234 -0.1495 -0.0394  0.3193
  473PYPI   GL1 7289  15.040  12.454  10.857 -0.2948 -0.0047 -0.1339
  473PYPI   GL2 7290  15.003  12.791  10.806  0.1976  0.2309  0.1592
  473PYPI   C1A 7291  14.937  12.319  10.518  0.2532  0.1518 -0.0892
  473PYPI   C2A 7292  14.933  12.388  10.117  0.1650  0.0798 -0.4242
  473PYPI   D3A 7293  14.902  12.398   9.672 -0.0426 -0.2801 -0.0698
  473PYPI   C4A 7294  14.869  12.304   9.167  0.0038  0.0545 -0.1192
  473PYPI   C1B 7295  15.121  12.754  10.393  0.0728  0.0106 -0.1070
  473PYPI   C2B 7296  15.188  12.745   9.963 -0.0838  0.0031  0.1995
  473PYPI   C3B 7297  15.276  12.693   9.485  0.0120 -0.2215  0.1109
  473PYPI   C4B 7298  15.364  12.521   9.123 -0.3167  0.0121 -0.2522
  474PYPI    C1 7299  15.799  12.874  11.906 -0.1868  0.0977 -0.1973
  474PYPI    C2 7300  15.510  12.996  12.154 -0.0988  0.0574 -0.0745
  474PYPI    C3 7301  15.772  12.717  12.273 -0.0406  0.0568 -0.2033
  474PYPI   PO4 7302  15.624  12.839  11.568  0.0572 -0.0782  0.0934
  474PYPI   GL1 7303  15.679  12.917  11.133 -0.0406 -0.1060 -0.0684
  474PYPI   GL2 7304  15.985  13.124  10.988  0.2329 -0.1269  0.0920
  474PYPI   C1A 7305  15.579  12.829  10.698 -0.0736  0.0948 -0.0312
  474PYPI   C2A 7306  15.640  12.875  10.238 -0.2669 -0.0007  0.1173
  474PYPI   D3A 7307  15.624  13.042   9.758  0.0447 -0.1117 -0.0043
  474PYPI   C4A 7308  15.192  13.164   9.726  0.1851  0.0133  0.2225
  474PYPI   C1B 7309  15.956  13.155  10.552 -0.0878 -0.0423  0.1997
  474PYPI   C2B 7310  16.036  13.223  10.085  0.1534 -0.3312  0.1662
  474PYPI   C3B 7311  16.048  13.241   9.562  0.1516  0.0284 -0.1616
  474PYPI   C4B 7312  16.108  13.525   9.283 -0.0211  0.4213 -0.1744
  475PYPI    C1 7313   2.550   3.880  11.961  0.1080  0.1094  0.0181
  475PYPI    C2 7314   2.820   4.170  12.011  0.1125  0.1142 -0.0337
  475PYPI    C3 7315   2.476   4.181  12.215 -0.0042  0.3000 -0.2363
  475PYPI   PO4 7316   2.642   3.794  11.640  0.1082 -0.1680  0.4626
  475PYPI   GL1 7317   2.515   3.833  11.260 -0.2569  0.1528 -0.0342
  475PYPI   GL2 7318   2.713   4.123  11.053  0.0418  0.0575 -0.1607
  475PYPI   C1A 7319   2.516   3.560  10.957 -0.2230 -0.4384 -0.0746
  475PYPI   C2A 7320   2.537   3.428  10.527  0.2165 -0.0626  0.1307
  475PYPI   D3A 7321   2.525   3.352  10.116  0.2482 -0.3168 -0.0997
  475PYPI   C4A 7322   2.505   3.568   9.728 -0.0483  0.0733 -0.0316
  475PYPI   C1B 7323   2.580   3.970  10.634 -0.1072 -0.0391  0.1152
  475PYPI   C2B 7324   2.544   3.902  10.205  0.1833  0.0972  0.0670
  475PYPI   C3B 7325   2.584   4.079   9.784  0.0001  0.0857 -0.1392
  475PYPI   C4B 7326   2.745   3.867   9.369 -0.1688  0.3559 -0.1723
  476PYPI    C1 7327   0.311   2.573  11.809  0.0981  0.1055  0.0836
  476PYPI    C2 7328   0.693   2.616  11.699  0.0664 -0.0231 -0.0818
  476PYPI    C3 7329   0.474   2.938  11.791  0.1266  0.0780 -0.2865
  476PYPI   PO4 7330   0.246   2.377  11.770 -0.1295 -0.0814 -0.1314
  476PYPI   GL1 7331   0.233   2.269  11.351  0.2238 -0.1865  0.0292
  476PYPI   GL2 7332   0.291   1.967  11.168  0.0034 -0.2307 -0.4061
  476PYPI   C1A 7333   0.051   2.492  11.048  0.0980 -0.2689  0.2520
  476PYPI   C2A 7334   0.078   2.476  10.603 -0.0781 -0.0406  0.0282
  476PYPI   D3A 7335   0.174   2.568  10.113  0.0712 -0.1711 -0.0664
  476PYPI   C4A 7336   0.468   2.369   9.760 -0.0352 -0.2215  0.1348
  476PYPI   C1B 7337   0.313   2.003  10.740 -0.0011 -0.0546 -0.1182
  476PYPI   C2B 7338   0.492   1.890  10.300  0.1256 -0.4220 -0.1828
  476PYPI   C3B 7339   0.462   1.807   9.858 -0.2678 -0.1424  0.1165
  476PYPI   C4B 7340   0.511   1.570   9.451 -0.1159  0.1459  0.2047
  477PYPI    C1 7341  14.835   0.573  11.564  0.0017 -0.0514  0.2408
  477PYPI    C2 7342  14.784   0.935  11.402  0.1909 -0.1863 -0.1312
  477PYPI    C3 7343  15.147   0.820  11.525  0.1056 -0.2010  0.1118
  477PYPI   PO4 7344  14.720   0.364  11.390  0.1149 -0.2760  0.1820
  477PYPI   GL1 7345  14.943   0.030  11.210  0.1599  0.0852 -0.0322
  477PYPI   GL2 7346  14.742   0.112  10.932 -0.4087  0.1350 -0.0284
  477PYPI   C1A 7347  15.222   0.104  10.795  0.1321 -0.1054  0.0730
  477PYPI   C2A 7348  15.257   0.163  10.380  0.2320 -0.0636 -0.0549
  477PYPI   D3A 7349  15.359   0.061  10.001  0.1777  0.1167  0.0692
  477PYPI   C4A 7350  15.734  -0.303   9.915 -0.0021  0.0221  0.3537
  477PYPI   C1B 7351  14.723   0.069  10.502 -0.0934 -0.3267 -0.0684
  477PYPI   C2B 7352  14.845   0.073  10.054  0.0440 -0.1522  0.0388
  477PYPI   C3B 7353  14.999   0.221   9.652 -0.0015  0.0041  0.0381
  477PYPI   C4B 7354  15.164   0.144   9.245  0.1225 -0.2410  0.1012
  478PYPI    C1 7355   1.655   2.434  11.649  0.1449  0.0498 -0.1175
  478PYPI    C2 7356   1.999   2.595  11.775  0.0158  0.0915  0.1924
  478PYPI    C3 7357   1.710   2.510  12.038 -0.2990  0.2610 -0.0898
  478PYPI   PO4 7358   1.651   2.575  11.368  0.2573  0.0918  0.0412
  478PYPI   GL1 7359   1.402   2.751  10.995  0.3525 -0.0000 -0.0786
  478PYPI   GL2 7360   1.734   2.892  11.007 -0.0286 -0.4178 -0.1237
  478PYPI   C1A 7361   1.589   2.772  10.594 -0.1169 -0.0667  0.2065
  478PYPI   C2A 7362   1.730   2.914  10.215  0.3403  0.0050 -0.2927
  478PYPI   D3A 7363   1.696   2.737   9.802  0.3455 -0.0407  0.0960
  478PYPI   C4A 7364   1.970   2.757   9.420  0.2050  0.0948  0.0639
  478PYPI   C1B 7365   1.722   3.257  10.807  0.0056  0.1900  0.1220
  478PYPI   C2B 7366   1.649   3.365  10.344  0.0445 -0.2509 -0.1238
  478PYPI   C3B 7367   1.720   3.364   9.865 -0.2320  0.4300 -0.1156
  478PYPI   C4B 7368   1.696   3.162   9.501 -0.0852 -0.0480  0.1492
  479PYPI    C1 7369  14.259   1.280  11.684  0.0167  0.0184  0.0027
  479PYPI    C2 7370  14.086   1.629  11.595 -0.0222 -0.0214 -0.0786
  479PYPI    C3 7371  14.060   1.482  11.966  0.0856  0.1140 -0.0165
  479PYPI   PO4 7372  14.485   1.317  11.557 -0.1057 -0.2031 -0.0221
  479PYPI   GL1 7373  14.515   1.245  11.092 -0.1467  0.2903  0.0781
  479PYPI   GL2 7374  14.608   0.967  10.918 -0.2229 -0.1613  0.0123
  479PYPI   C1A 7375  14.286   1.355  10.664  0.1851  0.0974  0.3733
  479PYPI   C2A 7376  14.277   1.357  10.277  0.0616 -0.2394 -0.2907
  479PYPI   D3A 7377  14.365   1.348   9.922  0.1401 -0.2205  0.2080
  479PYPI   C4A 7378  14.565   1.443   9.518 -0.1932  0.4891  0.0455
  479PYPI   C1B 7379  14.744   1.155  10.608  0.0904  0.0593  0.3342
  479PYPI   C2B 7380  14.770   1.125  10.167  0.0974 -0.2101  0.0312
  479PYPI   C3B 7381  14.995   1.269   9.777  0.3184 -0.0070  0.2000
  479PYPI   C4B 7382  15.040   1.225   9.378  0.4556 -0.1307  0.2992
  480PYPI    C1 7383  13.307   2.304  10.899 -0.0828  0.0552  0.0776
  480PYPI    C2 7384  13.023   2.033  10.818 -0.0135  0.0542 -0.1690
  480PYPI    C3 7385  13.358   1.921  11.006 -0.1619  0.0500  0.0975
  480PYPI   PO4 7386  13.369   2.387  10.749  0.3209 -0.1093  0.1457
  480PYPI   GL1 7387  13.354   2.519  10.437 -0.0087 -0.3236  0.2014
  480PYPI   GL2 7388  13.553   2.832  10.508 -0.3778 -0.1097 -0.1866
  480PYPI   C1A 7389  13.387   2.411   9.967 -0.0815  0.1122 -0.0129
  480PYPI   C2A 7390  13.281   2.149   9.599  0.1330  0.1538  0.4106
  480PYPI   D3A 7391  13.127   1.890   9.216  0.0245 -0.0200  0.2413
  480PYPI   C4A 7392  13.146   1.941   8.750 -0.0243 -0.2154  0.2421
  480PYPI   C1B 7393  13.714   2.715  10.130 -0.1105 -0.2360 -0.1260
  480PYPI   C2B 7394  13.764   2.571   9.734  0.0641  0.2708 -0.1901
  480PYPI   C3B 7395  13.880   2.631   9.342 -0.1076  0.2029  0.0317
  480PYPI   C4B 7396  13.937   2.592   8.929  0.2312 -0.2262 -0.1051
  481PYPI    C1 7397  11.200   9.993  11.634  0.3657  0.0422 -0.0288
  481PYPI    C2 7398  11.461   9.696  11.692  0.0303 -0.2143  0.2022
  481PYPI    C3 7399  11.395   9.964  11.981  0.1304 -0.0737  0.0960
  481PYPI   PO4 7400  11.160   9.994  11.429  0.1860  0.2179  0.3899
  481PYPI   GL1 7401  11.185  10.221  11.160  0.2303 -0.0275  0.0091
  481PYPI   GL2 7402  11.504  10.245  10.979  0.3159 -0.0168 -0.1195
  481PYPI   C1A 7403  11.200  10.401  10.679 -0.1794  0.2021 -0.2029
  481PYPI   C2A 7404  11.064  10.433  10.382  0.0061  0.0203  0.2632
  481PYPI   D3A 7405  11.100  10.265   9.973  0.0161 -0.0776  0.1295
  481PYPI   C4A 7406  11.216  10.452   9.587  0.0747 -0.0932  0.1840
  481PYPI   C1B 7407  11.645  10.154  10.527 -0.1589  0.0797 -0.1125
  481PYPI   C2B 7408  11.783  10.185  10.189  0.3262 -0.2806 -0.0225
  481PYPI   C3B 7409  11.596  10.154   9.832 -0.0247 -0.1067 -0.0207
  481PYPI   C4B 7410  11.695  10.370   9.476 -0.0303 -0.0700  0.0341
  482PYPI    C1 7411  13.332  13.973  11.783  0.2790  0.0551  0.0474
  482PYPI    C2 7412  13.583  13.706  11.944  0.1138 -0.1852 -0.0871
  482PYPI    C3 7413  13.238  13.794  12.128  0.0733 -0.2190 -0.1467
  482PYPI   PO4 7414  13.260  13.864  11.431 -0.1406  0.1454  0.2386
  482PYPI   GL1 7415  13.305  13.839  11.079 -0.1332  0.2983 -0.0153
  482PYPI   GL2 7416  13.555  13.783  10.998 -0.1590  0.1208 -0.4316
  482PYPI   C1A 7417  13.180  14.103  10.763 -0.2702  0.0285 -0.0090
  482PYPI   C2A 7418  13.180  14.086  10.367 -0.0224 -0.1549  0.0380
  482PYPI   D3A 7419  13.279  13.990   9.912  0.2803 -0.0072  0.1775
  482PYPI   C4A 7420  13.420  13.470   9.793  0.0290  0.0854  0.0554
  482PYPI   C1B 7421  13.412  13.691  10.597  0.2517 -0.1267 -0.0422
  482PYPI   C2B 7422  13.499  13.645  10.238  0.1158  0.1077 -0.3107
  482PYPI   C3B 7423  13.757  13.797   9.822  0.1913  0.0500 -0.0009
  482PYPI   C4B 7424  13.657  13.786   9.382  0.1022 -0.1164  0.1605
  483PYPI    C1 7425   7.805   6.367  11.376 -0.0982  0.0051 -0.0525
  483PYPI    C2 7426   7.781   6.683  11.131  0.4485  0.1929  0.1211
  483PYPI    C3 7427   7.550   6.664  11.457 -0.0062  0.1250 -0.1957
  483PYPI   PO4 7428   7.830   6.160  11.231 -0.0269 -0.0762 -0.0931
  483PYPI   GL1 7429   7.969   6.144  10.893  0.0300  0.0245 -0.0598
  483PYPI   GL2 7430   8.157   6.336  10.917 -0.0709 -0.1296  0.1080
  483PYPI   C1A 7431   7.864   6.130  10.432  0.0548 -0.0342 -0.1873
  483PYPI   C2A 7432   7.862   6.150  10.029  0.2771  0.0142  0.0805
  483PYPI   D3A 7433   7.776   6.164   9.585  0.0247  0.0763 -0.0657
  483PYPI   C4A 7434   7.961   6.163   9.220  0.0445  0.1364 -0.0859
  483PYPI   C1B 7435   7.920   6.595  10.672  0.1798  0.1977 -0.0738
  483PYPI   C2B 7436   7.808   6.641  10.193 -0.0081 -0.0281  0.1492
  483PYPI   C3B 7437   7.701   6.643   9.719 -0.3013  0.2958 -0.0667
  483PYPI   C4B 7438   7.661   6.637   9.329 -0.1266  0.4095 -0.1448
  484PYPI    C1 7439  15.038  11.372  11.526 -0.1204 -0.1180  0.0042
  484PYPI    C2 7440  14.729  11.333  11.777 -0.0980  0.3100  0.1053
  484PYPI    C3 7441  14.971  11.022  11.709 -0.4053  0.0412  0.2128
  484PYPI   PO4 7442  14.957  11.441  11.312 -0.0845  0.1177  0.1730
  484PYPI   GL1 7443  15.001  11.334  10.932 -0.1848  0.0712 -0.2135
  484PYPI   GL2 7444  14.825  11.180  10.719  0.0865 -0.3713  0.1679
  484PYPI   C1A 7445  15.251  11.474  10.572 -0.0468 -0.1152  0.3471
  484PYPI   C2A 7446  15.270  11.500  10.139  0.0115  0.2111 -0.0772
  484PYPI   D3A 7447  15.313  11.634   9.709 -0.0523  0.2806  0.0488
  484PYPI   C4A 7448  14.938  11.900   9.527 -0.3194  0.2490 -0.1256
  484PYPI   C1B 7449  14.789  11.260  10.309 -0.1878 -0.0623  0.1260
  484PYPI   C2B 7450  14.767  11.432   9.917 -0.0832  0.1065  0.3056
  484PYPI   C3B 7451  14.496  11.508   9.538 -0.1458 -0.1616 -0.1127
  484PYPI   C4B 7452  14.507  11.327   9.161  0.0135  0.0183 -0.1212
  485PYPI    C1 7453   0.456   9.987  11.733  0.3160  0.1449 -0.0930
  485PYPI    C2 7454   0.152  10.097  11.497  0.3346 -0.1450 -0.2569
  485PYPI    C3 7455   0.296  10.352  11.770 -0.1196 -0.0393 -0.1065
  485PYPI   PO4 7456   0.667   9.944  11.572 -0.0083 -0.1659  0.2430
  485PYPI   GL1 7457   0.495   9.850  11.143 -0.0789 -0.0651  0.1277
  485PYPI   GL2 7458   0.239   9.881  11.055  0.0573 -0.0616 -0.0781
  485PYPI   C1A 7459   0.663   9.949  10.793  0.1446 -0.0550 -0.2898
  485PYPI   C2A 7460   0.656   9.938  10.425 -0.0520  0.0439 -0.0026
  485PYPI   D3A 7461   0.474  10.097  10.026 -0.0591 -0.0680  0.0656
  485PYPI   C4A 7462   0.681   9.878   9.648  0.1499  0.1406 -0.0396
  485PYPI   C1B 7463   0.200   9.925  10.559 -0.1577  0.1150  0.2982
  485PYPI   C2B 7464   0.141   9.761  10.194 -0.3068 -0.0645  0.2377
  485PYPI   C3B 7465   0.208   9.702   9.701 -0.0167  0.1096  0.3901
  485PYPI   C4B 7466   0.288   9.751   9.380 -0.0829 -0.1468  0.2364
  486PYPI    C1 7467  10.762   8.058  11.235  0.0553  0.0739 -0.1053
  486PYPI    C2 7468  10.608   8.341  11.472 -0.0422  0.0108 -0.0929
  486PYPI    C3 7469  10.712   7.987  11.625  0.0219  0.0178 -0.1197
  486PYPI   PO4 7470  10.841   8.269  11.022  0.0207  0.1409  0.0465
  486PYPI   GL1 7471  11.040   8.106  10.694  0.0498 -0.1554  0.2237
  486PYPI   GL2 7472  11.117   8.441  10.664  0.2860  0.0765  0.1344
  486PYPI   C1A 7473  11.082   7.969  10.426 -0.2062 -0.1525  0.0063
  486PYPI   C2A 7474  11.069   7.886  10.016 -0.4518 -0.4707 -0.3661
  486PYPI   D3A 7475  10.998   7.707   9.614  0.0139 -0.1280 -0.3070
  486PYPI   C4A 7476  10.835   7.853   9.272 -0.0586 -0.2408  0.1278
  486PYPI   C1B 7477  10.914   8.442  10.261  0.1786 -0.1169 -0.2457
  486PYPI   C2B 7478  11.009   8.420   9.833  0.2702 -0.2833  0.1401
  486PYPI   C3B 7479  10.948   8.656   9.537  0.0776  0.1724 -0.2614
  486PYPI   C4B 7480  10.845   8.771   9.104  0.0139  0.2371 -0.0239
  487PYPI    C1 7481  14.411   4.041  11.175  0.1626 -0.1889  0.2408
  487PYPI    C2 7482  14.020   3.998  11.246  0.0655  0.1244 -0.0754
  487PYPI    C3 7483  14.209   4.329  11.366  0.1503  0.1412 -0.2518
  487PYPI   PO4 7484  14.447   3.973  10.952  0.0278  0.1771  0.1730
  487PYPI   GL1 7485  14.344   4.039  10.535  0.1255 -0.1664 -0.0569
  487PYPI   GL2 7486  14.467   4.339  10.638 -0.0614  0.1749  0.1628
  487PYPI   C1A 7487  14.428   3.999  10.016 -0.0382  0.3623 -0.2156
  487PYPI   C2A 7488  14.578   3.960   9.560 -0.3894  0.3809 -0.1115
  487PYPI   D3A 7489  14.726   4.002   9.199 -0.1556  0.0511  0.1109
  487PYPI   C4A 7490  15.106   4.070   8.899  0.0940  0.2297  0.0211
  487PYPI   C1B 7491  14.374   4.447  10.219 -0.2522 -0.4137 -0.4508
  487PYPI   C2B 7492  14.447   4.435   9.803  0.3302 -0.1622 -0.1027
  487PYPI   C3B 7493  14.395   4.386   9.312 -0.3942 -0.0133  0.2735
  487PYPI   C4B 7494  14.675   4.442   8.855  0.1873  0.1667 -0.0848
  488PYPI    C1 7495  14.318  11.526  11.466  0.0657 -0.3199  0.0385
  488PYPI    C2 7496  14.111  11.392  11.781 -0.1414  0.1845  0.1261
  488PYPI    C3 7497  14.398  11.665  11.832  0.3269 -0.2612 -0.0387
  488PYPI   PO4 7498  14.035  11.555  11.313 -0.0155 -0.0716 -0.2956
  488PYPI   GL1 7499  13.666  11.393  10.990 -0.2526  0.2754 -0.3154
  488PYPI   GL2 7500  13.393  11.452  10.959  0.0457  0.0536  0.1037
  488PYPI   C1A 7501  13.861  11.458  10.617  0.5380  0.0639  0.2051
  488PYPI   C2A 7502  13.771  11.417  10.169 -0.1833 -0.2599  0.1216
  488PYPI   D3A 7503  13.638  11.381   9.760 -0.0762 -0.2253 -0.1579
  488PYPI   C4A 7504  13.421  11.074   9.535 -0.2641 -0.3452  0.0414
  488PYPI   C1B 7505  13.320  11.620  10.638 -0.0575 -0.1612 -0.0104
  488PYPI   C2B 7506  13.234  11.585  10.206 -0.0072  0.1963  0.2057
  488PYPI   C3B 7507  13.074  11.507   9.790 -0.2888  0.1356  0.0031
  488PYPI   C4B 7508  12.976  11.230   9.503 -0.1027 -0.0567  0.2532
  489PYPI    C1 7509   7.059  10.897  11.606  0.2531  0.0392  0.0591
  489PYPI    C2 7510   6.764  11.019  11.847  0.1257  0.0399 -0.0957
  489PYPI    C3 7511   7.053  10.781  11.989  0.0506  0.0382  0.0565
  489PYPI   PO4 7512   6.856  10.911  11.369 -0.0297 -0.1732  0.1933
  489PYPI   GL1 7513   6.698  10.714  11.084  0.0785 -0.1543 -0.0218
  489PYPI   GL2 7514   6.945  10.494  10.978  0.0414 -0.1647 -0.0059
  489PYPI   C1A 7515   6.433  10.958  10.730 -0.0607  0.1005 -0.1368
  489PYPI   C2A 7516   6.443  10.918  10.311 -0.1569  0.0846  0.2897
  489PYPI   D3A 7517   6.419  10.991   9.778 -0.0628  0.1254 -0.0957
  489PYPI   C4A 7518   6.390  10.881   9.362  0.1031 -0.0549 -0.1346
  489PYPI   C1B 7519   6.932  10.746  10.649  0.0728 -0.1020  0.0106
  489PYPI   C2B 7520   6.938  10.728  10.198  0.0455 -0.3472  0.1004
  489PYPI   C3B 7521   6.939  10.692   9.791 -0.2735  0.0146 -0.3797
  489PYPI   C4B 7522   6.984  10.648   9.275 -0.1919 -0.2328 -0.1554
  490PYPI    C1 7523  12.861  16.592  11.354  0.0386  0.0536 -0.1312
  490PYPI    C2 7524  12.560  16.751  11.565  0.1191  0.1117 -0.0596
  490PYPI    C3 7525  12.880  16.601  11.754  0.0822 -0.0593 -0.1302
  490PYPI   PO4 7526  12.787  16.446  11.208 -0.2628  0.0265 -0.1818
  490PYPI   GL1 7527  12.853  16.223  10.877 -0.0668  0.1219 -0.2499
  490PYPI   GL2 7528  13.088  16.032  10.709 -0.0921  0.1234 -0.0656
  490PYPI   C1A 7529  12.596  15.921  10.530  0.1905 -0.2022  0.1651
  490PYPI   C2A 7530  12.569  15.763  10.083  0.3984 -0.1655  0.1172
  490PYPI   D3A 7531  12.684  15.741   9.738  0.0639  0.3722  0.0850
  490PYPI   C4A 7532  12.662  15.736   9.330  0.2470 -0.4980  0.3514
  490PYPI   C1B 7533  13.033  16.057  10.328 -0.2733 -0.2811 -0.0038
  490PYPI   C2B 7534  13.167  16.024   9.867 -0.0333  0.1175 -0.0210
  490PYPI   C3B 7535  13.082  16.061   9.500 -0.0035  0.1382  0.0253
  490PYPI   C4B 7536  12.948  16.203   9.082 -0.2621 -0.2437 -0.0335
  491PYPI    C1 7537  15.376   9.180  11.302  0.1563  0.1136  0.0979
  491PYPI    C2 7538  15.437   9.568  11.379 -0.3727  0.2428 -0.0873
  491PYPI    C3 7539  15.146   9.370  11.569 -0.0830 -0.0782  0.0319
  491PYPI   PO4 7540  15.425   9.087  11.133 -0.1083 -0.2207 -0.0270
  491PYPI   GL1 7541  15.401   9.192  10.755 -0.0830 -0.1681  0.3681
  491PYPI   GL2 7542  15.669   9.331  10.489  0.0293 -0.1335 -0.0326
  491PYPI   C1A 7543  15.254   9.068  10.312 -0.0450  0.0432  0.1389
  491PYPI   C2A 7544  15.258   9.044   9.787 -0.0070 -0.1950 -0.1302
  491PYPI   D3A 7545  15.101   8.920   9.307  0.0328 -0.1719 -0.0359
  491PYPI   C4A 7546  15.187   9.079   8.893 -0.1655  0.1241 -0.3037
  491PYPI   C1B 7547  15.648   9.383  10.047 -0.2180 -0.2122  0.1135
  491PYPI   C2B 7548  15.652   9.458   9.597 -0.1548 -0.3041 -0.1533
  491PYPI   C3B 7549  15.489   9.826   9.392  0.0740  0.1551  0.3213
  491PYPI   C4B 7550  15.384  10.183   9.109  0.3669 -0.0186  0.1282
  492PYPI    C1 7551   6.203  14.062  11.893 -0.3260 -0.1911  0.1028
  492PYPI    C2 7552   6.329  14.298  12.190 -0.0567 -0.1104 -0.0721
  492PYPI    C3 7553   6.419  13.909  12.193  0.0668 -0.0827 -0.1174
  492PYPI   PO4 7554   6.230  14.120  11.670 -0.1599 -0.1743  0.3195
  492PYPI   GL1 7555   6.117  14.001  11.214 -0.2900  0.0438 -0.3387
  492PYPI   GL2 7556   5.808  14.025  11.000  0.0299 -0.1409 -0.1909
  492PYPI   C1A 7557   6.256  13.952  10.753  0.1186  0.2090  0.0443
  492PYPI   C2A 7558   6.210  14.094  10.337  0.0357 -0.2243  0.0062
  492PYPI   D3A 7559   6.056  14.215   9.984  0.3145  0.2132 -0.0178
  492PYPI   C4A 7560   6.043  14.046   9.559  0.0107  0.0664 -0.0186
  492PYPI   C1B 7561   5.661  14.122  10.569  0.4350 -0.0713  0.1996
  492PYPI   C2B 7562   5.633  14.343  10.215  0.2616  0.0118  0.1249
  492PYPI   C3B 7563   5.627  14.322   9.784 -0.3121  0.0118  0.2225
  492PYPI   C4B 7564   5.494  14.101   9.463 -0.2012 -0.1191 -0.2043
  493PYPI    C1 7565  15.312  16.975  11.748 -0.0563 -0.1154 -0.0257
  493PYPI    C2 7566  15.006  16.727  11.819  0.0379 -0.2152  0.0360
  493PYPI    C3 7567  15.338  16.705  12.042 -0.0207  0.0847  0.1575
  493PYPI   PO4 7568  15.307  17.030  11.532  0.0054 -0.0105 -0.0417
  493PYPI   GL1 7569  15.378  16.981  11.125 -0.2005 -0.0234 -0.0338
  493PYPI   GL2 7570  15.595  16.721  11.203  0.0317 -0.1126  0.0763
  493PYPI   C1A 7571  15.472  16.889  10.651 -0.1252 -0.1754 -0.2168
  493PYPI   C2A 7572  15.383  16.748  10.313  0.1142 -0.2267 -0.1618
  493PYPI   D3A 7573  15.327  16.524   9.868 -0.1190 -0.2874 -0.0215
  493PYPI   C4A 7574  15.600  16.542   9.507 -0.0371  0.0688 -0.1412
  493PYPI   C1B 7575  15.641  16.403  10.907 -0.2042  0.1706 -0.0017
  493PYPI   C2B 7576  15.761  16.265  10.519 -0.0632  0.0377 -0.1024
  493PYPI   C3B 7577  15.774  16.325  10.026 -0.0393  0.1746 -0.0183
  493PYPI   C4B 7578  15.974  16.240   9.584 -0.1242 -0.1424  0.0448
  494PYPI    C1 7579  12.130   6.351  11.150 -0.0245  0.0156  0.1674
  494PYPI    C2 7580  11.781   6.156  11.159  0.0273 -0.0862  0.0034
  494PYPI    C3 7581  11.983   6.219  11.498 -0.2387  0.1360  0.1244
  494PYPI   PO4 7582  12.073   6.508  10.945  0.1599  0.1144 -0.0663
  494PYPI   GL1 7583  12.045   6.673  10.557  0.0974  0.2162  0.0022
  494PYPI   GL2 7584  12.094   7.018  10.332  0.1773 -0.4292  0.0754
  494PYPI   C1A 7585  11.894   6.424  10.231 -0.0860  0.0170 -0.1227
  494PYPI   C2A 7586  11.742   6.076  10.133 -0.1465  0.1603 -0.1418
  494PYPI   D3A 7587  11.537   5.922   9.886 -0.0510 -0.0850  0.2299
  494PYPI   C4A 7588  11.399   6.049   9.467 -0.0199 -0.0285  0.0807
  494PYPI   C1B 7589  11.960   6.885   9.968  0.0205  0.3543 -0.0736
  494PYPI   C2B 7590  11.777   6.716   9.583 -0.1387  0.2450 -0.3923
  494PYPI   C3B 7591  11.856   6.687   9.136  0.0083 -0.2381 -0.2914
  494PYPI   C4B 7592  11.847   6.996   8.878  0.0059  0.3002 -0.4204
  495PYPI    C1 7593  12.787   8.802  11.272 -0.1898  0.0275 -0.0296
  495PYPI    C2 7594  12.858   8.957  11.633 -0.0476 -0.1051  0.0006
  495PYPI    C3 7595  12.785   8.566  11.595  0.2440 -0.1475 -0.1475
  495PYPI   PO4 7596  12.631   8.910  11.145 -0.2956 -0.2395  0.3156
  495PYPI   GL1 7597  12.523   8.831  10.736  0.0204  0.1995 -0.1553
  495PYPI   GL2 7598  12.243   9.099  10.817 -0.0229  0.0372 -0.1007
  495PYPI   C1A 7599  12.450   8.952  10.300  0.1432 -0.0328  0.0802
  495PYPI   C2A 7600  12.376   9.081   9.856 -0.0853 -0.1033 -0.0698
  495PYPI   D3A 7601  12.440   9.231   9.489 -0.1022 -0.0139  0.1441
  495PYPI   C4A 7602  12.503   9.152   9.053 -0.0597 -0.0069 -0.3862
  495PYPI   C1B 7603  12.325   9.413  10.538 -0.1387 -0.0368 -0.1862
  495PYPI   C2B 7604  12.456   9.621  10.209 -0.3003 -0.0818  0.3724
  495PYPI   C3B 7605  12.756   9.515   9.938  0.0516 -0.0114  0.1717
  495PYPI   C4B 7606  12.791   9.619   9.540  0.2364  0.0990 -0.0580
  496PYPI    C1 7607   8.805   1.235  11.072 -0.2172  0.0728  0.1721
  496PYPI    C2 7608   8.768   1.474  11.391  0.2206  0.1927  0.1397
  496PYPI    C3 7609   8.888   1.095  11.437 -0.4781 -0.0361  0.1915
  496PYPI   PO4 7610   8.787   1.495  10.890 -0.2412 -0.0812 -0.0358
  496PYPI   GL1 7611   8.940   1.712  10.574  0.2521 -0.3069  0.0125
  496PYPI   GL2 7612   8.705   1.691  10.320  0.1530  0.1558  0.0757
  496PYPI   C1A 7613   9.095   1.804  10.069 -0.2392  0.0734  0.4563
  496PYPI   C2A 7614   9.114   1.868   9.738  0.0021 -0.2319  0.0747
  496PYPI   D3A 7615   9.026   1.926   9.286  0.1165  0.2022 -0.1050
  496PYPI   C4A 7616   9.244   1.872   8.976  0.1238  0.3902  0.0913
  496PYPI   C1B 7617   8.637   1.649   9.933  0.3535  0.1472  0.1738
  496PYPI   C2B 7618   8.662   1.579   9.380  0.1988  0.1124 -0.1036
  496PYPI   C3B 7619   8.724   1.763   8.945  0.0569  0.1729 -0.0130
  496PYPI   C4B 7620   8.961   1.900   8.559  0.0992 -0.2981 -0.1448
  497PYPI    C1 7621  16.166   6.764  11.402  0.3082 -0.1393 -0.4238
  497PYPI    C2 7622  16.520   6.740  11.587  0.1156 -0.3089 -0.0660
  497PYPI    C3 7623  16.207   6.534  11.726 -0.2255  0.1391 -0.1446
  497PYPI   PO4 7624  16.213   6.721  11.159  0.4188 -0.0347  0.3015
  497PYPI   GL1 7625  16.129   6.451  10.806 -0.0440  0.0255 -0.0976
  497PYPI   GL2 7626  15.859   6.453  10.848 -0.1870  0.2084 -0.3779
  497PYPI   C1A 7627  16.142   6.482  10.408  0.2565  0.1673  0.1535
  497PYPI   C2A 7628  16.275   6.541   9.920 -0.2255  0.0357 -0.0480
  497PYPI   D3A 7629  16.516   6.743   9.555 -0.4478 -0.0418 -0.0583
  497PYPI   C4A 7630  16.236   6.658   9.104  0.0338 -0.0005 -0.1393
  497PYPI   C1B 7631  15.764   6.187  10.495  0.2147  0.2061  0.3081
  497PYPI   C2B 7632  15.890   6.237  10.050  0.0159 -0.4530  0.2136
  497PYPI   C3B 7633  15.973   6.243   9.613  0.1098 -0.0165  0.0590
  497PYPI   C4B 7634  16.115   5.983   9.243 -0.0518 -0.2660 -0.0430
  498PYPI    C1 7635  12.899  10.625  11.515 -0.2207 -0.1851  0.1189
  498PYPI    C2 7636  12.675  10.929  11.383  0.0462  0.1254  0.3640
  498PYPI    C3 7637  12.516  10.655  11.627 -0.1936  0.0690  0.1492
  498PYPI   PO4 7638  13.044  10.566  11.350 -0.1355  0.0879 -0.2839
  498PYPI   GL1 7639  13.087  10.705  10.938  0.3806 -0.0015  0.0365
  498PYPI   GL2 7640  12.791  10.704  10.909 -0.1897  0.1142 -0.0643
  498PYPI   C1A 7641  13.297  10.686  10.625  0.0988  0.2329  0.0055
  498PYPI   C2A 7642  13.505  10.518  10.415  0.2620  0.2086 -0.1558
  498PYPI   D3A 7643  13.739  10.280  10.112 -0.0728  0.0209  0.2778
  498PYPI   C4A 7644  13.652  10.148   9.723  0.2067  0.3236  0.0112
  498PYPI   C1B 7645  12.736  10.621  10.523  0.1091 -0.0716 -0.0392
  498PYPI   C2B 7646  12.683  10.569  10.069  0.2603  0.2541 -0.1908
  498PYPI   C3B 7647  12.615  10.636   9.702  0.3348  0.2400 -0.1896
  498PYPI   C4B 7648  12.518  10.828   9.262 -0.0639 -0.0981  0.0150
  499PYPI    C1 7649   3.085  10.062  11.911 -0.0851 -0.2004 -0.0488
  499PYPI    C2 7650   3.398   9.844  12.032  0.0223  0.0577  0.1470
  499PYPI    C3 7651   3.109   9.939  12.291 -0.1480 -0.0574  0.0020
  499PYPI   PO4 7652   3.217  10.295  11.836  0.0218 -0.2874 -0.1654
  499PYPI   GL1 7653   3.282  10.393  11.444  0.0547 -0.1517 -0.1153
  499PYPI   GL2 7654   3.528  10.224  11.155 -0.1204  0.1409  0.1622
  499PYPI   C1A 7655   2.997  10.490  11.087  0.2556  0.0003 -0.1348
  499PYPI   C2A 7656   2.939  10.476  10.547  0.0910 -0.0326  0.2020
  499PYPI   D3A 7657   2.884  10.436  10.107  0.1556 -0.1207  0.1808
  499PYPI   C4A 7658   2.692  10.675   9.714 -0.3967 -0.0551  0.0448
  499PYPI   C1B 7659   3.406  10.231  10.723  0.1584 -0.1261  0.2091
  499PYPI   C2B 7660   3.374  10.321  10.197  0.0866  0.1026  0.1169
  499PYPI   C3B 7661   3.229  10.285   9.783 -0.0552 -0.1676 -0.0188
  499PYPI   C4B 7662   3.208  10.574   9.367 -0.1596  0.1229  0.0444
  500PYPI    C1 7663   6.570  15.414  11.333 -0.1212  0.1717 -0.0555
  500PYPI    C2 7664   6.197  15.372  11.195 -0.1009 -0.1819 -0.0116
  500PYPI    C3 7665   6.282  15.277  11.574  0.0412 -0.1372 -0.0316
  500PYPI   PO4 7666   6.649  15.570  11.247  0.1955 -0.2882 -0.1104
  500PYPI   GL1 7667   6.727  15.646  10.782 -0.1285  0.0839 -0.1923
  500PYPI   GL2 7668   6.475  15.376  10.767  0.1195 -0.3366  0.1933
  500PYPI   C1A 7669   6.799  15.686  10.386  0.1281  0.0975  0.0352
  500PYPI   C2A 7670   6.775  15.417  10.030 -0.1584 -0.0091  0.0012
  500PYPI   D3A 7671   6.759  15.557   9.574  0.4357  0.2960  0.0638
  500PYPI   C4A 7672   6.804  15.266   9.284 -0.0550 -0.1751 -0.0471
  500PYPI   C1B 7673   6.609  15.174  10.438  0.0193 -0.0287 -0.0900
  500PYPI   C2B 7674   6.450  15.030  10.042 -0.1060  0.0593  0.0742
  500PYPI   C3B 7675   6.369  15.146   9.671  0.0439  0.1457 -0.0549
  500PYPI   C4B 7676   6.303  15.005   9.255  0.3352  0.1774 -0.0104
  501PYPI    C1 7677   1.907   7.156  11.758  0.0563 -0.2672  0.3569
  501PYPI    C2 7678   2.103   7.468  11.914 -0.1261  0.0025  0.0570
  501PYPI    C3 7679   1.749   7.358  12.065 -0.0699 -0.0496  0.1514
  501PYPI   PO4 7680   2.058   7.070  11.568  0.0249  0.1443 -0.6894
  501PYPI   GL1 7681   2.370   7.153  11.221 -0.0344  0.2513  0.1715
  501PYPI   GL2 7682   2.546   6.873  11.207  0.3077 -0.1037 -0.1536
  501PYPI   C1A 7683   2.303   7.429  10.883 -0.1069 -0.1372  0.1547
  501PYPI   C2A 7684   2.406   7.724  10.528 -0.0486 -0.0815  0.0085
  501PYPI   D3A 7685   2.205   7.727  10.105 -0.3750  0.1384 -0.0312
  501PYPI   C4A 7686   2.304   7.849   9.736  0.0197 -0.0860 -0.0204
  501PYPI   C1B 7687   2.542   7.006  10.763  0.1481 -0.2378  0.0963
  501PYPI   C2B 7688   2.476   7.110  10.372  0.0824 -0.1979 -0.0204
  501PYPI   C3B 7689   2.272   7.208   9.971 -0.2047 -0.1728  0.2451
  501PYPI   C4B 7690   2.270   7.322   9.579  0.2486  0.3042  0.0699
  502PYPI    C1 7691  13.198   8.469  11.329  0.1750  0.0503 -0.3051
  502PYPI    C2 7692  13.532   8.422  11.545  0.0995  0.2325 -0.1460
  502PYPI    C3 7693  13.248   8.676  11.668 -0.1776 -0.0508 -0.1867
  502PYPI   PO4 7694  13.304   8.574  11.114  0.0619  0.0221  0.1787
  502PYPI   GL1 7695  13.428   8.820  10.761 -0.0092  0.0409  0.0876
  502PYPI   GL2 7696  13.112   8.763  10.632 -0.1569  0.2127 -0.1080
  502PYPI   C1A 7697  13.586   8.558  10.439  0.1633  0.2840 -0.0504
  502PYPI   C2A 7698  13.560   8.449   9.984  0.0290 -0.1983 -0.3518
  502PYPI   D3A 7699  13.551   8.420   9.597 -0.1174 -0.0677 -0.0404
  502PYPI   C4A 7700  13.491   8.399   9.159 -0.1894  0.2230 -0.0365
  502PYPI   C1B 7701  13.185   8.699  10.272  0.2811 -0.1207  0.3049
  502PYPI   C2B 7702  13.117   8.659   9.794  0.2589 -0.0797  0.1811
  502PYPI   C3B 7703  12.995   8.449   9.489  0.2436  0.1744 -0.1394
  502PYPI   C4B 7704  12.926   8.357   9.109 -0.3212 -0.0278 -0.1471
  503PYPI    C1 7705   5.206  14.657  12.030 -0.0972 -0.2620  0.0763
  503PYPI    C2 7706   5.193  14.882  12.360  0.1617  0.0935 -0.1490
  503PYPI    C3 7707   5.510  14.648  12.290  0.1114  0.0258 -0.1511
  503PYPI   PO4 7708   4.931  14.858  11.823 -0.2759  0.2070  0.1472
  503PYPI   GL1 7709   4.866  14.907  11.445  0.0164  0.0232  0.1116
  503PYPI   GL2 7710   4.721  15.035  11.216 -0.3382  0.0502 -0.1163
  503PYPI   C1A 7711   4.903  14.598  11.034 -0.2502  0.0561  0.1766
  503PYPI   C2A 7712   5.105  14.514  10.603 -0.3596  0.0717 -0.2301
  503PYPI   D3A 7713   5.190  14.547  10.187  0.1195  0.1590 -0.0057
  503PYPI   C4A 7714   5.124  14.493   9.779  0.1275  0.1579  0.2498
  503PYPI   C1B 7715   4.625  15.282  10.873 -0.0710  0.1848  0.0021
  503PYPI   C2B 7716   4.617  15.320  10.444  0.0513  0.0555 -0.0300
  503PYPI   C3B 7717   5.045  15.137  10.335 -0.0800 -0.4128  0.0178
  503PYPI   C4B 7718   5.085  14.963   9.921 -0.2132 -0.1768 -0.4369
  504PYPI    C1 7719   8.318   8.379  11.396  0.0639  0.0210 -0.1759
  504PYPI    C2 7720   8.271   8.758  11.515  0.2706 -0.0064 -0.0012
  504PYPI    C3 7721   8.130   8.459  11.740 -0.0862 -0.0286 -0.2451
  504PYPI   PO4 7722   8.208   8.407  11.179 -0.1658 -0.2247  0.2826
  504PYPI   GL1 7723   8.227   8.719  10.888  0.4688 -0.1399 -0.0677
  504PYPI   GL2 7724   8.117   8.589  10.702 -0.1096 -0.3894  0.4091
  504PYPI   C1A 7725   8.499   8.853  10.471  0.0893  0.4006 -0.3182
  504PYPI   C2A 7726   8.461   8.886  10.072 -0.0460  0.0484 -0.0018
  504PYPI   D3A 7727   8.419   8.863   9.652  0.1393 -0.1259  0.0458
  504PYPI   C4A 7728   8.605   8.887   9.248  0.1485  0.0703 -0.4340
  504PYPI   C1B 7729   8.062   8.624  10.248 -0.2060 -0.0388 -0.1049
  504PYPI   C2B 7730   7.969   8.621   9.791 -0.0620 -0.3779 -0.0303
  504PYPI   C3B 7731   8.021   8.597   9.412 -0.0899 -0.3338 -0.0999
  504PYPI   C4B 7732   7.840   8.688   9.093  0.2169  0.0970 -0.0698
  505PYPI    C1 7733   9.086   9.134  11.276 -0.2324  0.1922  0.1388
  505PYPI    C2 7734   9.085   9.250  11.659 -0.1055  0.1966  0.1382
  505PYPI    C3 7735   9.431   9.169  11.475 -0.1601  0.2687  0.0017
  505PYPI   PO4 7736   8.946   9.196  11.182  0.0844  0.0196  0.0016
  505PYPI   GL1 7737   8.940   9.489  10.854  0.2719  0.4049  0.2897
  505PYPI   GL2 7738   8.993   9.787  10.814  0.0389 -0.1015 -0.3658
  505PYPI   C1A 7739   8.985   9.194  10.536  0.1125 -0.0341  0.4683
  505PYPI   C2A 7740   8.958   9.213  10.011  0.1913 -0.0200  0.0737
  505PYPI   D3A 7741   8.911   9.155   9.612 -0.0631 -0.0029  0.3159
  505PYPI   C4A 7742   8.915   9.324   9.304 -0.0146  0.0600  0.0715
  505PYPI   C1B 7743   8.813   9.777  10.425  0.0970 -0.1417  0.1932
  505PYPI   C2B 7744   8.861   9.689  10.051 -0.0440 -0.1859  0.1752
  505PYPI   C3B 7745   8.804   9.748   9.597 -0.3029 -0.2834 -0.0882
  505PYPI   C4B 7746   8.719   9.900   9.175  0.1813  0.2891 -0.5040
  506ERGO   ROH 7747   4.530  12.741  11.200 -0.0244  0.0741 -0.0396
  506ERGO    R1 7748   4.445  12.689  10.935  0.0130  0.0002 -0.0362
  506ERGO    R2 7749   4.364  12.890  10.763 -0.0547 -0.0609 -0.0674
  506ERGO    R3 7750   4.553  12.781  10.600 -0.0044 -0.0096 -0.0461
  506ERGO    R4 7751   4.352  12.894  10.418 -0.0653 -0.1356 -0.0693
  506ERGO    R5 7752   4.427  12.689  10.418  0.0304 -0.1063 -0.0268
  506ERGO    C1 7753   4.522  12.795  10.063 -0.0242 -0.1308 -0.0505
  506ERGO    C2 7754   4.456  12.849   9.604  0.1635  0.0682 -0.1206
  507ERGO   ROH 7755   3.262  10.889  11.406 -0.0994  0.0378  0.0398
  507ERGO    R1 7756   3.343  10.924  11.137 -0.0936 -0.0423  0.0311
  507ERGO    R2 7757   3.408  10.711  10.972 -0.1215 -0.0939  0.0856
  507ERGO    R3 7758   3.221  10.823  10.809 -0.1061 -0.1102  0.0569
  507ERGO    R4 7759   3.424  10.716  10.627  0.0289  0.0829  0.0933
  507ERGO    R5 7760   3.348  10.920  10.631 -0.0768  0.0421  0.1595
  507ERGO    C1 7761   3.258  10.823  10.273  0.1309  0.1706  0.0708
  507ERGO    C2 7762   3.186  10.871   9.895 -0.2645 -0.0979 -0.4180
  508ERGO   ROH 7763   6.009   7.125  10.985  0.0588  0.2180 -0.1047
  508ERGO    R1 7764   6.064   7.009  10.733 -0.0731  0.0336 -0.0490
  508ERGO    R2 7765   5.872   6.985  10.535 -0.0836  0.2201 -0.0521
  508ERGO    R3 7766   6.056   7.117  10.385  0.1208 -0.1029 -0.0994
  508ERGO    R4 7767   5.870   7.002  10.190 -0.2842  0.3985 -0.0453
  508ERGO    R5 7768   6.086   6.978  10.193 -0.3167 -0.0860 -0.1975
  508ERGO    C1 7769   6.041   7.137   9.849 -0.2092  0.1993 -0.0857
  508ERGO    C2 7770   5.905   7.184   9.560  0.2941  0.3596 -0.3473
  509ERGO   ROH 7771   5.111   7.920  10.991 -0.2177  0.0297  0.0206
  509ERGO    R1 7772   5.028   7.881  10.723 -0.1164 -0.0112 -0.0054
  509ERGO    R2 7773   4.866   8.060  10.590 -0.0834 -0.0408 -0.0885
  509ERGO    R3 7774   5.067   8.055  10.406 -0.0144 -0.0477 -0.0133
  509ERGO    R4 7775   4.820   8.068  10.248  0.0500  0.0389 -0.1052
  509ERGO    R5 7776   4.979   7.921  10.227  0.0245  0.0083 -0.0738
  509ERGO    C1 7777   4.980   8.068   9.875  0.1925  0.0788 -0.0445
  509ERGO    C2 7778   4.811   8.105   9.548 -0.0212 -0.0700  0.0998
  510ERGO   ROH 7779   0.821   2.879  10.981  0.2154 -0.0696 -0.0630
  510ERGO    R1 7780   0.991   2.765  10.786  0.1593 -0.0901 -0.0998
  510ERGO    R2 7781   0.933   2.527  10.659  0.0559 -0.0326 -0.1564
  510ERGO    R3 7782   0.968   2.676  10.434  0.1073  0.0079 -0.1223
  510ERGO    R4 7783   1.109   2.425  10.379  0.1453  0.0225 -0.1205
  510ERGO    R5 7784   1.191   2.627  10.364  0.1344  0.0352 -0.0642
  510ERGO    C1 7785   1.245   2.506  10.006  0.2456  0.0926 -0.0678
  510ERGO    C2 7786   1.356   2.397   9.674  0.0235  0.0505  0.1151
  511ERGO   ROH 7787  11.180   2.027  10.288  0.0062  0.1121 -0.0646
  511ERGO    R1 7788  11.159   1.899  10.036 -0.0935  0.1461 -0.0746
  511ERGO    R2 7789  11.073   2.031   9.808  0.0960  0.2568 -0.0864
  511ERGO    R3 7790  11.308   1.939   9.706  0.0140 -0.0050 -0.0447
  511ERGO    R4 7791  11.126   1.948   9.477  0.0282  0.0577 -0.0485
  511ERGO    R5 7792  11.242   1.777   9.543 -0.1305 -0.0189  0.0285
  511ERGO    C1 7793  11.376   1.814   9.188 -0.0883 -0.3040  0.0127
  511ERGO    C2 7794  11.275   1.842   8.865 -0.0917 -0.2447  0.0923
  512ERGO   ROH 7795   4.562   6.778  11.055 -0.0954  0.2024 -0.0393
  512ERGO    R1 7796   4.674   6.692  10.809 -0.0773  0.0553  0.0188
  512ERGO    R2 7797   4.539   6.525  10.634 -0.0790 -0.0229  0.0909
  512ERGO    R3 7798   4.591   6.724  10.457 -0.0328 -0.1230 -0.0082
  512ERGO    R4 7799   4.520   6.494  10.291 -0.0572 -0.1924  0.1044
  512ERGO    R5 7800   4.700   6.614  10.274 -0.0381 -0.2320  0.0556
  512ERGO    C1 7801   4.558   6.663   9.924 -0.0011 -0.3852  0.0192
  512ERGO    C2 7802   4.549   6.702   9.621  0.2896  0.2976  0.1982
  513ERGO   ROH 7803   4.083  14.311  11.474  0.1225 -0.0518  0.1575
  513ERGO    R1 7804   4.111  14.447  11.227 -0.0031  0.0086  0.1755
  513ERGO    R2 7805   4.343  14.437  11.077 -0.0186  0.1817  0.1353
  513ERGO    R3 7806   4.174  14.354  10.881  0.0004  0.1062  0.1505
  513ERGO    R4 7807   4.389  14.494  10.740  0.0200  0.0298  0.1142
  513ERGO    R5 7808   4.175  14.533  10.722  0.0271  0.0338  0.0721
  513ERGO    C1 7809   4.258  14.450  10.359  0.0603 -0.1295  0.1163
  513ERGO    C2 7810   4.296  14.356  10.058  0.0425 -0.0268 -0.1244
  514ERGO   ROH 7811  10.698  10.082  11.078  0.0117 -0.0175  0.0260
  514ERGO    R1 7812  10.796  10.084  10.813  0.0446 -0.1011  0.0370
  514ERGO    R2 7813  10.757   9.875  10.637  0.0164 -0.1330  0.0798
  514ERGO    R3 7814  10.654  10.069  10.478  0.0806 -0.1440  0.0242
  514ERGO    R4 7815  10.728   9.854  10.293 -0.0757 -0.2541  0.0936
  514ERGO    R5 7816  10.790  10.063  10.281  0.0295 -0.2923 -0.0057
  514ERGO    C1 7817  10.615  10.026   9.944 -0.0691 -0.3348  0.0494
  514ERGO    C2 7818  10.555  10.126   9.595 -0.0543  0.0901  0.0911
  515ERGO   ROH 7819  14.541   4.010   6.644 -0.0339  0.1109  0.0669
  515ERGO    R1 7820  14.627   3.946   6.906 -0.0382  0.1252  0.0721
  515ERGO    R2 7821  14.735   4.134   7.077  0.0548  0.1146  0.0279
  515ERGO    R3 7822  14.540   4.046   7.245  0.0310  0.2271  0.0598
  515ERGO    R4 7823  14.757   4.131   7.422  0.1163  0.0802  0.0236
  515ERGO    R5 7824  14.658   3.937   7.422 -0.0051  0.1427  0.0310
  515ERGO    C1 7825  14.587   4.046   7.780  0.1298  0.1657  0.0512
  515ERGO    C2 7826  14.543   4.135   8.064  0.0080 -0.2432  0.0833
  516ERGO   ROH 7827   7.037   0.642  10.924  0.1212  0.0532 -0.0403
  516ERGO    R1 7828   7.131   0.524  10.685 -0.0343 -0.0044 -0.0735
  516ERGO    R2 7829   6.969   0.374  10.519 -0.1841  0.1019 -0.0176
  516ERGO    R3 7830   7.055   0.550  10.330 -0.1362  0.0453 -0.0501
  516ERGO    R4 7831   6.900   0.351  10.181  0.1113 -0.1561 -0.0654
  516ERGO    R5 7832   7.105   0.413  10.140  0.1142 -0.0478  0.0715
  516ERGO    C1 7833   6.941   0.502   9.807  0.3282 -0.3595 -0.1237
  516ERGO    C2 7834   6.780   0.468   9.460 -0.0976  0.2263 -0.2108
  517ERGO   ROH 7835   6.420   4.128   6.691 -0.0078  0.1829  0.0723
  517ERGO    R1 7836   6.530   4.226   6.933 -0.0715  0.1212  0.1278
  517ERGO    R2 7837   6.373   4.313   7.143 -0.1294  0.1604  0.0752
  517ERGO    R3 7838   6.519   4.134   7.285 -0.2534  0.0901  0.1137
  517ERGO    R4 7839   6.430   4.330   7.483 -0.0650  0.2205  0.0608
  517ERGO    R5 7840   6.635   4.267   7.447 -0.1244  0.0455  0.0539
  517ERGO    C1 7841   6.600   4.172   7.815 -0.1439  0.1895  0.0887
  517ERGO    C2 7842   6.634   4.260   8.103  0.0892  0.2453  0.1299
  518ERGO   ROH 7843  15.798   0.179  11.093  0.1381 -0.2295  0.0262
  518ERGO    R1 7844  15.840   0.076  10.832  0.0588 -0.0612 -0.0546
  518ERGO    R2 7845  15.694   0.160  10.614  0.0267  0.1188  0.0340
  518ERGO    R3 7846  15.940   0.210  10.509  0.0137  0.1396  0.0130
  518ERGO    R4 7847  15.778   0.122  10.281  0.0123  0.0893  0.0337
  518ERGO    R5 7848  15.969   0.039  10.343  0.0274  0.1235  0.0323
  518ERGO    C1 7849  16.058   0.146   9.988 -0.0083  0.0917  0.0138
  518ERGO    C2 7850  16.012   0.252   9.661 -0.0973 -0.4836 -0.0142
  519ERGO   ROH 7851   0.232  12.930  11.356 -0.0382 -0.0264 -0.0696
  519ERGO    R1 7852   0.184  12.908  11.078 -0.1742  0.1123 -0.0569
  519ERGO    R2 7853   0.033  13.094  10.937 -0.0176  0.3265  0.0623
  519ERGO    R3 7854   0.255  13.106  10.781 -0.0649  0.1202 -0.0273
  519ERGO    R4 7855   0.032  13.136  10.594 -0.1259  0.0600  0.0261
  519ERGO    R5 7856   0.193  12.992  10.580 -0.1831 -0.0166  0.0810
  519ERGO    C1 7857   0.239  13.173  10.248 -0.2333 -0.2888 -0.0793
  519ERGO    C2 7858   0.258  13.131   9.934  0.3608 -0.1664 -0.2926
  520ERGO   ROH 7859   0.397  10.443  11.266  0.0282  0.0498 -0.0552
  520ERGO    R1 7860   0.494  10.375  11.008 -0.0730 -0.0066 -0.0785
  520ERGO    R2 7861   0.330  10.359  10.787 -0.1169  0.2048 -0.0599
  520ERGO    R3 7862   0.509  10.534  10.681  0.0548  0.0363 -0.0532
  520ERGO    R4 7863   0.421  10.371  10.454 -0.2989  0.2844 -0.1084
  520ERGO    R5 7864   0.627  10.406  10.516 -0.2091 -0.0254 -0.2029
  520ERGO    C1 7865   0.642  10.542  10.161 -0.2436  0.1725 -0.1304
  520ERGO    C2 7866   0.619  10.648   9.830  0.0939 -0.2164  0.1321
  521ERGO   ROH 7867   2.913   6.474  11.035 -0.1477 -0.1017  0.0378
  521ERGO    R1 7868   2.779   6.422  10.791 -0.0222 -0.1696 -0.0167
  521ERGO    R2 7869   2.773   6.604  10.583 -0.3318 -0.0181  0.1219
  521ERGO    R3 7870   2.870   6.394  10.440  0.0795  0.2633 -0.0316
  521ERGO    R4 7871   2.768   6.582  10.238 -0.6068  0.0833  0.1168
  521ERGO    R5 7872   2.716   6.371  10.257 -0.0487 -0.0739  0.1088
  521ERGO    C1 7873   2.856   6.373   9.903 -0.3808  0.4065 -0.0303
  521ERGO    C2 7874   2.802   6.633   9.585  0.0207  0.1111 -0.1952
  522ERGO   ROH 7875   8.960   2.219  10.656 -0.0730  0.1064 -0.0245
  522ERGO    R1 7876   8.776   2.196  10.442  0.0420  0.0189 -0.1159
  522ERGO    R2 7877   8.776   2.369  10.227  0.1197 -0.0329 -0.1577
  522ERGO    R3 7878   8.793   2.138  10.083  0.2398 -0.0636 -0.0947
  522ERGO    R4 7879   8.715   2.342   9.887  0.1041 -0.1583 -0.1451
  522ERGO    R5 7880   8.614   2.153   9.925  0.2154 -0.2086 -0.0831
  522ERGO    C1 7881   8.696   2.110   9.556  0.2077 -0.2601 -0.0786
  522ERGO    C2 7882   8.747   2.318   9.239 -0.0497 -0.1236 -0.0388
  523ERGO   ROH 7883  13.575  14.282  11.038 -0.0164 -0.1862 -0.0010
  523ERGO    R1 7884  13.725  14.263  10.799 -0.0273 -0.1167 -0.0137
  523ERGO    R2 7885  13.639  14.117  10.580 -0.0240 -0.0771 -0.0431
  523ERGO    R3 7886  13.677  14.352  10.449 -0.0561 -0.0428  0.0093
  523ERGO    R4 7887  13.646  14.152  10.237 -0.0253  0.0023 -0.0350
  523ERGO    R5 7888  13.811  14.293  10.259 -0.0466  0.0198 -0.0024
  523ERGO    C1 7889  13.685  14.393   9.913 -0.0562  0.0805  0.0189
  523ERGO    C2 7890  13.663  14.270   9.633 -0.2430  0.1438 -0.1190
  524ERGO   ROH 7891  11.347  15.089  10.720 -0.2968 -0.0744  0.0062
  524ERGO    R1 7892  11.355  14.908  10.502 -0.2988 -0.0573 -0.0085
  524ERGO    R2 7893  11.186  14.928  10.284 -0.2508  0.0053 -0.0424
  524ERGO    R3 7894  11.418  14.928  10.144 -0.2215 -0.0399  0.0063
  524ERGO    R4 7895  11.216  14.842   9.951 -0.1928 -0.0123 -0.0325
  524ERGO    R5 7896  11.401  14.738  10.000 -0.2218 -0.0412  0.0101
  524ERGO    C1 7897  11.452  14.792   9.625 -0.1317 -0.0650  0.0190
  524ERGO    C2 7898  11.378  14.855   9.308 -0.0818 -0.2085  0.1636
  525ERGO   ROH 7899   9.159  10.679  11.126 -0.0073 -0.1607  0.0157
  525ERGO    R1 7900   9.278  10.721  10.872 -0.0088 -0.0958  0.0264
  525ERGO    R2 7901   9.299  10.522  10.682  0.0470 -0.0614  0.0020
  525ERGO    R3 7902   9.173  10.703  10.524  0.0108 -0.0717  0.0179
  525ERGO    R4 7903   9.300  10.517  10.337 -0.0904 -0.1379  0.0013
  525ERGO    R5 7904   9.322  10.734  10.339 -0.0536 -0.1357 -0.0500
  525ERGO    C1 7905   9.183  10.685   9.987 -0.2043 -0.1922  0.0158
  525ERGO    C2 7906   9.046  10.620   9.639  0.1138 -0.3352  0.0473
  526ERGO   ROH 7907   2.167   4.248  11.222 -0.2095  0.0777  0.0835
  526ERGO    R1 7908   2.167   4.104  10.978 -0.4045  0.0152  0.1199
  526ERGO    R2 7909   1.956   4.116  10.798 -0.2976  0.4342  0.0196
  526ERGO    R3 7910   2.153   4.186  10.623 -0.0534 -0.0365  0.0887
  526ERGO    R4 7911   1.916   4.149  10.456 -0.1433  0.6426  0.0186
  526ERGO    R5 7912   2.110   4.054  10.429 -0.3711  0.1205  0.0402
  526ERGO    C1 7913   2.077   4.233  10.093  0.1759  0.3220  0.0828
  526ERGO    C2 7914   2.054   4.244   9.680 -0.1150  0.0568 -0.0272
  527ERGO   ROH 7915  10.508   8.143  10.609  0.1348 -0.0942  0.0116
  527ERGO    R1 7916  10.587   8.028  10.363  0.0609 -0.0506 -0.0334
  527ERGO    R2 7917  10.417   8.010  10.146 -0.0019 -0.0013  0.0082
  527ERGO    R3 7918  10.619   8.139  10.018 -0.0316  0.0155 -0.0203
  527ERGO    R4 7919  10.425   8.079   9.807 -0.0500 -0.0047  0.0069
  527ERGO    R5 7920  10.637   8.028   9.807 -0.0473  0.0162 -0.0202
  527ERGO    C1 7921  10.620   8.240   9.490 -0.1057  0.0093 -0.0208
  527ERGO    C2 7922  10.562   8.353   9.174 -0.0578 -0.1519  0.0013
  528ERGO   ROH 7923   2.538   1.432  11.568 -0.1231  0.0357  0.0328
  528ERGO    R1 7924   2.712   1.388  11.349 -0.1459 -0.2130  0.0638
  528ERGO    R2 7925   2.656   1.206  11.149 -0.4277 -0.0524  0.0036
  528ERGO    R3 7926   2.694   1.420  10.987  0.0050 -0.0728  0.0653
  528ERGO    R4 7927   2.715   1.187  10.809 -0.5806 -0.0928 -0.0229
  528ERGO    R5 7928   2.862   1.348  10.832 -0.1966 -0.4160 -0.0130
  528ERGO    C1 7929   2.786   1.378  10.459 -0.2635 -0.1354  0.0196
  528ERGO    C2 7930   2.838   1.345  10.158  0.1167 -0.2545 -0.0094
  529ERGO   ROH 7931  12.086   8.398  10.683  0.1768  0.3473 -0.0822
  529ERGO    R1 7932  12.084   8.263  10.434  0.1747  0.1593  0.0182
  529ERGO    R2 7933  11.939   8.353  10.217  0.0074 -0.1174  0.0112
  529ERGO    R3 7934  12.179   8.339  10.091 -0.0352 -0.0193 -0.0822
  529ERGO    R4 7935  11.983   8.361   9.874 -0.1239 -0.0106 -0.0039
  529ERGO    R5 7936  12.137   8.208   9.895 -0.0746  0.0232 -0.1029
  529ERGO    C1 7937  12.235   8.353   9.557 -0.2403  0.1436 -0.1003
  529ERGO    C2 7938  12.270   8.292   9.303  0.0799  0.1949 -0.1510
  530ERGO   ROH 7939  16.562  14.062  11.465  0.1117 -0.0187 -0.0911
  530ERGO    R1 7940  16.554  13.932  11.213  0.0765 -0.0145 -0.0924
  530ERGO    R2 7941  16.324  13.914  11.061  0.0480 -0.0391 -0.0465
  530ERGO    R3 7942  16.480  14.025  10.869 -0.0042 -0.0165 -0.0759
  530ERGO    R4 7943  16.263  13.895  10.722  0.1248 -0.2712 -0.0490
  530ERGO    R5 7944  16.477  13.867  10.690  0.1557 -0.1180  0.0080
  530ERGO    C1 7945  16.375  13.989  10.343  0.1204 -0.3851 -0.0781
  530ERGO    C2 7946  16.481  14.071  10.021 -0.2176 -0.2002  0.0922
  531ERGO   ROH 7947   2.128   2.697  11.286 -0.1969 -0.3361  0.0006
  531ERGO    R1 7948   2.178   2.586  11.031 -0.3128 -0.3555 -0.0126
  531ERGO    R2 7949   1.976   2.492  10.868 -0.4293  0.0403 -0.0948
  531ERGO    R3 7950   2.087   2.662  10.687 -0.0770 -0.1032 -0.0252
  531ERGO    R4 7951   1.999   2.432  10.528 -0.4758  0.0783 -0.1058
  531ERGO    R5 7952   2.199   2.519  10.531 -0.3024 -0.2809 -0.0394
  531ERGO    C1 7953   2.116   2.557  10.161 -0.1722 -0.0345 -0.0467
  531ERGO    C2 7954   2.251   2.517   9.752  0.2456 -0.2829  0.3119
  532ERGO   ROH 7955  12.887  11.196  11.049  0.0340  0.0276 -0.0729
  532ERGO    R1 7956  12.955  11.238  10.778 -0.1350  0.1000 -0.1052
  532ERGO    R2 7957  12.978  11.031  10.596  0.1217  0.1085 -0.0834
  532ERGO    R3 7958  12.800  11.178  10.454 -0.1693 -0.1882 -0.0389
  532ERGO    R4 7959  12.921  10.999  10.257  0.1618  0.0719 -0.0868
  532ERGO    R5 7960  12.908  11.216  10.244 -0.2450  0.0597 -0.0388
  532ERGO    C1 7961  12.720  11.119   9.926 -0.0881 -0.2280 -0.0472
  532ERGO    C2 7962  12.437  11.094   9.666  0.1057 -0.3578  0.2751
  533ERGO   ROH 7963  13.789   0.052  10.302  0.0897  0.4012 -0.0483
  533ERGO    R1 7964  13.935  -0.016  10.069 -0.0911  0.0850 -0.0770
  533ERGO    R2 7965  13.819  -0.030   9.819 -0.1847  0.2662 -0.0515
  533ERGO    R3 7966  14.018   0.143   9.753  0.1333 -0.1126 -0.1183
  533ERGO    R4 7967  13.886   0.081   9.499 -0.2541  0.3582 -0.0338
  533ERGO    R5 7968  14.099   0.063   9.542 -0.2444 -0.1365 -0.2552
  533ERGO    C1 7969  14.111   0.308   9.250  0.0040  0.0560 -0.0862
  533ERGO    C2 7970  14.294   0.639   8.985  0.1802 -0.1829  0.1778
  534ERGO   ROH 7971  10.097   2.247  10.198 -0.2738  0.0315  0.1260
  534ERGO    R1 7972  10.001   2.271   9.933 -0.0844  0.1811  0.0687
  534ERGO    R2 7973  10.127   2.427   9.743  0.1906  0.0994  0.1759
  534ERGO    R3 7974  10.124   2.196   9.599  0.0546  0.1283  0.1322
  534ERGO    R4 7975  10.184   2.406   9.402  0.0809  0.1338  0.1555
  534ERGO    R5 7976  10.024   2.258   9.390  0.0198  0.2036  0.1743
  534ERGO    C1 7977  10.213   2.177   9.069 -0.1107  0.1808  0.1028
  534ERGO    C2 7978  10.185   2.210   8.758 -0.3776 -0.3444  0.2646
  535ERGO   ROH 7979  15.403  10.998  10.787  0.0218 -0.0251 -0.0308
  535ERGO    R1 7980  15.384  10.876  10.533  0.1363  0.0368 -0.0700
  535ERGO    R2 7981  15.176  10.929  10.358  0.0744 -0.1179 -0.0431
  535ERGO    R3 7982  15.378  10.987  10.186  0.0097  0.1452 -0.0344
  535ERGO    R4 7983  15.133  11.032  10.031 -0.0471  0.0538  0.0254
  535ERGO    R5 7984  15.302  10.906   9.974  0.0452  0.2167 -0.0757
  535ERGO    C1 7985  15.299  11.147   9.679 -0.1785  0.4007  0.0735
  535ERGO    C2 7986  15.389  11.165   9.367  0.0166 -0.1200  0.1506
  536ERGO   ROH 7987  16.228   7.669  10.905 -0.2096  0.0495  0.0471
  536ERGO    R1 7988  16.348   7.681  10.649 -0.0922  0.3458  0.1110
  536ERGO    R2 7989  16.296   7.494  10.452  0.5141  0.1757  0.0922
  536ERGO    R3 7990  16.232   7.713  10.305 -0.0001  0.0067  0.0451
  536ERGO    R4 7991  16.291   7.506  10.106  0.5523  0.1110  0.0893
  536ERGO    R5 7992  16.380   7.705  10.117  0.0661  0.3414  0.0781
  536ERGO    C1 7993  16.227   7.720   9.768  0.0919 -0.0853  0.0434
  536ERGO    C2 7994  16.350   7.728   9.474 -0.2886  0.1240 -0.1797
  537ERGO   ROH 7995  10.006   9.449  10.877  0.0474  0.1255 -0.0558
  537ERGO    R1 7996   9.998   9.376  10.604  0.1475  0.1985 -0.0788
  537ERGO    R2 7997   9.777   9.258  10.487  0.2692  0.0228 -0.1381
  537ERGO    R3 7998   9.800   9.464  10.311  0.0952  0.0990 -0.0737
  537ERGO    R4 7999   9.775   9.225  10.143  0.1226  0.1511 -0.1506
  537ERGO    R5 8000   9.933   9.375  10.133  0.0512  0.2245 -0.1699
  537ERGO    C1 8001   9.795   9.398   9.778 -0.1260  0.2972 -0.0974
  537ERGO    C2 8002   9.741   9.494   9.403  0.1535  0.2481 -0.2382
  538ERGO   ROH 8003   8.125   0.002  11.084  0.0185  0.0329 -0.0274
  538ERGO    R1 8004   8.068  -0.099  10.826 -0.0865  0.0220  0.0001
  538ERGO    R2 8005   7.842  -0.027  10.684  0.0222  0.2731 -0.0436
  538ERGO    R3 8006   8.023   0.039  10.492  0.1296 -0.0260 -0.0521
  538ERGO    R4 8007   7.786  -0.054  10.344 -0.0695  0.4059 -0.0404
  538ERGO    R5 8008   7.991  -0.128  10.322 -0.1895  0.0378 -0.0671
  538ERGO    C1 8009   7.923  -0.009   9.965 -0.0221  0.2024 -0.0465
  538ERGO    C2 8010   7.787  -0.130   9.611 -0.3002  0.2765  0.2597
  539ERGO   ROH 8011   7.448   4.898  10.798 -0.0236 -0.2157  0.0935
  539ERGO    R1 8012   7.553   4.815  10.548  0.1668  0.0663  0.0755
  539ERGO    R2 8013   7.401   4.680  10.361  0.4584 -0.2245  0.0430
  539ERGO    R3 8014   7.483   4.881  10.198  0.0289 -0.0007  0.0891
  539ERGO    R4 8015   7.369   4.682  10.017  0.2474 -0.1080  0.0615
  539ERGO    R5 8016   7.567   4.770  10.003  0.0998  0.2306 -0.0174
  539ERGO    C1 8017   7.426   4.872   9.663 -0.2786  0.1700  0.1157
  539ERGO    C2 8018   7.418   4.955   9.281 -0.0087 -0.1111  0.2341
  540ERGO   ROH 8019  11.704  10.760  10.822  0.0797 -0.2246 -0.0012
  540ERGO    R1 8020  11.729  10.632  10.571  0.0639 -0.1338 -0.0490
  540ERGO    R2 8021  11.521  10.617  10.390  0.0574 -0.0593 -0.0431
  540ERGO    R3 8022  11.704  10.728  10.221  0.0531 -0.0065 -0.0148
  540ERGO    R4 8023  11.467  10.680  10.055  0.0346  0.0636 -0.0174
  540ERGO    R5 8024  11.670  10.612  10.014  0.0318  0.0671 -0.0555
  540ERGO    C1 8025  11.606  10.820   9.701  0.0171  0.1849  0.0242
  540ERGO    C2 8026  11.643  10.814   9.348 -0.0628 -0.1721  0.3366
  541ERGO   ROH 8027   5.057   8.429  10.721  0.1164 -0.0445 -0.0423
  541ERGO    R1 8028   4.892   8.479  10.497  0.0298 -0.0192  0.0247
  541ERGO    R2 8029   4.940   8.686  10.320 -0.0639  0.0326  0.0504
  541ERGO    R3 8030   4.933   8.487  10.135 -0.0927  0.0697  0.0137
  541ERGO    R4 8031   4.860   8.730   9.987  0.0546  0.1186  0.0336
  541ERGO    R5 8032   4.746   8.544   9.995 -0.0238  0.1684 -0.0332
  541ERGO    C1 8033   4.806   8.569   9.619  0.0967  0.2034 -0.0107
  541ERGO    C2 8034   4.764   8.525   9.178 -0.0254  0.2551  0.0361
  542ERGO   ROH 8035   1.883   6.677  11.281  0.4575 -0.1719  0.1578
  542ERGO    R1 8036   1.808   6.791  11.034  0.1883 -0.1518  0.2449
  542ERGO    R2 8037   1.990   6.912  10.865 -0.0362  0.1162  0.1826
  542ERGO    R3 8038   1.888   6.738  10.683  0.0461  0.0736  0.1774
  542ERGO    R4 8039   2.010   6.951  10.522  0.1082  0.0315  0.1808
  542ERGO    R5 8040   1.805   6.878  10.507  0.1196  0.0263  0.1085
  542ERGO    C1 8041   1.926   6.810  10.151  0.2694 -0.0579  0.1748
  542ERGO    C2 8042   1.840   6.873   9.774  0.0225  0.0869 -0.4293
  543ERGO   ROH 8043   3.640   9.307  11.324 -0.3456  0.2176 -0.0932
  543ERGO    R1 8044   3.651   9.178  11.072 -0.1849  0.1998 -0.0783
  543ERGO    R2 8045   3.431   9.152  10.908 -0.0947  0.1370 -0.1931
  543ERGO    R3 8046   3.594   9.270  10.725 -0.0244  0.1598 -0.1160
  543ERGO    R4 8047   3.357   9.187  10.572  0.0567  0.1324 -0.2270
  543ERGO    R5 8048   3.565   9.138  10.527  0.0839  0.1593 -0.1316
  543ERGO    C1 8049   3.468   9.318  10.205  0.2108  0.1510 -0.1742
  543ERGO    C2 8050   3.446   9.378   9.912  0.1117  0.2310 -0.1082
  544ERGO   ROH 8051  14.273  11.310  10.917  0.2679  0.0602 -0.1498
  544ERGO    R1 8052  14.367  11.318  10.650  0.2223  0.0501 -0.1657
  544ERGO    R2 8053  14.359  11.099  10.482  0.0475  0.0892 -0.2043
  544ERGO    R3 8054  14.226  11.270  10.319  0.1286  0.2058 -0.1511
  544ERGO    R4 8055  14.293  11.042  10.148 -0.0832  0.1593 -0.1911
  544ERGO    R5 8056  14.337  11.251  10.108  0.0634  0.1364 -0.1845
  544ERGO    C1 8057  14.128  11.169   9.800 -0.0831  0.3095 -0.1334
  544ERGO    C2 8058  13.873  10.947   9.686 -0.1047  0.0446  0.1125
  545ERGO   ROH 8059   4.459   1.250   7.141 -0.1083 -0.4104  0.0853
  545ERGO    R1 8060   4.327   1.306   7.385 -0.0572 -0.0930  0.0443
  545ERGO    R2 8061   4.414   1.206   7.627 -0.2427 -0.1194  0.1036
  545ERGO    R3 8062   4.412   1.468   7.700  0.1542 -0.0758 -0.0202
  545ERGO    R4 8063   4.389   1.321   7.953 -0.3336  0.0747  0.0295
  545ERGO    R5 8064   4.256   1.478   7.882  0.0046  0.2830 -0.1616
  545ERGO    C1 8065   4.372   1.633   8.210 -0.0139  0.2286 -0.1299
  545ERGO    C2 8066   4.466   1.701   8.475 -0.2556 -0.2247  0.0991
  546ERGO   ROH 8067   3.634   2.423  11.430 -0.3941 -0.2505 -0.1120
  546ERGO    R1 8068   3.495   2.478  11.189 -0.1110  0.1755 -0.1907
  546ERGO    R2 8069   3.600   2.637  10.989  0.4756 -0.1024 -0.1276
  546ERGO    R3 8070   3.549   2.420  10.834 -0.0711  0.0392 -0.1628
  546ERGO    R4 8071   3.623   2.632  10.645  0.4499 -0.1012 -0.1286
  546ERGO    R5 8072   3.442   2.511  10.639  0.1396  0.3422 -0.1434
  546ERGO    C1 8073   3.588   2.425  10.298 -0.0783  0.0324 -0.1622
  546ERGO    C2 8074   3.542   2.412   9.987 -0.4947 -0.2381 -0.0641
  547ERGO   ROH 8075   4.364   4.211  11.205  0.1459 -0.3438  0.1139
  547ERGO    R1 8076   4.483   4.214  10.949  0.0126 -0.1009  0.0542
  547ERGO    R2 8077   4.469   4.000  10.775  0.1596 -0.0348 -0.0218
  547ERGO    R3 8078   4.370   4.186  10.604 -0.1264 -0.0722  0.0928
  547ERGO    R4 8079   4.444   3.960  10.433  0.1419  0.0773 -0.0356
  547ERGO    R5 8080   4.508   4.167  10.409 -0.1278  0.1909  0.0487
  547ERGO    C1 8081   4.336   4.111  10.073 -0.1369  0.1075  0.0640
  547ERGO    C2 8082   4.387   4.148   9.757  0.0428  0.1879 -0.0284
  548ERGO   ROH 8083   9.587   3.592  10.643 -0.0392  0.0984  0.1219
  548ERGO    R1 8084   9.542   3.513  10.375  0.1625  0.0494  0.1000
  548ERGO    R2 8085   9.318   3.590  10.232  0.1065 -0.2415  0.0211
  548ERGO    R3 8086   9.502   3.679  10.054  0.0568  0.0141  0.0952
  548ERGO    R4 8087   9.247   3.696   9.911  0.0790 -0.2650  0.0202
  548ERGO    R5 8088   9.427   3.595   9.843  0.2235 -0.0367  0.0564
  548ERGO    C1 8089   9.379   3.842   9.556  0.0161 -0.0388  0.0892
  548ERGO    C2 8090   9.360   4.043   9.250 -0.2897  0.0324  0.0211
  549ERGO   ROH 8091  16.327   4.109  11.157 -0.0148 -0.1253  0.0721
  549ERGO    R1 8092  16.335   4.185  10.884 -0.0269 -0.0909  0.0806
  549ERGO    R2 8093  16.555   4.310  10.771  0.0120 -0.1723  0.0592
  549ERGO    R3 8094  16.539   4.105  10.594 -0.1110 -0.1424  0.0358
  549ERGO    R4 8095  16.621   4.335  10.433 -0.0241 -0.1614  0.0537
  549ERGO    R5 8096  16.452   4.204  10.395 -0.0916 -0.0757  0.0612
  549ERGO    C1 8097  16.646   4.156  10.070 -0.1607 -0.1269  0.0287
  549ERGO    C2 8098  16.757   4.313   9.846 -0.1089 -0.0307 -0.2584
  550ERGO   ROH 8099   0.425   7.551  11.221  0.1270  0.2342 -0.0150
  550ERGO    R1 8100   0.390   7.444  10.961 -0.0064  0.1792  0.0267
  550ERGO    R2 8101   0.196   7.536  10.788  0.0230  0.2599  0.0488
  550ERGO    R3 8102   0.407   7.568  10.619  0.0032  0.0583 -0.0196
  550ERGO    R4 8103   0.173   7.553  10.443 -0.1244  0.5660  0.0695
  550ERGO    R5 8104   0.353   7.431  10.430 -0.3111  0.2812 -0.1072
  550ERGO    C1 8105   0.357   7.593  10.085 -0.2288  0.5549  0.0174
  550ERGO    C2 8106   0.436   7.662   9.647 -0.0326 -0.0068  0.0755
  551ERGO   ROH 8107  15.141  15.397   7.193  0.0265 -0.0910 -0.1222
  551ERGO    R1 8108  15.021  15.291   7.427 -0.0870 -0.0043 -0.1406
  551ERGO    R2 8109  15.164  15.150   7.616 -0.2124 -0.0766 -0.1024
  551ERGO    R3 8110  15.059  15.335   7.786 -0.1391 -0.0046 -0.1341
  551ERGO    R4 8111  15.174  15.130   7.961 -0.2441 -0.0430 -0.0993
  551ERGO    R5 8112  14.970  15.205   7.967 -0.2131  0.0549 -0.1240
  551ERGO    C1 8113  15.081  15.291   8.321 -0.1937  0.0441 -0.1271
  551ERGO    C2 8114  15.134  15.308   8.560 -0.0531  0.6058  0.1417
  552ERGO   ROH 8115  10.304  13.085  10.875 -0.0357 -0.0531 -0.0232
  552ERGO    R1 8116  10.176  13.075  10.622 -0.0367 -0.1681 -0.0168
  552ERGO    R2 8117  10.174  13.289  10.448 -0.2329 -0.1754 -0.0125
  552ERGO    R3 8118  10.276  13.107  10.274 -0.0828 -0.0834 -0.0251
  552ERGO    R4 8119  10.178  13.324  10.104 -0.3639 -0.1799 -0.0162
  552ERGO    R5 8120  10.127  13.113  10.087 -0.1491 -0.2459  0.0115
  552ERGO    C1 8121  10.276  13.174   9.741 -0.2993 -0.0961 -0.0301
  552ERGO    C2 8122  10.185  13.206   9.426 -0.0422  0.1769 -0.0198
  553ERGO   ROH 8123   2.045   4.713  11.210 -0.0729  0.0700 -0.0341
  553ERGO    R1 8124   2.128   4.626  10.954 -0.1077 -0.0006 -0.0215
  553ERGO    R2 8125   1.949   4.553  10.756 -0.1414  0.1419 -0.0456
  553ERGO    R3 8126   2.085   4.737  10.610  0.0294  0.0318 -0.0288
  553ERGO    R4 8127   1.945   4.574  10.411 -0.1394  0.1923 -0.0425
  553ERGO    R5 8128   2.158   4.617  10.416 -0.0958 -0.0136 -0.0483
  553ERGO    C1 8129   2.069   4.759  10.073  0.0222  0.1183 -0.0251
  553ERGO    C2 8130   2.135   4.852   9.680  0.1835 -0.2092 -0.1892
  554ERGO   ROH 8131   5.734  12.141  11.282 -0.2596 -0.0219  0.1123
  554ERGO    R1 8132   5.846  12.256  11.049 -0.1149  0.0085  0.1957
  554ERGO    R2 8133   5.977  12.106  10.857 -0.0407  0.0259  0.2314
  554ERGO    R3 8134   5.799  12.224  10.689  0.0683  0.0950  0.1632
  554ERGO    R4 8135   5.973  12.068  10.513 -0.0309 -0.1078  0.2458
  554ERGO    R5 8136   5.927  12.280  10.495  0.1327 -0.0801  0.1550
  554ERGO    C1 8137   5.803  12.156  10.156  0.0772 -0.1208  0.1900
  554ERGO    C2 8138   5.832  12.172   9.904 -0.3502 -0.1452 -0.0917
  555ERGO   ROH 8139   2.813  10.091   7.432  0.1194 -0.0277 -0.1059
  555ERGO    R1 8140   2.888  10.187   7.687  0.2337 -0.0482 -0.1306
  555ERGO    R2 8141   2.726  10.162   7.909  0.1792  0.2412 -0.1298
  555ERGO    R3 8142   2.946  10.045   8.017  0.0164 -0.0285 -0.0835
  555ERGO    R4 8143   2.764  10.085   8.244  0.0591  0.2820 -0.1066
  555ERGO    R5 8144   2.971  10.151   8.230  0.1504 -0.0032 -0.1142
  555ERGO    C1 8145   2.993   9.929   8.540 -0.1636  0.0527 -0.0496
  555ERGO    C2 8146   3.254   9.775   8.786 -0.1519 -0.0407 -0.2046
  556ERGO   ROH 8147   2.972  13.717  11.611  0.2469  0.2757 -0.0049
  556ERGO    R1 8148   2.875  13.731  11.345  0.2099  0.0727 -0.0037
  556ERGO    R2 8149   2.797  13.969  11.227  0.0350 -0.0395 -0.1192
  556ERGO    R3 8150   2.975  13.894  11.035  0.0675 -0.0168 -0.0981
  556ERGO    R4 8151   2.749  14.006  10.887  0.0126 -0.1662 -0.1301
  556ERGO    R5 8152   2.839  13.810  10.858  0.1031 -0.1347 -0.0708
  556ERGO    C1 8153   2.888  13.956  10.509  0.0302 -0.2187 -0.1168
  556ERGO    C2 8154   2.881  13.893  10.216 -0.1135 -0.1018 -0.1404
  557ERGO   ROH 8155   7.585  14.282  10.820  0.2492 -0.0777 -0.1591
  557ERGO    R1 8156   7.475  14.179  10.580  0.1751  0.0847 -0.1947
  557ERGO    R2 8157   7.205  14.190  10.523  0.1435  0.0039 -0.0405
  557ERGO    R3 8158   7.290  14.312  10.295 -0.0406  0.2498  0.0161
  557ERGO    R4 8159   7.020  14.216  10.232  0.1158 -0.1998 -0.0433
  557ERGO    R5 8160   7.202  14.176  10.119  0.2068  0.1596 -0.0472
  557ERGO    C1 8161   6.992  14.345   9.849 -0.0733 -0.0876  0.0084
  557ERGO    C2 8162   6.925  14.409   9.564  0.1122  0.3403 -0.0422
  558ERGO   ROH 8163   8.771   4.473  10.814  0.1639 -0.3195 -0.0419
  558ERGO    R1 8164   8.733   4.335  10.570 -0.0922 -0.2061 -0.0699
  558ERGO    R2 8165   8.486   4.311  10.449 -0.1614  0.1827 -0.0235
  558ERGO    R3 8166   8.615   4.418  10.235 -0.0513  0.0522 -0.0222
  558ERGO    R4 8167   8.370   4.301  10.124 -0.0026  0.0007 -0.0752
  558ERGO    R5 8168   8.574   4.262  10.058  0.0278 -0.0480  0.0475
  558ERGO    C1 8169   8.424   4.395   9.734  0.1932 -0.2277 -0.1040
  558ERGO    C2 8170   8.252   4.447   9.426 -0.1558  0.2571 -0.0858
  559ERGO   ROH 8171   0.746   1.687  11.308 -0.0866  0.0915  0.0219
  559ERGO    R1 8172   0.652   1.510  11.108  0.0094  0.1022 -0.0332
  559ERGO    R2 8173   0.443   1.573  10.939 -0.0255  0.0410 -0.0121
  559ERGO    R3 8174   0.623   1.512  10.745  0.0074  0.1990 -0.0329
  559ERGO    R4 8175   0.362   1.500  10.611 -0.0047 -0.0535  0.0037
  559ERGO    R5 8176   0.514   1.343  10.614  0.1452  0.0872 -0.0078
  559ERGO    C1 8177   0.485   1.399  10.238  0.0383  0.0399 -0.0068
  559ERGO    C2 8178   0.511   1.327   9.933 -0.0898  0.0269  0.1041
  560ERGO   ROH 8179  11.744  13.118  11.002 -0.0401 -0.1286  0.1303
  560ERGO    R1 8180  11.590  13.086  10.767  0.0003  0.1440  0.0638
  560ERGO    R2 8181  11.563  13.287  10.579  0.4469  0.1960  0.0408
  560ERGO    R3 8182  11.651  13.095  10.408  0.1764  0.0238  0.0902
  560ERGO    R4 8183  11.591  13.325  10.237  0.5147  0.0699  0.0323
  560ERGO    R5 8184  11.515  13.123  10.213  0.2217  0.1717  0.0801
  560ERGO    C1 8185  11.690  13.167   9.877  0.3002 -0.1651  0.0737
  560ERGO    C2 8186  11.661  13.244   9.479 -0.0810  0.1924  0.4724
  561ERGO   ROH 8187   1.287   0.764  11.169 -0.1146 -0.0455 -0.0336
  561ERGO    R1 8188   1.417   0.891  10.952 -0.0058 -0.1183 -0.0105
  561ERGO    R2 8189   1.530   0.749  10.743 -0.1345 -0.1779 -0.0365
  561ERGO    R3 8190   1.371   0.910  10.592  0.0063 -0.0073 -0.0072
  561ERGO    R4 8191   1.570   0.805  10.404 -0.1329 -0.2202 -0.0441
  561ERGO    R5 8192   1.522   1.014  10.438  0.0938 -0.1646 -0.0333
  561ERGO    C1 8193   1.445   0.988  10.065  0.0002 -0.0847 -0.0210
  561ERGO    C2 8194   1.383   0.909   9.789 -0.0857  0.0088 -0.0278
  562ERGO   ROH 8195   9.198  13.609  10.833  0.0384  0.0929 -0.0700
  562ERGO    R1 8196   9.253  13.470  10.593  0.2448  0.1100 -0.0346
  562ERGO    R2 8197   9.059  13.419  10.402  0.3007 -0.2746  0.0019
  562ERGO    R3 8198   9.237  13.541  10.236  0.0803 -0.0211 -0.0548
  562ERGO    R4 8199   9.046  13.410  10.057  0.2014 -0.2888  0.0060
  562ERGO    R5 8200   9.263  13.388  10.054  0.2357  0.0143 -0.0641
  562ERGO    C1 8201   9.205  13.519   9.700 -0.0634 -0.0591 -0.0450
  562ERGO    C2 8202   9.113  13.509   9.414  0.0311 -0.4123  0.2592
  563ERGO   ROH 8203  12.615  12.644  10.825 -0.0175  0.0375 -0.1270
  563ERGO    R1 8204  12.586  12.784  10.581  0.1765  0.0602 -0.1385
  563ERGO    R2 8205  12.801  12.884  10.440  0.3163 -0.2245 -0.1321
  563ERGO    R3 8206  12.694  12.739  10.236  0.1424 -0.1026 -0.1289
  563ERGO    R4 8207  12.780  12.990  10.112 -0.1433  0.0551 -0.0205
  563ERGO    R5 8208  12.581  12.901  10.101 -0.1126 -0.0394  0.1482
  563ERGO    C1 8209  12.666  12.916   9.730 -0.5740  0.3322  0.0473
  563ERGO    C2 8210  12.590  12.911   9.408  0.1572  0.1377  0.1326
  564ERGO   ROH 8211  12.073   1.028  10.236 -0.0562 -0.0278  0.0697
  564ERGO    R1 8212  11.941   0.970   9.993 -0.0669  0.1828  0.0219
  564ERGO    R2 8213  11.944   1.142   9.776  0.2948  0.1789  0.0126
  564ERGO    R3 8214  12.036   0.922   9.645 -0.0121  0.0188  0.0599
  564ERGO    R4 8215  11.944   1.102   9.433  0.1402  0.0482  0.0276
  564ERGO    R5 8216  11.884   0.895   9.461 -0.1010  0.1321  0.1196
  564ERGO    C1 8217  12.030   0.872   9.110 -0.2382 -0.1781  0.0807
  564ERGO    C2 8218  12.078   0.695   8.789  0.1151  0.2088  0.3649
  565ERGO   ROH 8219  16.282   5.134  11.156 -0.2027  0.1985  0.1095
  565ERGO    R1 8220  16.131   5.231  10.937 -0.1033  0.2230  0.0538
  565ERGO    R2 8221  16.065   5.497  10.908 -0.0088  0.2334  0.0081
  565ERGO    R3 8222  16.183   5.467  10.664  0.0511  0.1795  0.0413
  565ERGO    R4 8223  15.968   5.661  10.619  0.0940  0.2279 -0.0318
  565ERGO    R5 8224  16.001   5.476  10.509  0.0845  0.2012 -0.0060
  565ERGO    C1 8225  16.022   5.728  10.223  0.2102  0.1741 -0.0240
  565ERGO    C2 8226  16.027   5.821   9.847 -0.1745  0.4681  0.1280
  566ERGO   ROH 8227   9.539  14.583  10.746 -0.1799 -0.2465 -0.0002
  566ERGO    R1 8228   9.570  14.625  10.468 -0.0937 -0.1991  0.0172
  566ERGO    R2 8229   9.472  14.448  10.279 -0.2392 -0.0477 -0.0438
  566ERGO    R3 8230   9.350  14.671  10.181 -0.0022  0.1019 -0.0103
  566ERGO    R4 8231   9.394  14.501   9.947 -0.2543  0.0429 -0.0273
  566ERGO    R5 8232   9.456  14.708   9.970 -0.0012 -0.0226 -0.0372
  566ERGO    C1 8233   9.235  14.740   9.661 -0.0409  0.2360  0.0139
  566ERGO    C2 8234   9.159  14.823   9.344  0.0919  0.0609 -0.2025
  567ERGO   ROH 8235   5.763   3.999  10.954  0.0601 -0.0654  0.0030
  567ERGO    R1 8236   5.747   3.940  10.678  0.2043  0.0037 -0.0227
  567ERGO    R2 8237   5.519   3.988  10.529  0.1815 -0.2125 -0.0714
  567ERGO    R3 8238   5.691   4.126  10.371  0.0689  0.0435  0.0271
  567ERGO    R4 8239   5.518   3.983  10.183  0.2960 -0.0894 -0.0732
  567ERGO    R5 8240   5.735   3.979  10.187  0.2970  0.1628 -0.0119
  567ERGO    C1 8241   5.678   4.111   9.834  0.2570  0.2225  0.0183
  567ERGO    C2 8242   5.653   4.157   9.471  0.1208 -0.2091 -0.0342
  568ERGO   ROH 8243  15.435  13.411  10.988 -0.0562 -0.1192  0.0605
  568ERGO    R1 8244  15.536  13.347  10.731 -0.2563 -0.2784  0.0186
  568ERGO    R2 8245  15.372  13.266  10.522 -0.5177  0.2376  0.0018
  568ERGO    R3 8246  15.491  13.472  10.392  0.0164 -0.0039  0.0801
  568ERGO    R4 8247  15.405  13.291  10.180 -0.3877  0.2602  0.0157
  568ERGO    R5 8248  15.605  13.370  10.209 -0.1929 -0.2327  0.0753
  568ERGO    C1 8249  15.536  13.500   9.857  0.1895  0.0466  0.0972
  568ERGO    C2 8250  15.533  13.479   9.523 -0.1415  0.0930  0.1577
  569ERGO   ROH 8251   7.944   1.093  10.734 -0.1291  0.0953 -0.1327
  569ERGO    R1 8252   7.918   1.189  10.469 -0.1350  0.0075 -0.1642
  569ERGO    R2 8253   8.064   1.086  10.258  0.0124  0.0778 -0.0951
  569ERGO    R3 8254   7.818   1.053  10.147  0.0717 -0.1571 -0.1620
  569ERGO    R4 8255   7.999   1.086   9.919  0.0869  0.2211 -0.1101
  569ERGO    R5 8256   7.818   1.200   9.958 -0.0698 -0.0271 -0.0665
  569ERGO    C1 8257   7.731   1.054   9.617  0.1859  0.0841 -0.1817
  569ERGO    C2 8258   7.680   1.084   9.306 -0.1124 -0.1803  0.0142
  570ERGO   ROH 8259   5.592   2.802  11.164 -0.0271 -0.0458 -0.0753
  570ERGO    R1 8260   5.525   2.618  10.960  0.1651 -0.0601 -0.1241
  570ERGO    R2 8261   5.293   2.637  10.812  0.0983 -0.3209 -0.0403
  570ERGO    R3 8262   5.465   2.632  10.601  0.0395 -0.0112 -0.1049
  570ERGO    R4 8263   5.202   2.685  10.482 -0.1307 -0.4573 -0.0004
  570ERGO    R5 8264   5.340   2.526  10.426  0.1392 -0.2289 -0.0611
  570ERGO    C1 8265   5.310   2.708  10.092 -0.3191 -0.2461 -0.0377
  570ERGO    C2 8266   5.306   2.723   9.788  0.0880 -0.0942  0.0467
  571ERGO   ROH 8267   9.668   5.908  10.747 -0.0760 -0.3627  0.0797
  571ERGO    R1 8268   9.799   5.883  10.497  0.0118 -0.2532  0.1127
  571ERGO    R2 8269   9.716   5.705  10.303  0.1142 -0.2134  0.0241
  571ERGO    R3 8270   9.711   5.928  10.147  0.1128 -0.1615  0.0996
  571ERGO    R4 8271   9.732   5.704   9.958  0.2623 -0.0832  0.0304
  571ERGO    R5 8272   9.863   5.878   9.968  0.2020 -0.0487  0.1471
  571ERGO    C1 8273   9.736   5.912   9.610  0.3471  0.0413  0.1049
  571ERGO    C2 8274   9.577   5.867   9.240  0.1107  0.1824 -0.0476
  572ERGO   ROH 8275  12.978  10.076  10.896  0.0261  0.0895 -0.0674
  572ERGO    R1 8276  13.065  10.215  10.665 -0.0087  0.0996 -0.0741
  572ERGO    R2 8277  13.221  10.098  10.470  0.0806  0.1503 -0.0306
  572ERGO    R3 8278  13.023  10.184  10.305  0.0641  0.0262 -0.0770
  572ERGO    R4 8279  13.264  10.187  10.139  0.1194  0.2371 -0.0027
  572ERGO    R5 8280  13.126  10.353  10.171 -0.0195  0.1294 -0.0166
  572ERGO    C1 8281  13.103  10.319   9.791  0.1263  0.1713 -0.0302
  572ERGO    C2 8282  13.030  10.361   9.535  0.1209 -0.3807  0.2987
  573ERGO   ROH 8283  10.887   9.001  10.763  0.0258  0.1332  0.0778
  573ERGO    R1 8284  10.944   8.899  10.505 -0.3764 -0.0414  0.0487
  573ERGO    R2 8285  10.773   8.932  10.290 -0.3584  0.5271  0.1020
  573ERGO    R3 8286  10.994   9.037  10.172 -0.0384 -0.1602  0.0481
  573ERGO    R4 8287  10.808   8.986   9.951 -0.3217  0.5387  0.1083
  573ERGO    R5 8288  11.014   8.915   9.966 -0.5308 -0.1626 -0.0060
  573ERGO    C1 8289  11.036   9.115   9.642 -0.0000 -0.0997  0.0614
  573ERGO    C2 8290  11.112   9.163   9.299  0.0800 -0.2568  0.1588
  574ERGO   ROH 8291   8.421   5.915  11.055 -0.0001 -0.1295  0.0045
  574ERGO    R1 8292   8.498   5.959  10.786  0.0487 -0.0494  0.0283
  574ERGO    R2 8293   8.512   5.754  10.600 -0.0031  0.0090 -0.0630
  574ERGO    R3 8294   8.346   5.917  10.458  0.0651  0.1320  0.0017
  574ERGO    R4 8295   8.472   5.747  10.257 -0.2626 -0.0287 -0.0325
  574ERGO    R5 8296   8.466   5.964  10.257 -0.0439 -0.0389 -0.0900
  574ERGO    C1 8297   8.294   5.895   9.924 -0.3497  0.0647  0.0461
  574ERGO    C2 8298   8.282   6.000   9.527 -0.0214 -0.3902 -0.3239
  575ERGO   ROH 8299   6.072   0.892  10.935  0.1157  0.0810 -0.1398
  575ERGO    R1 8300   6.147   0.950  10.668 -0.0353  0.1411 -0.1710
  575ERGO    R2 8301   6.147   0.758  10.468  0.2032  0.0930 -0.1352
  575ERGO    R3 8302   5.988   0.938  10.341 -0.1053 -0.1658 -0.1277
  575ERGO    R4 8303   6.135   0.804  10.126  0.1847  0.1558 -0.1257
  575ERGO    R5 8304   6.122   1.019  10.160 -0.2178  0.1266 -0.0808
  575ERGO    C1 8305   5.979   1.000   9.807 -0.1157 -0.0507 -0.1131
  575ERGO    C2 8306   5.909   0.992   9.533  0.0681  0.0237  0.2569
  576ERGO   ROH 8307  14.383   5.913  10.805  0.1467 -0.0985 -0.0606
  576ERGO    R1 8308  14.549   5.904  10.575 -0.0263  0.0665 -0.1945
  576ERGO    R2 8309  14.550   5.690  10.401  0.0563  0.0625 -0.1844
  576ERGO    R3 8310  14.501   5.882  10.215 -0.2917  0.0050 -0.1585
  576ERGO    R4 8311  14.611   5.658  10.062  0.0904  0.2005 -0.1924
  576ERGO    R5 8312  14.683   5.864  10.060 -0.2623  0.3337 -0.1742
  576ERGO    C1 8313  14.600   5.820   9.691 -0.2165  0.2269 -0.1726
  576ERGO    C2 8314  14.772   5.824   9.440  0.1133  0.1370  0.2881
  577ERGO   ROH 8315  16.687  11.846  11.041  0.0539 -0.0528 -0.0449
  577ERGO    R1 8316  16.653  11.781  10.768 -0.0998 -0.0932 -0.0170
  577ERGO    R2 8317  16.465  11.906  10.608 -0.0138  0.0688  0.0049
  577ERGO    R3 8318  16.680  11.955  10.449 -0.0044 -0.2114 -0.0738
  577ERGO    R4 8319  16.450  11.962  10.267 -0.0602  0.0477  0.0036
  577ERGO    R5 8320  16.630  11.841  10.244 -0.2131 -0.1759 -0.0444
  577ERGO    C1 8321  16.644  12.040   9.920 -0.0784 -0.2277 -0.0711
  577ERGO    C2 8322  16.735  12.049   9.596 -0.3231  0.1001  0.1331
  578ERGO   ROH 8323   4.153   6.859  11.011 -0.0565 -0.0766 -0.0539
  578ERGO    R1 8324   4.245   6.853  10.744  0.0003 -0.0496 -0.0370
  578ERGO    R2 8325   4.142   6.680  10.554  0.1312 -0.1320 -0.0499
  578ERGO    R3 8326   4.102   6.909  10.414  0.0269 -0.1604 -0.0638
  578ERGO    R4 8327   4.133   6.702  10.210  0.0239 -0.1464 -0.0473
  578ERGO    R5 8328   4.245   6.889  10.223 -0.0323 -0.1248 -0.0999
  578ERGO    C1 8329   4.090   6.931   9.877 -0.1365 -0.1816 -0.0590
  578ERGO    C2 8330   4.129   7.054   9.626  0.0915 -0.1372  0.1819
  579ERGO   ROH 8331   4.161  12.388  11.295 -0.0512 -0.1414  0.0511
  579ERGO    R1 8332   4.043  12.367  11.038 -0.1624 -0.0397  0.0933
  579ERGO    R2 8333   3.993  12.586  10.879  0.0659 -0.0035  0.0701
  579ERGO    R3 8334   4.137  12.446  10.696 -0.1694 -0.2240  0.0472
  579ERGO    R4 8335   3.985  12.640  10.537  0.0774 -0.0030  0.0697
  579ERGO    R5 8336   3.990  12.424  10.508 -0.2420 -0.0177  0.0760
  579ERGO    C1 8337   4.115  12.539  10.167 -0.1369 -0.2096  0.0480
  579ERGO    C2 8338   4.075  12.598   9.837 -0.2428 -0.2164 -0.3555
  580ERGO   ROH 8339   5.381   9.435  10.912 -0.0774 -0.0198 -0.0017
  580ERGO    R1 8340   5.436   9.433  10.635 -0.0099  0.0804  0.0105
  580ERGO    R2 8341   5.324   9.248  10.462  0.2670 -0.0499 -0.0347
  580ERGO    R3 8342   5.246   9.471  10.327  0.0086 -0.1343 -0.0290
  580ERGO    R4 8343   5.253   9.259  10.124  0.4391 -0.0850 -0.0733
  580ERGO    R5 8344   5.354   9.452  10.114  0.1587  0.0720  0.0260
  580ERGO    C1 8345   5.138   9.474   9.800  0.2967 -0.1847 -0.0903
  580ERGO    C2 8346   5.144   9.587   9.469  0.2855  0.2164  0.0779
  581ERGO   ROH 8347   6.911   6.000  10.980  0.0857 -0.0696 -0.0199
  581ERGO    R1 8348   7.019   6.048  10.723  0.0176 -0.0247 -0.0402
  581ERGO    R2 8349   7.014   5.858  10.522  0.0432 -0.0210 -0.0451
  581ERGO    R3 8350   6.893   6.057  10.381 -0.0544 -0.0583 -0.0144
  581ERGO    R4 8351   6.999   5.875  10.177 -0.0410 -0.0166 -0.0416
  581ERGO    R5 8352   7.035   6.090  10.191 -0.1093 -0.0062 -0.0454
  581ERGO    C1 8353   6.876   6.072   9.844 -0.1815 -0.0491 -0.0106
  581ERGO    C2 8354   6.830   6.058   9.408 -0.1057 -0.3994  0.0018
  582ERGO   ROH 8355   6.006   6.643  10.994 -0.1986 -0.3719  0.1093
  582ERGO    R1 8356   6.101   6.540  10.748 -0.0268 -0.1026  0.0589
  582ERGO    R2 8357   5.932   6.450  10.549  0.1163 -0.1895 -0.0255
  582ERGO    R3 8358   6.071   6.627  10.396 -0.0725  0.0819  0.1075
  582ERGO    R4 8359   5.889   6.493  10.209  0.1616 -0.0655 -0.0163
  582ERGO    R5 8360   6.106   6.512  10.189  0.1457  0.2365  0.0549
  582ERGO    C1 8361   5.995   6.684   9.867  0.0107  0.2615  0.1138
  582ERGO    C2 8362   5.947   6.570   9.570 -0.2095 -0.3493  0.2366
  583ERGO   ROH 8363   3.754   7.103  10.993 -0.2513  0.1835 -0.1214
  583ERGO    R1 8364   3.775   6.993  10.733 -0.0629  0.1469 -0.0916
  583ERGO    R2 8365   3.563   6.987  10.556  0.0246 -0.0139 -0.1897
  583ERGO    R3 8366   3.739   7.113  10.391  0.0257  0.0593 -0.1332
  583ERGO    R4 8367   3.522   7.024  10.215  0.1842 -0.1699 -0.2275
  583ERGO    R5 8368   3.735   6.984  10.190  0.2344 -0.0210 -0.0914
  583ERGO    C1 8369   3.663   7.164   9.861  0.2782 -0.1920 -0.1964
  583ERGO    C2 8370   3.673   7.283   9.621  0.3041  0.0030  0.0417
  584ERGO   ROH 8371  14.897   7.898  10.907  0.2370 -0.1276 -0.1630
  584ERGO    R1 8372  14.941   7.752  10.669  0.0569 -0.1104 -0.2084
  584ERGO    R2 8373  14.750   7.728  10.471 -0.0184  0.0802 -0.1609
  584ERGO    R3 8374  14.949   7.823  10.312  0.0107 -0.0380 -0.1951
  584ERGO    R4 8375  14.767   7.684  10.129 -0.0481 -0.0227 -0.1490
  584ERGO    R5 8376  14.982   7.650  10.149 -0.0594 -0.0963 -0.1481
  584ERGO    C1 8377  14.965   7.746   9.781 -0.0382 -0.1935 -0.1743
  584ERGO    C2 8378  14.830   7.695   9.438 -0.0462  0.1755 -0.0695
  585ERGO   ROH 8379   3.264   0.968  11.392 -0.0897  0.0968 -0.0588
  585ERGO    R1 8380   3.165   1.007  11.130 -0.1115  0.1940 -0.0354
  585ERGO    R2 8381   3.260   1.205  10.963  0.0171  0.1226 -0.0388
  585ERGO    R3 8382   3.300   0.997  10.792 -0.1909  0.1022 -0.0668
  585ERGO    R4 8383   3.230   1.223  10.619  0.1148  0.2330 -0.0432
  585ERGO    R5 8384   3.134   1.027  10.622 -0.1240  0.3381 -0.1004
  585ERGO    C1 8385   3.250   1.038  10.259 -0.0235  0.2782 -0.0718
  585ERGO    C2 8386   3.264   1.063  10.062 -0.0423 -0.3125  0.0712
  586ERGO   ROH 8387   0.471   4.348  10.769  0.0521 -0.2680 -0.0927
  586ERGO    R1 8388   0.591   4.408  10.520  0.0075 -0.1878 -0.0953
  586ERGO    R2 8389   0.444   4.466  10.294 -0.0329 -0.0527 -0.0365
  586ERGO    R3 8390   0.597   4.690  10.290  0.0203 -0.0879  0.0270
  586ERGO    R4 8391   0.563   4.619  10.008  0.0329 -0.0191  0.0089
  586ERGO    R5 8392   0.752   4.654  10.111  0.0300 -0.0854  0.0356
  586ERGO    C1 8393   0.777   4.919   9.838  0.1210 -0.0325  0.0950
  586ERGO    C2 8394   0.595   4.975   9.485  0.3671  0.1763 -0.4263
  587ERGO   ROH 8395  11.344   6.303  10.486 -0.1484 -0.2530  0.0695
  587ERGO    R1 8396  11.251   6.154  10.264 -0.0309 -0.0692 -0.1060
  587ERGO    R2 8397  10.989   6.164  10.177 -0.0479 -0.1996 -0.0713
  587ERGO    R3 8398  11.104   6.228   9.939 -0.1221  0.1948 -0.0077
  587ERGO    R4 8399  10.820   6.188   9.877 -0.0455 -0.3187 -0.0826
  587ERGO    R5 8400  10.989   6.091   9.779  0.1705  0.0762 -0.1242
  587ERGO    C1 8401  10.829   6.263   9.479 -0.1137 -0.0178 -0.0296
  587ERGO    C2 8402  10.543   6.503   9.447 -0.2094 -0.3154 -0.0362
  588ERGO   ROH 8403   9.981  17.101  10.585 -0.2244 -0.2861 -0.0596
  588ERGO    R1 8404  10.130  17.176  10.357 -0.1097 -0.0842  0.0767
  588ERGO    R2 8405  10.290  16.998  10.218 -0.0411  0.0313 -0.0093
  588ERGO    R3 8406  10.142  17.081  10.006  0.0566  0.2231 -0.0026
  588ERGO    R4 8407  10.337  16.895   9.891 -0.2743 -0.1201  0.0041
  588ERGO    R5 8408  10.299  17.099   9.826  0.0498 -0.0769 -0.0360
  588ERGO    C1 8409  10.225  16.912   9.502 -0.3183 -0.0280  0.0182
  588ERGO    C2 8410  10.273  16.927   9.161 -0.0142 -0.0950  0.1375
  589ERGO   ROH 8411   0.782   9.407  11.308 -0.2727  0.2386  0.2496
  589ERGO    R1 8412   0.695   9.318  11.054 -0.2600  0.1678  0.2697
  589ERGO    R2 8413   0.539   9.473  10.887 -0.0771  0.2054  0.1302
  589ERGO    R3 8414   0.737   9.424  10.708 -0.0557 -0.0581  0.2223
  589ERGO    R4 8415   0.512   9.519  10.546  0.1999  0.4436  0.1363
  589ERGO    R5 8416   0.624   9.334  10.517 -0.1157  0.2486  0.1059
  589ERGO    C1 8417   0.682   9.499  10.179  0.3812  0.3348  0.2262
  589ERGO    C2 8418   0.769   9.412   9.888 -0.0805 -0.1571 -0.0766
  590ERGO   ROH 8419   9.579   6.473  10.456  0.0124  0.0079  0.1259
  590ERGO    R1 8420   9.370   6.437  10.269  0.0290  0.1128  0.0859
  590ERGO    R2 8421   9.239   6.650  10.150  0.1960  0.1800  0.0147
  590ERGO    R3 8422   9.309   6.522   9.921  0.1648  0.0880  0.0566
  590ERGO    R4 8423   9.129   6.737   9.834  0.1243  0.0264 -0.0031
  590ERGO    R5 8424   9.110   6.525   9.788  0.1402  0.0054  0.0940
  590ERGO    C1 8425   9.131   6.668   9.435  0.0531 -0.1494  0.0258
  590ERGO    C2 8426   9.073   6.644   9.072 -0.3170 -0.2177  0.0468
  591ERGO   ROH 8427   4.778  10.747  11.227 -0.0831 -0.1604 -0.1197
  591ERGO    R1 8428   4.849  10.651  10.970 -0.2526 -0.1885 -0.1570
  591ERGO    R2 8429   4.663  10.552  10.792 -0.4392  0.2397 -0.2097
  591ERGO    R3 8430   4.772  10.737  10.625 -0.0760  0.1092 -0.1261
  591ERGO    R4 8431   4.610  10.566  10.450 -0.2309  0.3580 -0.2385
  591ERGO    R5 8432   4.821  10.616  10.425 -0.1383  0.0597 -0.1135
  591ERGO    C1 8433   4.682  10.748  10.096  0.2313  0.3043 -0.1768
  591ERGO    C2 8434   4.617  10.739   9.750 -0.0545  0.1327 -0.2105
  592ERGO   ROH 8435   5.920   7.583  10.942  0.2943 -0.1602 -0.1032
  592ERGO    R1 8436   5.996   7.515  10.678  0.1159 -0.1209 -0.1697
  592ERGO    R2 8437   5.815   7.425  10.490 -0.0396 -0.0098 -0.1032
  592ERGO    R3 8438   5.915   7.629  10.342 -0.0476  0.0041 -0.0834
  592ERGO    R4 8439   5.871   7.412  10.149  0.2451 -0.0406 -0.0556
  592ERGO    R5 8440   6.057   7.522  10.181  0.1385  0.0694  0.0556
  592ERGO    C1 8441   5.997   7.597   9.812  0.4035 -0.0455 -0.0094
  592ERGO    C2 8442   5.849   7.712   9.572 -0.3222  0.0227  0.0515
  593ERGO   ROH 8443  12.998   5.361  10.528  0.0829 -0.0428 -0.0037
  593ERGO    R1 8444  13.154   5.438  10.304 -0.0499  0.1193 -0.0433
  593ERGO    R2 8445  13.292   5.255  10.150  0.2554  0.2731  0.0323
  593ERGO    R3 8446  13.153   5.370   9.947  0.0450 -0.0465 -0.0117
  593ERGO    R4 8447  13.380   5.238   9.816  0.1038  0.0622  0.0013
  593ERGO    R5 8448  13.322   5.447   9.795 -0.1089 -0.0157 -0.1639
  593ERGO    C1 8449  13.300   5.337   9.431 -0.1819 -0.3608 -0.0581
  593ERGO    C2 8450  13.388   5.218   9.082  0.0557 -0.1230  0.2585
  594ERGO   ROH 8451  14.664   1.806  10.846 -0.0651 -0.2079  0.1200
  594ERGO    R1 8452  14.794   1.701  10.618 -0.0984 -0.1489  0.0732
  594ERGO    R2 8453  14.657   1.620  10.392 -0.1294 -0.0597  0.0583
  594ERGO    R3 8454  14.827   1.791  10.267 -0.1212 -0.0374  0.1000
  594ERGO    R4 8455  14.730   1.614  10.054 -0.0749 -0.0208  0.0694
  594ERGO    R5 8456  14.938   1.656  10.103 -0.0869 -0.0124  0.1046
  594ERGO    C1 8457  14.933   1.771   9.740 -0.0354  0.0228  0.1150
  594ERGO    C2 8458  15.053   1.708   9.333 -0.0600 -0.3217 -0.1405
  595ERGO   ROH 8459   5.139   5.988  10.956  0.1215  0.2173 -0.0889
  595ERGO    R1 8460   5.225   5.918  10.696  0.0206 -0.0026 -0.0646
  595ERGO    R2 8461   5.072   5.763  10.525 -0.1475  0.0498  0.0419
  595ERGO    R3 8462   5.109   5.972  10.355  0.0263 -0.0750 -0.0795
  595ERGO    R4 8463   5.056   5.744  10.180 -0.1007 -0.1537  0.0492
  595ERGO    R5 8464   5.226   5.878  10.169 -0.0025 -0.2741 -0.0036
  595ERGO    C1 8465   5.080   5.929   9.820  0.0896 -0.3895 -0.0606
  595ERGO    C2 8466   5.090   5.977   9.523  0.2050  0.2105  0.1652
  596ERGO   ROH 8467   5.244  13.598  11.142 -0.1377  0.1752  0.0559
  596ERGO    R1 8468   5.385  13.486  10.923 -0.0278  0.1660  0.1310
  596ERGO    R2 8469   5.259  13.346  10.722  0.0828  0.1014  0.1100
  596ERGO    R3 8470   5.385  13.525  10.562  0.1051  0.0973  0.1221
  596ERGO    R4 8471   5.260  13.336  10.376  0.0147  0.1622  0.1075
  596ERGO    R5 8472   5.470  13.394  10.380  0.0354  0.1034  0.0814
  596ERGO    C1 8473   5.379  13.499  10.025 -0.0040  0.1939  0.1174
  596ERGO    C2 8474   5.324  13.463   9.720  0.1518  0.1240  0.2967
  597ERGO   ROH 8475  12.845  12.284  11.135  0.0676 -0.1050  0.1686
  597ERGO    R1 8476  12.803  12.156  10.886  0.2353  0.0203  0.0730
  597ERGO    R2 8477  12.596  12.225  10.716  0.1277 -0.1375  0.1343
  597ERGO    R3 8478  12.797  12.254  10.535  0.0852  0.2792  0.1460
  597ERGO    R4 8479  12.551  12.257  10.375  0.0809 -0.3718  0.1174
  597ERGO    R5 8480  12.724  12.128  10.345  0.4037  0.0268  0.1848
  597ERGO    C1 8481  12.713  12.303  10.007  0.0139 -0.1171  0.1187
  597ERGO    C2 8482  12.692  12.404   9.734  0.1304 -0.1920 -0.1239
  598ERGO   ROH 8483  14.263   2.551  10.500  0.0022 -0.1390 -0.0129
  598ERGO    R1 8484  14.235   2.470  10.230  0.1597 -0.2169 -0.0076
  598ERGO    R2 8485  14.154   2.644  10.030 -0.0430 -0.3496 -0.0462
  598ERGO    R3 8486  14.383   2.560   9.910  0.0980 -0.0568  0.0083
  598ERGO    R4 8487  14.215   2.656   9.690  0.0173 -0.2991 -0.0342
  598ERGO    R5 8488  14.310   2.461   9.705  0.2751 -0.1734  0.0008
  598ERGO    C1 8489  14.464   2.585   9.379  0.1847  0.0052  0.0242
  598ERGO    C2 8490  14.574   2.732   9.097 -0.0841 -0.2175 -0.0228
  599ERGO   ROH 8491   6.875   7.594  10.721  0.1255  0.0717  0.1426
  599ERGO    R1 8492   7.017   7.628  10.478  0.1788  0.2263  0.1948
  599ERGO    R2 8493   6.903   7.581  10.231  0.3735 -0.0849  0.1595
  599ERGO    R3 8494   6.986   7.835  10.181 -0.0593  0.0506  0.0947
  599ERGO    R4 8495   6.972   7.707   9.917  0.3755 -0.1195  0.1460
  599ERGO    R5 8496   7.143   7.812  10.002  0.1240  0.2479  0.2256
  599ERGO    C1 8497   7.089   8.019   9.686 -0.0295 -0.0127  0.0771
  599ERGO    C2 8498   7.055   8.064   9.309 -0.2224 -0.0351  0.0451
  600ERGO   ROH 8499  13.011   0.711  10.589  0.0659  0.0684 -0.0488
  600ERGO    R1 8500  13.047   0.555  10.355  0.0376  0.0046 -0.0107
  600ERGO    R2 8501  12.836   0.474  10.196  0.0262  0.0366 -0.0127
  600ERGO    R3 8502  12.982   0.592   9.999  0.0828 -0.0537 -0.0252
  600ERGO    R4 8503  12.821   0.390   9.861 -0.0202  0.0146 -0.0050
  600ERGO    R5 8504  13.037   0.413   9.851 -0.0088 -0.0946 -0.0101
  600ERGO    C1 8505  12.949   0.452   9.482  0.0058 -0.0831 -0.0123
  600ERGO    C2 8506  12.964   0.494   9.142 -0.0754  0.2023 -0.2944
  601ERGO   ROH 8507  13.844  12.741  10.999  0.0343  0.1630 -0.1611
  601ERGO    R1 8508  13.939  12.859  10.759  0.2071 -0.0237 -0.1869
  601ERGO    R2 8509  14.095  12.721  10.578  0.0221 -0.2887 -0.1508
  601ERGO    R3 8510  13.902  12.797  10.403  0.1302 -0.0577 -0.1733
  601ERGO    R4 8511  14.120  12.696  10.234  0.0112 -0.3706 -0.1459
  601ERGO    R5 8512  14.023  12.890  10.218  0.2670 -0.2416 -0.1799
  601ERGO    C1 8513  13.953  12.753   9.869  0.1061 -0.2014 -0.1642
  601ERGO    C2 8514  13.919  12.772   9.567  0.2672 -0.0154 -0.1520
  602ERGO   ROH 8515  12.971   6.562  10.557  0.1355  0.2930  0.0757
  602ERGO    R1 8516  13.113   6.598  10.315  0.1670  0.0172  0.0487
  602ERGO    R2 8517  13.167   6.391  10.142 -0.2328 -0.1054  0.0562
  602ERGO    R3 8518  13.046   6.553   9.960  0.0230  0.1018  0.0648
  602ERGO    R4 8519  13.205   6.364   9.799 -0.4638 -0.3039  0.0435
  602ERGO    R5 8520  13.212   6.582   9.788  0.0066 -0.3143 -0.0310
  602ERGO    C1 8521  13.114   6.500   9.429 -0.3583 -0.2251  0.0442
  602ERGO    C2 8522  13.134   6.355   9.006  0.0792  0.0349  0.0865
  603ERGO   ROH 8523   5.037   0.935  11.279  0.1074  0.2239 -0.0429
  603ERGO    R1 8524   5.151   0.900  11.023  0.0310  0.0522 -0.0548
  603ERGO    R2 8525   5.081   0.692  10.855 -0.1604  0.0506  0.0289
  603ERGO    R3 8526   5.032   0.894  10.679 -0.0412  0.0292 -0.0302
  603ERGO    R4 8527   5.097   0.662  10.511 -0.0250 -0.0220  0.0405
  603ERGO    R5 8528   5.191   0.859  10.503  0.0253 -0.0434  0.0413
  603ERGO    C1 8529   5.061   0.834  10.146  0.1658 -0.0843 -0.0082
  603ERGO    C2 8530   5.105   0.856   9.805  0.2308  0.0287  0.2469
  604ERGO   ROH 8531  13.104   7.654  10.465 -0.0177 -0.0568  0.1127
  604ERGO    R1 8532  12.983   7.675  10.210  0.0341 -0.0415  0.0903
  604ERGO    R2 8533  13.093   7.562   9.984  0.0515 -0.0712  0.1189
  604ERGO    R3 8534  12.849   7.446   9.962  0.0307 -0.0215  0.0719
  604ERGO    R4 8535  12.920   7.521   9.687  0.0921 -0.0044  0.0849
  604ERGO    R5 8536  12.737   7.574   9.793  0.0829  0.0225  0.0654
  604ERGO    C1 8537  12.590   7.388   9.494  0.0962  0.0812  0.0208
  604ERGO    C2 8538  12.678   7.296   9.169  0.0927 -0.1717  0.0023
  605ERGO   ROH 8539  16.983   1.196  11.100 -0.0056  0.1835  0.0600
  605ERGO    R1 8540  17.162   1.187  10.881 -0.0294  0.0680  0.0453
  605ERGO    R2 8541  17.179   0.968  10.712 -0.1537  0.0403  0.0712
  605ERGO    R3 8542  17.135   1.154  10.519 -0.0759  0.0385  0.0507
  605ERGO    R4 8543  17.252   0.927  10.377  0.0156  0.0443  0.1060
  605ERGO    R5 8544  17.321   1.133  10.371  0.0018  0.0530  0.1420
  605ERGO    C1 8545  17.252   1.079  10.000  0.1874  0.0450  0.1072
  605ERGO    C2 8546  17.341   1.025   9.648 -0.0236 -0.2249 -0.3573
  606ERGO   ROH 8547  14.412  13.642  11.019 -0.0715 -0.0262 -0.1503
  606ERGO    R1 8548  14.559  13.729  10.794 -0.0645 -0.0351 -0.1521
  606ERGO    R2 8549  14.596  13.572  10.570 -0.0701 -0.0429 -0.1597
  606ERGO    R3 8550  14.493  13.788  10.440 -0.0652 -0.0378 -0.1498
  606ERGO    R4 8551  14.645  13.643  10.235  0.1018  0.0958 -0.1042
  606ERGO    R5 8552  14.666  13.854  10.289 -0.0048  0.0776 -0.0226
  606ERGO    C1 8553  14.578  13.887   9.919  0.2065  0.1815 -0.0625
  606ERGO    C2 8554  14.585  14.014   9.582  0.1581  0.3387  0.1672
  607ERGO   ROH 8555   4.936   3.473  11.238  0.0439  0.0871  0.0915
  607ERGO    R1 8556   4.811   3.398  10.995  0.2389 -0.1697  0.0677
  607ERGO    R2 8557   4.718   3.583  10.813 -0.1366 -0.3552  0.0710
  607ERGO    R3 8558   4.875   3.444  10.640  0.1935 -0.0072  0.0786
  607ERGO    R4 8559   4.676   3.575  10.470 -0.1576 -0.5012  0.0756
  607ERGO    R5 8560   4.724   3.362  10.474  0.3609 -0.4018  0.1036
  607ERGO    C1 8561   4.799   3.440  10.108  0.1402 -0.2594  0.0853
  607ERGO    C2 8562   4.826   3.399   9.752 -0.2794 -0.2771 -0.0429
  608ERGO   ROH 8563   9.353   0.866  10.432  0.0062 -0.0543 -0.0123
  608ERGO    R1 8564   9.445   0.982  10.191 -0.0800 -0.0639 -0.0504
  608ERGO    R2 8565   9.593   0.840  10.004 -0.1223 -0.0644 -0.0863
  608ERGO    R3 8566   9.397   0.924   9.835 -0.1851 -0.0980 -0.0304
  608ERGO    R4 8567   9.641   0.921   9.672 -0.2692 -0.2210 -0.1473
  608ERGO    R5 8568   9.504   1.089   9.698 -0.2187 -0.1822 -0.1558
  608ERGO    C1 8569   9.485   1.047   9.319 -0.4137 -0.3436 -0.1303
  608ERGO    C2 8570   9.464   1.015   8.960  0.1653  0.0650 -0.0427
  609ERGO   ROH 8571  15.564   2.312  10.916 -0.2398  0.1314 -0.1781
  609ERGO    R1 8572  15.615   2.230  10.650 -0.0664 -0.0513 -0.0904
  609ERGO    R2 8573  15.539   2.380  10.430 -0.1635 -0.3290 -0.2477
  609ERGO    R3 8574  15.802   2.358  10.365 -0.1167 -0.1003 -0.1469
  609ERGO    R4 8575  15.663   2.384  10.108 -0.0516 -0.2578 -0.2047
  609ERGO    R5 8576  15.803   2.227  10.165  0.0727 -0.1281 -0.1321
  609ERGO    C1 8577  15.983   2.366   9.859  0.0574 -0.0015 -0.0850
  609ERGO    C2 8578  15.926   2.530   9.565 -0.0102  0.0408 -0.0755
  610ERGO   ROH 8579  11.312  11.685  10.975 -0.0393 -0.2989  0.0516
  610ERGO    R1 8580  11.447  11.760  10.738 -0.0281 -0.0674  0.1298
  610ERGO    R2 8581  11.467  11.594  10.518  0.3156 -0.0061  0.1116
  610ERGO    R3 8582  11.361  11.806  10.388  0.0762 -0.1323  0.0948
  610ERGO    R4 8583  11.471  11.636  10.176  0.4312  0.0540  0.1193
  610ERGO    R5 8584  11.513  11.848  10.207  0.1146  0.1147  0.1786
  610ERGO    C1 8585  11.372  11.861   9.853  0.2738 -0.0297  0.1079
  610ERGO    C2 8586  11.370  11.887   9.576 -0.1000 -0.1176 -0.1029
  611ERGO   ROH 8587  15.921  10.106  10.908  0.0414  0.2468 -0.0060
  611ERGO    R1 8588  16.031  10.034  10.657 -0.0419  0.2629 -0.0480
  611ERGO    R2 8589  15.942   9.817  10.513  0.1061  0.0926  0.1046
  611ERGO    R3 8590  15.911  10.002  10.315 -0.2363 -0.0217  0.0454
  611ERGO    R4 8591  16.021   9.765  10.180  0.2860  0.1665  0.1345
  611ERGO    R5 8592  16.101   9.968  10.173 -0.1327  0.3345  0.0955
  611ERGO    C1 8593  16.038   9.908   9.801  0.0694  0.1020  0.0964
  611ERGO    C2 8594  16.020   9.817   9.517  0.0856 -0.3579 -0.3361
  612ERGO   ROH 8595   5.438  11.773  11.311 -0.3608  0.0253 -0.0190
  612ERGO    R1 8596   5.436  11.907  11.061 -0.1979 -0.0269 -0.0504
  612ERGO    R2 8597   5.610  11.843  10.856 -0.1223 -0.1317  0.0428
  612ERGO    R3 8598   5.381  11.816  10.713 -0.0664 -0.0838 -0.0563
  612ERGO    R4 8599   5.585  11.880  10.513  0.0086 -0.0163  0.0452
  612ERGO    R5 8600   5.396  11.984  10.543 -0.0018 -0.0278  0.0062
  612ERGO    C1 8601   5.355  11.876  10.179  0.1374  0.0958 -0.0463
  612ERGO    C2 8602   5.348  11.884   9.938 -0.0511  0.1873 -0.0631
  613ERGO   ROH 8603  15.575  12.355  10.986  0.2638 -0.0793  0.0530
  613ERGO    R1 8604  15.574  12.268  10.717  0.1831 -0.1073  0.0615
  613ERGO    R2 8605  15.433  12.399  10.518 -0.0332 -0.2355  0.1222
  613ERGO    R3 8606  15.675  12.403  10.395 -0.1014 -0.0560 -0.0088
  613ERGO    R4 8607  15.480  12.429  10.177 -0.2319 -0.1144  0.1044
  613ERGO    R5 8608  15.640  12.281  10.191 -0.1356 -0.0209 -0.0219
  613ERGO    C1 8609  15.735  12.450   9.862 -0.4118  0.1246 -0.0291
  613ERGO    C2 8610  15.727  12.499   9.532  0.0205 -0.0238  0.3693
  614ERGO   ROH 8611   3.186   9.073  11.415 -0.0946 -0.0869  0.0459
  614ERGO    R1 8612   3.017   9.195  11.224 -0.0888 -0.0724  0.0506
  614ERGO    R2 8613   3.095   9.412  11.071 -0.0804 -0.0704  0.0614
  614ERGO    R3 8614   3.022   9.252  10.864 -0.0864 -0.0567  0.0526
  614ERGO    R4 8615   3.086   9.510  10.740 -0.0434 -0.0587  0.0635
  614ERGO    R5 8616   2.901   9.397  10.717 -0.0579 -0.0354  0.0478
  614ERGO    C1 8617   3.012   9.416  10.353 -0.0275 -0.0389  0.0565
  614ERGO    C2 8618   2.935   9.471  10.094 -0.0352 -0.2217  0.1068
  615ERGO   ROH 8619  16.764  10.768  10.913  0.0201 -0.1273  0.0299
  615ERGO    R1 8620  16.664  10.766  10.648  0.0796  0.0633  0.0047
  615ERGO    R2 8621  16.817  10.841  10.430  0.2067 -0.0096  0.0646
  615ERGO    R3 8622  16.743  10.597  10.336 -0.0114  0.0916 -0.0331
  615ERGO    R4 8623  16.809  10.753  10.096  0.1363  0.1180  0.0320
  615ERGO    R5 8624  16.624  10.645  10.134  0.0393  0.2728 -0.0185
  615ERGO    C1 8625  16.736  10.472   9.813 -0.1098  0.2872 -0.0790
  615ERGO    C2 8626  16.754  10.441   9.534 -0.2428  0.0846 -0.2357
  616ERGO   ROH 8627  11.411   3.880  10.282 -0.1576  0.0230  0.0612
  616ERGO    R1 8628  11.370   4.002  10.030 -0.0079  0.0771  0.0615
  616ERGO    R2 8629  11.477   3.901   9.796  0.0220  0.0510  0.0823
  616ERGO    R3 8630  11.218   3.909   9.713  0.0534  0.1938 -0.0015
  616ERGO    R4 8631  11.377   3.917   9.466  0.1293 -0.0161  0.0464
  616ERGO    R5 8632  11.221   4.058   9.525  0.2094  0.1127 -0.0610
  616ERGO    C1 8633  11.076   3.934   9.195  0.2213  0.0790 -0.0530
  616ERGO    C2 8634  11.145   3.866   8.788  0.0188 -0.0614  0.1319
  617ERGO   ROH 8635   3.453   3.487  11.249  0.2706  0.0163  0.0596
  617ERGO    R1 8636   3.425   3.575  10.982  0.0660 -0.0546  0.0556
  617ERGO    R2 8637   3.629   3.554  10.796 -0.0769 -0.1090 -0.0979
  617ERGO    R3 8638   3.440   3.424  10.651 -0.1936 -0.1437  0.0826
  617ERGO    R4 8639   3.606   3.559  10.451 -0.2294 -0.3532 -0.0934
  617ERGO    R5 8640   3.390   3.574  10.471 -0.2161 -0.2556 -0.0053
  617ERGO    C1 8641   3.415   3.440  10.114 -0.4278 -0.5280  0.0786
  617ERGO    C2 8642   3.493   3.539   9.840 -0.1297 -0.2018 -0.1927
  618ERGO   ROH 8643  16.628   9.357  10.986 -0.1334  0.0108 -0.0533
  618ERGO    R1 8644  16.724   9.280  10.731 -0.1015 -0.0965 -0.0105
  618ERGO    R2 8645  16.635   9.053  10.601 -0.1717 -0.0918  0.0220
  618ERGO    R3 8646  16.581   9.228  10.400 -0.0418 -0.1138 -0.0326
  618ERGO    R4 8647  16.628   8.972  10.265 -0.3085 -0.2043  0.0518
  618ERGO    R5 8648  16.727   9.161  10.222 -0.1375 -0.3148 -0.0352
  618ERGO    C1 8649  16.572   9.089   9.881 -0.2658 -0.2906  0.0179
  618ERGO    C2 8650  16.566   9.070   9.509 -0.1814  0.2093  0.2288
  619ERGO   ROH 8651   1.281  11.107  11.082  0.4408  0.2434  0.0409
  619ERGO    R1 8652   1.381  11.194  10.831  0.3138  0.0505 -0.0805
  619ERGO    R2 8653   1.490  11.020  10.646  0.2479 -0.0941  0.0041
  619ERGO    R3 8654   1.305  11.132  10.481  0.1514 -0.2498  0.0066
  619ERGO    R4 8655   1.516  11.038  10.302  0.1856 -0.1160 -0.0013
  619ERGO    R5 8656   1.434  11.239  10.310  0.0454 -0.1810 -0.0223
  619ERGO    C1 8657   1.358  11.153   9.947  0.0588 -0.2748 -0.0019
  619ERGO    C2 8658   1.426  11.176   9.608  0.0133 -0.1134  0.0073
  620ERGO   ROH 8659  15.256   5.014  10.700 -0.1858  0.0042 -0.0308
  620ERGO    R1 8660  15.287   5.141  10.449  0.0425 -0.1295 -0.0746
  620ERGO    R2 8661  15.450   5.040  10.250 -0.1011 -0.4708 -0.0326
  620ERGO    R3 8662  15.223   5.057  10.101 -0.0714 -0.1522 -0.0473
  620ERGO    R4 8663  15.439   5.028   9.905 -0.0947 -0.3244 -0.0380
  620ERGO    R5 8664  15.288   5.184   9.909  0.0865 -0.1529  0.0083
  620ERGO    C1 8665  15.220   5.036   9.564 -0.0632  0.0599 -0.0547
  620ERGO    C2 8666  15.119   5.054   9.195  0.0294  0.0895 -0.1216
  621ERGO   ROH 8667   0.879   8.435  11.012 -0.1403 -0.0430  0.1057
  621ERGO    R1 8668   0.844   8.304  10.763 -0.0791  0.0702  0.0380
  621ERGO    R2 8669   0.670   8.398  10.569  0.0339  0.2040  0.0061
  621ERGO    R3 8670   0.892   8.388  10.412  0.0934  0.1956  0.0882
  621ERGO    R4 8671   0.670   8.441  10.226  0.1105 -0.0822 -0.0326
  621ERGO    R5 8672   0.817   8.280  10.211  0.2117 -0.0189  0.1512
  621ERGO    C1 8673   0.878   8.456   9.879  0.2110 -0.2568  0.0220
  621ERGO    C2 8674   0.848   8.526   9.591  0.3625 -0.1450  0.0494
  622ERGO   ROH 8675   6.908  15.146  11.036 -0.0211  0.1111  0.1838
  622ERGO    R1 8676   7.003  15.262  10.797 -0.1366 -0.0224  0.0712
  622ERGO    R2 8677   7.254  15.207  10.694 -0.0893  0.1089  0.1146
  622ERGO    R3 8678   7.113  15.144  10.470 -0.0430 -0.2271  0.1752
  622ERGO    R4 8679   7.374  15.233  10.371 -0.2452  0.2717  0.0679
  622ERGO    R5 8680   7.179  15.309  10.310 -0.4229 -0.1284  0.1120
  622ERGO    C1 8681   7.312  15.189   9.973 -0.2925  0.0511  0.0978
  622ERGO    C2 8682   7.177  15.202   9.634 -0.0875  0.1604 -0.3194
  623ERGO   ROH 8683   6.782   8.552  10.895 -0.0736  0.0892 -0.0041
  623ERGO    R1 8684   6.787   8.719  10.666 -0.0434  0.0573 -0.0285
  623ERGO    R2 8685   6.952   8.670  10.450 -0.1220 -0.0628 -0.0734
  623ERGO    R3 8686   6.719   8.681  10.311 -0.1584  0.0404 -0.0025
  623ERGO    R4 8687   6.928   8.676  10.106 -0.2497 -0.2631 -0.0688
  623ERGO    R5 8688   6.768   8.823  10.124 -0.1151 -0.1247 -0.1088
  623ERGO    C1 8689   6.695   8.691   9.774 -0.3582 -0.2829  0.0004
  623ERGO    C2 8690   6.562   8.770   9.411  0.1036 -0.2830 -0.4023
  624ERGO   ROH 8691   7.878  13.067   6.879 -0.2857  0.0319  0.0344
  624ERGO    R1 8692   7.854  13.180   7.137 -0.1519  0.0218  0.0524
  624ERGO    R2 8693   7.710  13.060   7.339 -0.0758  0.0309  0.1160
  624ERGO    R3 8694   7.943  13.085   7.477 -0.0087 -0.0083  0.0059
  624ERGO    R4 8695   7.733  13.104   7.681  0.1093 -0.2982  0.1492
  624ERGO    R5 8696   7.894  13.247   7.647  0.0247 -0.1990  0.1961
  624ERGO    C1 8697   7.965  13.153   8.009  0.2801 -0.5264  0.0651
  624ERGO    C2 8698   7.965  13.254   8.275 -0.0520 -0.1043  0.0745
  625ERGO   ROH 8699   5.036  17.082  11.203 -0.0934  0.3533 -0.0047
  625ERGO    R1 8700   4.863  17.197  11.011 -0.0299  0.2923 -0.0984
  625ERGO    R2 8701   4.957  17.329  10.786  0.0416  0.1251 -0.1625
  625ERGO    R3 8702   4.795  17.153  10.656  0.0020  0.1014 -0.0835
  625ERGO    R4 8703   4.910  17.319  10.444  0.1011 -0.0542 -0.1674
  625ERGO    R5 8704   4.699  17.282  10.478  0.0763  0.0381 -0.1770
  625ERGO    C1 8705   4.731  17.150  10.122  0.0986 -0.1807 -0.0959
  625ERGO    C2 8706   4.723  17.198   9.825  0.1315 -0.2054 -0.0521
  626ERGO   ROH 8707   6.305  15.857  11.036  0.0581  0.0754  0.0872
  626ERGO    R1 8708   6.302  16.021  10.805  0.0081  0.0132  0.0432
  626ERGO    R2 8709   6.409  15.941  10.564 -0.0662 -0.0612  0.0353
  626ERGO    R3 8710   6.162  16.003  10.470 -0.0866 -0.0655  0.0859
  626ERGO    R4 8711   6.333  16.000  10.232 -0.0875  0.1497  0.0762
  626ERGO    R5 8712   6.203  16.162  10.296 -0.1337  0.0701  0.1950
  626ERGO    C1 8713   6.056  16.092   9.951 -0.1191  0.2684  0.1475
  626ERGO    C2 8714   5.728  16.197   9.778 -0.0071  0.0354 -0.0370
  627ERGO   ROH 8715   1.781   7.970  11.389  0.1014  0.2042 -0.1276
  627ERGO    R1 8716   1.835   8.026  11.117  0.1102  0.0186 -0.1643
  627ERGO    R2 8717   1.922   7.833  10.940 -0.0728 -0.1438 -0.0732
  627ERGO    R3 8718   1.708   7.916  10.795 -0.0235 -0.0448 -0.0923
  627ERGO    R4 8719   1.921   7.875  10.597 -0.0631 -0.3019 -0.0947
  627ERGO    R5 8720   1.802   8.056  10.625  0.0758 -0.1927 -0.1661
  627ERGO    C1 8721   1.719   7.979  10.261 -0.0112 -0.3011 -0.1254
  627ERGO    C2 8722   1.804   8.015   9.941 -0.0098  0.0252 -0.0722
  628ERGO   ROH 8723  14.867   9.275  10.637 -0.0563  0.0498 -0.0611
  628ERGO    R1 8724  14.881   9.428  10.399  0.2542  0.1913  0.0411
  628ERGO    R2 8725  15.119   9.474  10.266  0.3443 -0.3503 -0.0271
  628ERGO    R3 8726  14.982   9.372  10.054 -0.0374  0.1524 -0.0382
  628ERGO    R4 8727  15.199   9.527   9.934  0.2995 -0.3094 -0.0293
  628ERGO    R5 8728  14.987   9.546   9.891  0.3176  0.2673  0.0924
  628ERGO    C1 8729  15.117   9.463   9.542 -0.0847  0.1861 -0.0409
  628ERGO    C2 8730  15.177   9.395   9.267  0.2690  0.0188  0.1752
  629ERGO   ROH 8731   1.666   5.397  11.064 -0.3298  0.1919  0.0154
  629ERGO    R1 8732   1.537   5.396  10.812 -0.1337  0.0823 -0.0871
  629ERGO    R2 8733   1.522   5.620  10.651 -0.1381  0.0540 -0.1316
  629ERGO    R3 8734   1.633   5.455  10.466  0.1049  0.0889 -0.0205
  629ERGO    R4 8735   1.478   5.649  10.309 -0.1264 -0.2084 -0.1567
  629ERGO    R5 8736   1.464   5.431  10.298  0.1605 -0.2339 -0.0331
  629ERGO    C1 8737   1.556   5.510   9.937  0.1084 -0.3285 -0.0670
  629ERGO    C2 8738   1.601   5.561   9.579  0.2252  0.0985 -0.1659
  630ERGO   ROH 8739  14.445   9.503  10.809 -0.1432  0.0945 -0.1073
  630ERGO    R1 8740  14.365   9.552  10.542 -0.1090  0.1079 -0.1157
  630ERGO    R2 8741  14.520   9.698  10.365 -0.0223  0.0047 -0.1302
  630ERGO    R3 8742  14.494   9.476  10.210 -0.1392 -0.0007 -0.1024
  630ERGO    R4 8743  14.521   9.697  10.019  0.0352 -0.0490 -0.1295
  630ERGO    R5 8744  14.362   9.549  10.024 -0.0600  0.0557 -0.1348
  630ERGO    C1 8745  14.497   9.488   9.673 -0.0411 -0.0852 -0.1029
  630ERGO    C2 8746  14.589   9.691   9.487  0.1548  0.1661  0.0668
  631ERGO   ROH 8747   4.054   9.038   9.081 -0.3329 -0.3069  0.0291
  631ERGO    R1 8748   3.852   9.153   9.242 -0.2810 -0.2543  0.0573
  631ERGO    R2 8749   3.731   9.394   9.179 -0.1231 -0.1477  0.1533
  631ERGO    R3 8750   3.503   9.248   9.201 -0.2181 -0.0156  0.0562
  631ERGO    R4 8751   3.421   9.521   9.265 -0.0719  0.0226  0.0879
  631ERGO    R5 8752   3.387   9.344   9.387 -0.2145  0.0167  0.0423
  631ERGO    C1 8753   3.027   9.458   9.335 -0.1312  0.2458 -0.0412
  631ERGO    C2 8754   2.804   9.693   9.367  0.0293  0.0013 -0.1736
  632ERGO   ROH 8755  10.197   1.953  10.512  0.0045 -0.1505  0.1056
  632ERGO    R1 8756  10.241   1.796  10.280 -0.1236 -0.2230  0.1285
  632ERGO    R2 8757  10.034   1.684  10.135 -0.2306  0.0404  0.0609
  632ERGO    R3 8758  10.152   1.815   9.928  0.0176 -0.1181  0.0995
  632ERGO    R4 8759   9.950   1.644   9.802 -0.0805  0.0761  0.0189
  632ERGO    R5 8760  10.162   1.652   9.753 -0.0501 -0.1514  0.1338
  632ERGO    C1 8761  10.012   1.744   9.414  0.2398 -0.0520  0.0306
  632ERGO    C2 8762  10.023   1.722   9.083  0.0801  0.0083 -0.2909
  633ERGO   ROH 8763  10.723   7.732  10.588 -0.1088  0.1021  0.1434
  633ERGO    R1 8764  10.730   7.585  10.347 -0.0834  0.1652  0.1050
  633ERGO    R2 8765  10.503   7.537  10.196 -0.0716  0.1840  0.0814
  633ERGO    R3 8766  10.652   7.647   9.996 -0.0717  0.2492  0.1170
  633ERGO    R4 8767  10.386   7.604   9.878 -0.0271  0.1317  0.0540
  633ERGO    R5 8768  10.578   7.534   9.798  0.0239  0.2151  0.0992
  633ERGO    C1 8769  10.458   7.747   9.505 -0.0013  0.1625  0.0715
  633ERGO    C2 8770  10.237   7.953   9.267 -0.2314  0.0978  0.0499
  634ERGO   ROH 8771  11.898   5.158  10.361 -0.0524  0.1609 -0.0059
  634ERGO    R1 8772  12.026   5.029  10.145 -0.0962 -0.0448  0.0879
  634ERGO    R2 8773  11.888   4.883   9.956 -0.1851  0.1116  0.0281
  634ERGO    R3 8774  12.016   5.048   9.782  0.1418 -0.0803  0.0781
  634ERGO    R4 8775  11.902   4.836   9.614 -0.0839  0.0725  0.0374
  634ERGO    R5 8776  12.110   4.900   9.618  0.0102 -0.2280  0.1344
  634ERGO    C1 8777  12.030   4.964   9.251  0.2819 -0.1306  0.0898
  634ERGO    C2 8778  11.904   4.977   8.920  0.1006 -0.0465  0.1139
  635ERGO   ROH 8779  12.461   4.039  10.397 -0.0719  0.5520 -0.1431
  635ERGO    R1 8780  12.415   4.116  10.128 -0.2295  0.2293 -0.2128
  635ERGO    R2 8781  12.620   4.143   9.944 -0.2905  0.3960 -0.2568
  635ERGO    R3 8782  12.468   3.970   9.799 -0.0257  0.0065 -0.0845
  635ERGO    R4 8783  12.593   4.145   9.599 -0.4178  0.1078 -0.2508
  635ERGO    R5 8784  12.380   4.103   9.621 -0.3403 -0.2763 -0.1497
  635ERGO    C1 8785  12.435   3.983   9.263 -0.2433 -0.4257 -0.0858
  635ERGO    C2 8786  12.315   4.076   8.970 -0.1152 -0.2530  0.1046
  636ERGO   ROH 8787  11.861   7.332  10.004  0.2426  0.0158  0.1641
  636ERGO    R1 8788  11.872   7.283   9.726  0.0648 -0.0837  0.1727
  636ERGO    R2 8789  11.874   7.486   9.539 -0.1427 -0.1491  0.0908
  636ERGO    R3 8790  12.099   7.361   9.452 -0.1547 -0.0976 -0.0149
  636ERGO    R4 8791  11.954   7.431   9.207 -0.2830 -0.1424  0.0555
  636ERGO    R5 8792  12.027   7.233   9.263 -0.2104 -0.1197  0.0250
  636ERGO    C1 8793  12.212   7.281   8.933 -0.3759 -0.0902 -0.0645
  636ERGO    C2 8794  12.404   7.092   8.755  0.1260 -0.1521  0.1463
  637ERGO   ROH 8795  15.663   1.321  11.054 -0.0824  0.0318 -0.0947
  637ERGO    R1 8796  15.804   1.235  10.824 -0.0113  0.1076 -0.0793
  637ERGO    R2 8797  15.685   1.089  10.622  0.1188 -0.0651 -0.0317
  637ERGO    R3 8798  15.781   1.288  10.465 -0.0855 -0.0114 -0.0927
  637ERGO    R4 8799  15.735   1.065  10.281  0.1220 -0.1072 -0.0289
  637ERGO    R5 8800  15.920   1.177  10.306  0.0154  0.0817 -0.0705
  637ERGO    C1 8801  15.855   1.238   9.935 -0.0681 -0.0813 -0.0846
  637ERGO    C2 8802  15.938   1.233   9.600  0.1292 -0.1895 -0.0033
  638ERGO   ROH 8803  14.837   4.044  10.561  0.0403  0.2912  0.0950
  638ERGO    R1 8804  14.827   4.022  10.278 -0.0561  0.2558  0.1004
  638ERGO    R2 8805  14.867   4.239  10.110 -0.0774  0.2293  0.0577
  638ERGO    R3 8806  15.056   4.078  10.001 -0.1380  0.1847  0.0192
  638ERGO    R4 8807  14.944   4.223   9.774 -0.0287  0.3297  0.0640
  638ERGO    R5 8808  14.963   4.008   9.792 -0.1353  0.3158 -0.0241
  638ERGO    C1 8809  15.167   4.063   9.476 -0.0573  0.3462  0.0316
  638ERGO    C2 8810  15.448   4.260   9.273  0.0819  0.0852  0.2232
  639ERGO   ROH 8811   7.467  16.074  10.914 -0.0301  0.1908 -0.0273
  639ERGO    R1 8812   7.447  16.242  10.687 -0.1351  0.1479 -0.0502
  639ERGO    R2 8813   7.578  16.187  10.449 -0.1213  0.1839 -0.0496
  639ERGO    R3 8814   7.328  16.211  10.344 -0.1409  0.0357 -0.0388
  639ERGO    R4 8815   7.509  16.229  10.113 -0.1434  0.3757 -0.0226
  639ERGO    R5 8816   7.353  16.372  10.168 -0.2787  0.1950  0.0823
  639ERGO    C1 8817   7.234  16.275   9.819 -0.1748  0.3484  0.0034
  639ERGO    C2 8818   7.314  16.332   9.491  0.0057  0.1335  0.1264
  640ERGO   ROH 8819   8.632   8.424  10.731 -0.0248 -0.0952 -0.0769
  640ERGO    R1 8820   8.621   8.294  10.480  0.0571 -0.0990 -0.0801
  640ERGO    R2 8821   8.391   8.282  10.328  0.0477 -0.2781 -0.0654
  640ERGO    R3 8822   8.551   8.389  10.136 -0.0479 -0.1425 -0.0690
  640ERGO    R4 8823   8.333   8.260   9.988  0.0233 -0.2499 -0.0622
  640ERGO    R5 8824   8.547   8.228   9.959  0.0343 -0.1072 -0.0971
  640ERGO    C1 8825   8.450   8.347   9.609 -0.0806 -0.1062 -0.0636
  640ERGO    C2 8826   8.440   8.418   9.280 -0.3325 -0.0873 -0.0842
  641ERGO   ROH 8827   5.968   5.971   6.669  0.2297 -0.2028  0.0008
  641ERGO    R1 8828   6.086   5.989   6.926  0.0353  0.0542  0.0772
  641ERGO    R2 8829   5.968   6.126   7.135 -0.3437 -0.1019 -0.0219
  641ERGO    R3 8830   5.999   5.889   7.265 -0.0180 -0.0316  0.0372
  641ERGO    R4 8831   5.942   6.083   7.477 -0.1981 -0.0499 -0.0038
  641ERGO    R5 8832   6.112   5.947   7.468 -0.0345  0.1571 -0.0095
  641ERGO    C1 8833   5.957   5.836   7.798  0.1924  0.0464  0.0622
  641ERGO    C2 8834   5.930   5.817   8.122  0.1368  0.2533 -0.0383
  642ERGO   ROH 8835  13.372   0.471  10.666 -0.0063 -0.1730 -0.0320
  642ERGO    R1 8836  13.488   0.360  10.433  0.0452 -0.1742 -0.0082
  642ERGO    R2 8837  13.359   0.170  10.279  0.0535 -0.1398 -0.0714
  642ERGO    R3 8838  13.407   0.347  10.078  0.1481 -0.1235 -0.0317
  642ERGO    R4 8839  13.368   0.091   9.942 -0.1784 -0.0295 -0.1035
  642ERGO    R5 8840  13.538   0.224   9.920 -0.0525 -0.2023 -0.1331
  642ERGO    C1 8841  13.418   0.212   9.559 -0.2247  0.0502 -0.0850
  642ERGO    C2 8842  13.400   0.320   9.260 -0.1292 -0.1444  0.2320
  643ERGO   ROH 8843  13.986   6.159  10.667 -0.0411 -0.1383 -0.1473
  643ERGO    R1 8844  14.132   6.035  10.458  0.1247  0.1132 -0.1852
  643ERGO    R2 8845  14.013   5.866  10.272  0.3603 -0.0683 -0.1752
  643ERGO    R3 8846  14.125   6.037  10.094  0.0510  0.1344 -0.1838
  643ERGO    R4 8847  14.006   5.829   9.929  0.1044  0.1135 -0.1934
  643ERGO    R5 8848  14.212   5.897   9.922  0.0371  0.3078 -0.3344
  643ERGO    C1 8849  14.108   5.968   9.562 -0.3349  0.4098 -0.2120
  643ERGO    C2 8850  14.091   6.125   9.268  0.1613  0.1599  0.1061
  644ERGO   ROH 8851   2.705   9.752  11.270 -0.0037 -0.1853  0.0205
  644ERGO    R1 8852   2.685   9.647  11.008 -0.1446 -0.1153  0.0029
  644ERGO    R2 8853   2.443   9.610  10.880 -0.2014  0.0953  0.0532
  644ERGO    R3 8854   2.559   9.761  10.686 -0.1342  0.0475  0.0545
  644ERGO    R4 8855   2.398   9.565  10.540 -0.2101  0.1061  0.0520
  644ERGO    R5 8856   2.610   9.605  10.512 -0.1901  0.0218  0.0581
  644ERGO    C1 8857   2.481   9.680  10.161 -0.1520  0.0673  0.0525
  644ERGO    C2 8858   2.517   9.609   9.901  0.0832 -0.0605  0.0318
  645ERGO   ROH 8859  12.243  14.289  10.982  0.1647 -0.0194  0.0630
  645ERGO    R1 8860  12.142  14.327  10.720  0.0367 -0.0635  0.1057
  645ERGO    R2 8861  12.218  14.540  10.561 -0.1421 -0.0178  0.0821
  645ERGO    R3 8862  12.279  14.343  10.384 -0.1105  0.0217  0.0484
  645ERGO    R4 8863  12.285  14.590  10.225  0.0927  0.0824  0.1416
  645ERGO    R5 8864  12.170  14.410  10.181  0.0446  0.1438  0.0020
  645ERGO    C1 8865  12.381  14.434   9.864  0.2590  0.1780  0.1446
  645ERGO    C2 8866  12.374  14.390   9.579  0.2359 -0.0684 -0.0827
  646ERGO   ROH 8867   1.031  16.983  11.370  0.0657 -0.2163  0.0946
  646ERGO    R1 8868   1.173  16.971  11.125  0.1184 -0.1685  0.1211
  646ERGO    R2 8869   1.222  16.734  10.992 -0.0616 -0.1247 -0.0420
  646ERGO    R3 8870   1.105  16.864  10.784  0.1020  0.1373  0.0275
  646ERGO    R4 8871   1.251  16.642  10.660 -0.2052  0.0115 -0.0919
  646ERGO    R5 8872   1.267  16.853  10.608  0.0735  0.0126  0.0156
  646ERGO    C1 8873   1.158  16.712  10.272 -0.1353  0.3364 -0.0557
  646ERGO    C2 8874   1.287  16.679   9.946  0.2783 -0.1795  0.5222
  647ERGO   ROH 8875  12.793   2.903  10.278  0.0824 -0.0273 -0.0475
  647ERGO    R1 8876  12.716   3.057  10.052  0.0562 -0.0165 -0.0325
  647ERGO    R2 8877  12.846   3.040   9.810  0.0882  0.0621 -0.0265
  647ERGO    R3 8878  12.596   2.990   9.715  0.1126 -0.0060 -0.0531
  647ERGO    R4 8879  12.751   3.071   9.479  0.2129 -0.3709 -0.1091
  647ERGO    R5 8880  12.562   3.157   9.547  0.2119 -0.2306 -0.2987
  647ERGO    C1 8881  12.460   3.042   9.198  0.3087 -0.6869 -0.1824
  647ERGO    C2 8882  12.361   3.133   8.768  0.1847 -0.0864  0.0880
  648ERGO   ROH 8883  16.028   3.080  11.002 -0.0557 -0.3549 -0.1011
  648ERGO    R1 8884  16.036   3.067  10.719 -0.0647 -0.0870 -0.1165
  648ERGO    R2 8885  15.996   3.289  10.559  0.0227  0.0893  0.0920
  648ERGO    R3 8886  16.236   3.217  10.454 -0.0065  0.0901  0.0271
  648ERGO    R4 8887  16.084   3.323  10.227 -0.1180 -0.0646  0.0384
  648ERGO    R5 8888  16.182   3.129  10.238 -0.0718 -0.0323  0.0967
  648ERGO    C1 8889  16.361   3.275   9.934 -0.2270 -0.1534 -0.0536
  648ERGO    C2 8890  16.584   3.239   9.610  0.1784 -0.1067  0.3422
  649ERGO   ROH 8891  16.063  15.799  11.291 -0.0533  0.0983 -0.0332
  649ERGO    R1 8892  16.120  15.620  11.079  0.1083  0.1378 -0.0240
  649ERGO    R2 8893  15.968  15.610  10.849  0.0715 -0.0596  0.0080
  649ERGO    R3 8894  16.209  15.647  10.727  0.0086  0.2008 -0.0450
  649ERGO    R4 8895  16.029  15.561  10.512  0.1035 -0.2207  0.0360
  649ERGO    R5 8896  16.221  15.471  10.565  0.2436  0.0937  0.0829
  649ERGO    C1 8897  16.290  15.566  10.202  0.0629 -0.0701  0.0026
  649ERGO    C2 8898  16.234  15.532   9.889 -0.3180  0.2508 -0.0952
  650ERGO   ROH 8899  10.556   4.364  10.609 -0.3109 -0.3533 -0.1715
  650ERGO    R1 8900  10.567   4.365  10.326 -0.0947 -0.1312 -0.1667
  650ERGO    R2 8901  10.386   4.226  10.170  0.1128 -0.1333 -0.4122
  650ERGO    R3 8902  10.349   4.468  10.053  0.0447 -0.0662 -0.2548
  650ERGO    R4 8903  10.294   4.274   9.841  0.0861  0.0511 -0.3787
  650ERGO    R5 8904  10.434   4.440   9.831  0.0435  0.0960 -0.2781
  650ERGO    C1 8905  10.206   4.530   9.539  0.0066  0.2214 -0.2113
  650ERGO    C2 8906  10.140   4.624   9.156  0.0067  0.1407  0.0937
  651ERGO   ROH 8907  11.684  16.144  10.860 -0.2098 -0.0673  0.0492
  651ERGO    R1 8908  11.578  16.212  10.607 -0.2506 -0.1669  0.0390
  651ERGO    R2 8909  11.715  16.370  10.425 -0.4096  0.0220  0.0807
  651ERGO    R3 8910  11.671  16.160  10.259 -0.1260 -0.0154  0.0483
  651ERGO    R4 8911  11.758  16.376  10.082 -0.1777  0.0566  0.1087
  651ERGO    R5 8912  11.577  16.257  10.062 -0.0707 -0.0908 -0.0166
  651ERGO    C1 8913  11.742  16.181   9.727  0.2236  0.0414  0.0947
  651ERGO    C2 8914  11.713  16.186   9.356  0.0488  0.1315  0.1065
  652ERGO   ROH 8915   0.348   5.595  11.025  0.0399  0.2606 -0.0559
  652ERGO    R1 8916   0.234   5.478  10.794  0.2245 -0.0163 -0.0115
  652ERGO    R2 8917   0.105   5.627  10.600 -0.1478 -0.3103  0.0012
  652ERGO    R3 8918   0.281   5.504  10.434  0.0779  0.0399 -0.0278
  652ERGO    R4 8919   0.104   5.656  10.256 -0.2476 -0.2856  0.0033
  652ERGO    R5 8920   0.150   5.443  10.243  0.1672 -0.2045 -0.0159
  652ERGO    C1 8921   0.269   5.558   9.899 -0.0938  0.0575 -0.0228
  652ERGO    C2 8922   0.204   5.755   9.553  0.3218 -0.4232  0.0529
  653ERGO   ROH 8923  14.193  11.736  10.869 -0.0081 -0.0773 -0.0510
  653ERGO    R1 8924  14.226  11.823  10.602 -0.0041 -0.0992 -0.0575
  653ERGO    R2 8925  14.340  11.664  10.407  0.0729 -0.0845 -0.0229
  653ERGO    R3 8926  14.109  11.717  10.274  0.0720 -0.1779 -0.0601
  653ERGO    R4 8927  14.303  11.657  10.063  0.1276 -0.1277 -0.0281
  653ERGO    R5 8928  14.179  11.835  10.078  0.0606 -0.1689 -0.0606
  653ERGO    C1 8929  14.065  11.704   9.738  0.1586 -0.2406 -0.0661
  653ERGO    C2 8930  13.893  11.824   9.435 -0.1161 -0.0735  0.2114
  654ERGO   ROH 8931   7.839  12.844  10.935  0.0848 -0.0413 -0.2048
  654ERGO    R1 8932   7.750  12.927  10.679 -0.0803 -0.0562 -0.1552
  654ERGO    R2 8933   7.905  12.898  10.452 -0.0646  0.2792 -0.1976
  654ERGO    R3 8934   7.685  12.769  10.358  0.1122 -0.0153 -0.2142
  654ERGO    R4 8935   7.797  12.907  10.124 -0.1286  0.2382 -0.1766
  654ERGO    R5 8936   7.592  12.920  10.197 -0.1391 -0.0958 -0.1431
  654ERGO    C1 8937   7.527  12.790   9.845  0.0001 -0.0619 -0.1800
  654ERGO    C2 8938   7.415  12.752   9.410 -0.1782 -0.0760  0.1089
  655ERGO   ROH 8939  15.882   4.142  11.052 -0.0273 -0.1602 -0.0358
  655ERGO    R1 8940  15.914   4.078  10.778  0.0669 -0.1557 -0.0265
  655ERGO    R2 8941  15.804   4.230  10.575 -0.0295 -0.2601 -0.0561
  655ERGO    R3 8942  16.060   4.236  10.485 -0.0184 -0.0563 -0.0152
  655ERGO    R4 8943  15.900   4.166  10.250  0.0870 -0.2882 -0.0163
  655ERGO    R5 8944  16.072   4.056  10.327  0.1753 -0.1022  0.0510
  655ERGO    C1 8945  16.197   4.134   9.975  0.1652 -0.1134  0.0454
  655ERGO    C2 8946  16.348   4.072   9.610  0.1051  0.0476 -0.4289
  656ERGO   ROH 8947   1.602  14.856  11.376 -0.1346 -0.1517 -0.0047
  656ERGO    R1 8948   1.669  14.972  11.127  0.1058 -0.0873  0.0870
  656ERGO    R2 8949   1.915  14.931  11.005  0.0533 -0.4488  0.0882
  656ERGO    R3 8950   1.761  14.850  10.796 -0.0779 -0.0169  0.0096
  656ERGO    R4 8951   2.005  14.953  10.672  0.1309 -0.3761  0.1141
  656ERGO    R5 8952   1.801  15.013  10.626  0.2416  0.0356  0.1305
  656ERGO    C1 8953   1.913  14.891  10.282  0.0530  0.0716  0.0554
  656ERGO    C2 8954   1.881  14.916   9.971  0.2195 -0.1837 -0.0151
  657ERGO   ROH 8955   9.970  15.248  10.766 -0.2329  0.2364  0.0055
  657ERGO    R1 8956  10.038  15.302  10.496 -0.1303  0.2441  0.0319
  657ERGO    R2 8957  10.299  15.297  10.405 -0.1017  0.1400  0.1050
  657ERGO    R3 8958  10.198  15.122  10.223 -0.1313  0.2089  0.0562
  657ERGO    R4 8959  10.384  15.290  10.070 -0.1626  0.2563  0.0873
  657ERGO    R5 8960  10.174  15.253  10.023 -0.1648  0.2759  0.1084
  657ERGO    C1 8961  10.339  15.123   9.704 -0.2259  0.3888  0.0311
  657ERGO    C2 8962  10.567  15.219   9.495  0.3846 -0.4476 -0.0122
  658ERGO   ROH 8963   2.053   1.582  11.406  0.2468 -0.0510  0.1220
  658ERGO    R1 8964   2.219   1.559  11.178  0.1872 -0.2398  0.0965
  658ERGO    R2 8965   2.190   1.355  10.993 -0.1478 -0.1472  0.0423
  658ERGO    R3 8966   2.173   1.562  10.817  0.1466 -0.0668  0.1012
  658ERGO    R4 8967   2.287   1.340  10.662 -0.2894 -0.2374  0.0039
  658ERGO    R5 8968   2.370   1.540  10.682  0.0703 -0.3786  0.0275
  658ERGO    C1 8969   2.328   1.524  10.303 -0.0956 -0.2144  0.0368
  658ERGO    C2 8970   2.227   1.500   9.880  0.1790 -0.0437 -0.1498
  659ERGO   ROH 8971   3.534   8.091  11.184 -0.0548 -0.0410  0.0674
  659ERGO    R1 8972   3.640   8.038  10.927 -0.1153 -0.2656  0.0869
  659ERGO    R2 8973   3.486   7.937  10.721 -0.3283  0.1563  0.0309
  659ERGO    R3 8974   3.579   8.155  10.587  0.2653 -0.0433  0.0887
  659ERGO    R4 8975   3.498   7.967  10.377 -0.5081  0.3047  0.0357
  659ERGO    R5 8976   3.693   8.064  10.397 -0.1629 -0.3135 -0.0547
  659ERGO    C1 8977   3.593   8.189  10.051 -0.0555  0.2037  0.0928
  659ERGO    C2 8978   3.427   8.191   9.722 -0.3555 -0.0095 -0.0396
  660ERGO   ROH 8979  12.150  16.073  10.807  0.1891  0.1879  0.0135
  660ERGO    R1 8980  12.044  16.060  10.545  0.1178  0.1974  0.0419
  660ERGO    R2 8981  12.134  16.223  10.340  0.1920  0.0775 -0.0219
  660ERGO    R3 8982  12.172  15.986  10.212 -0.0144  0.0141  0.0304
  660ERGO    R4 8983  12.140  16.182   9.997  0.1906 -0.0005 -0.0129
  660ERGO    R5 8984  12.027  15.997  10.022  0.0156  0.1084  0.0132
  660ERGO    C1 8985  12.179  15.935   9.677 -0.0039 -0.1052  0.0414
  660ERGO    C2 8986  12.128  15.922   9.293  0.2323  0.3118 -0.0326
  661ERGO   ROH 8987   0.145   6.650  10.958  0.0871  0.1237 -0.1330
  661ERGO    R1 8988   0.088   6.538  10.704  0.3658 -0.0258 -0.1339
  661ERGO    R2 8989  -0.093   6.652  10.528  0.1014 -0.4537 -0.1520
  661ERGO    R3 8990   0.118   6.644  10.357  0.1455  0.0358 -0.1355
  661ERGO    R4 8991  -0.113   6.706  10.188  0.0116 -0.4365 -0.1440
  661ERGO    R5 8992   0.029   6.544  10.158  0.3767 -0.1292 -0.1606
  661ERGO    C1 8993   0.073   6.730   9.828  0.0006  0.0331 -0.1237
  661ERGO    C2 8994   0.072   6.880   9.478 -0.2943 -0.1480  0.2044
  662ERGO   ROH 8995  10.897   0.500  10.403 -0.0250 -0.1952 -0.0501
  662ERGO    R1 8996  10.922   0.508  10.121  0.0834 -0.0429 -0.0377
  662ERGO    R2 8997  11.157   0.582   9.995  0.1769 -0.1054  0.0903
  662ERGO    R3 8998  11.125   0.343   9.869  0.0791 -0.0148 -0.0581
  662ERGO    R4 8999  11.171   0.535   9.653  0.0879  0.1052  0.0570
  662ERGO    R5 9000  11.004   0.396   9.669  0.0533  0.1459  0.0024
  662ERGO    C1 9001  11.150   0.284   9.335 -0.0558  0.3128 -0.1016
  662ERGO    C2 9002  11.208   0.185   9.054  0.2527  0.0478  0.0774
  663ERGO   ROH 9003   5.133  16.006  11.220  0.1818  0.2268 -0.1115
  663ERGO    R1 9004   5.067  16.131  10.975  0.0471  0.0766 -0.1540
  663ERGO    R2 9005   5.238  16.133  10.758  0.0246  0.1427 -0.1731
  663ERGO    R3 9006   5.024  16.027  10.628  0.1013 -0.0957 -0.1103
  663ERGO    R4 9007   5.170  16.177  10.422 -0.3742  0.4855 -0.0562
  663ERGO    R5 9008   4.959  16.198  10.473 -0.3792  0.0072  0.1813
  663ERGO    C1 9009   4.930  16.103  10.104 -0.5343  0.4617  0.0708
  663ERGO    C2 9010   4.867  16.142   9.734  0.1361 -0.0918  0.1483
  664ERGO   ROH 9011   9.905  16.204  10.778  0.0397  0.0429 -0.0941
  664ERGO    R1 9012   9.759  16.115  10.552 -0.0408 -0.0040 -0.0261
  664ERGO    R2 9013   9.697  16.281  10.340 -0.2464 -0.0037  0.0205
  664ERGO    R3 9014   9.818  16.086  10.194 -0.2181  0.0754 -0.0600
  664ERGO    R4 9015   9.727  16.281   9.995 -0.1388  0.1797  0.0291
  664ERGO    R5 9016   9.684  16.067   9.997 -0.1504  0.1913 -0.1085
  664ERGO    C1 9017   9.857  16.097   9.658 -0.0494  0.3608 -0.0416
  664ERGO    C2 9018  10.149  16.044   9.555  0.0415  0.1921 -0.0976
  665ERGO   ROH 9019   8.386  11.958  10.832 -0.1218 -0.2429  0.0519
  665ERGO    R1 9020   8.498  12.012  10.578 -0.1147  0.0349  0.1100
  665ERGO    R2 9021   8.549  11.813  10.393  0.2074  0.1897  0.0226
  665ERGO    R3 9022   8.399  11.970  10.231  0.0422  0.0722  0.0601
  665ERGO    R4 9023   8.591  11.841  10.051  0.2339  0.3781  0.0411
  665ERGO    R5 9024   8.554  12.055  10.070 -0.0313  0.3276  0.1206
  665ERGO    C1 9025   8.474  12.006   9.700  0.0942  0.3774  0.0868
  665ERGO    C2 9026   8.496  11.867   9.454  0.3399  0.1128 -0.2527
  666ERGO   ROH 9027   9.847  14.290  10.511  0.1620  0.1272  0.0296
  666ERGO    R1 9028   9.876  14.166  10.258  0.0422  0.1553  0.0005
  666ERGO    R2 9029   9.733  14.247  10.035 -0.0144  0.2261  0.0566
  666ERGO    R3 9030   9.981  14.266   9.924 -0.0459  0.1774 -0.0197
  666ERGO    R4 9031   9.796  14.317   9.703 -0.1022  0.0360 -0.0003
  666ERGO    R5 9032   9.956  14.170   9.707 -0.0942  0.0508  0.0439
  666ERGO    C1 9033  10.064  14.376   9.405 -0.1828 -0.1203 -0.1050
  666ERGO    C2 9034  10.263  14.371   9.098 -0.0605 -0.3886  0.1775
  667ERGO   ROH 9035   2.749  12.483  11.388 -0.1249 -0.1421  0.0731
  667ERGO    R1 9036   2.602  12.453  11.148 -0.0102 -0.2164  0.0119
  667ERGO    R2 9037   2.574  12.657  10.963 -0.2667 -0.1396  0.1376
  667ERGO    R3 9038   2.671  12.470  10.791  0.0679  0.1153  0.0387
  667ERGO    R4 9039   2.561  12.680  10.619 -0.5212 -0.0711  0.1496
  667ERGO    R5 9040   2.513  12.468  10.611 -0.0438 -0.1946  0.1286
  667ERGO    C1 9041   2.644  12.519  10.257 -0.3552  0.2080  0.0636
  667ERGO    C2 9042   2.698  12.667   9.941  0.1261  0.0345  0.0678
  668ERGO   ROH 9043   6.107   5.567  10.874 -0.0294  0.3678  0.0354
  668ERGO    R1 9044   6.198   5.508  10.613 -0.0525  0.1114  0.0823
  668ERGO    R2 9045   6.053   5.351  10.437 -0.1706  0.1110  0.1743
  668ERGO    R3 9046   6.081   5.566  10.273  0.0289 -0.0194  0.0324
  668ERGO    R4 9047   6.018   5.344  10.093 -0.3342 -0.0425  0.1928
  668ERGO    R5 9048   6.188   5.479  10.077 -0.1702 -0.2677  0.0333
  668ERGO    C1 9049   6.024   5.541   9.739 -0.2422 -0.2543  0.0703
  668ERGO    C2 9050   5.992   5.618   9.363  0.0561  0.3101 -0.6077
  669ERGO   ROH 9051  13.303   9.449  10.603 -0.1399  0.0138  0.0564
  669ERGO    R1 9052  13.483   9.354  10.406 -0.1170  0.1196  0.0253
  669ERGO    R2 9053  13.461   9.102  10.294  0.0789  0.0613  0.1134
  669ERGO    R3 9054  13.462   9.242  10.061 -0.1324 -0.0097  0.0678
  669ERGO    R4 9055  13.460   8.960   9.979  0.1290 -0.0388  0.1578
  669ERGO    R5 9056  13.602   9.113   9.915 -0.0441  0.0863  0.0674
  669ERGO    C1 9057  13.461   9.008   9.576 -0.0401 -0.1639  0.1408
  669ERGO    C2 9058  13.228   8.807   9.247 -0.2290 -0.2485  0.2007
  670ERGO   ROH 9059  12.625   1.598  10.434  0.0209 -0.1048  0.0036
  670ERGO    R1 9060  12.753   1.695  10.201  0.1103 -0.0798  0.0627
  670ERGO    R2 9061  12.984   1.581  10.100  0.1316 -0.0898  0.1200
  670ERGO    R3 9062  12.838   1.564   9.872  0.2046 -0.0340  0.0688
  670ERGO    R4 9063  13.112   1.503   9.789  0.2317  0.0111  0.1353
  670ERGO    R5 9064  12.981   1.654   9.702  0.2489  0.0254  0.1391
  670ERGO    C1 9065  13.050   1.442   9.393  0.3586  0.1221  0.0962
  670ERGO    C2 9066  13.252   1.281   9.111 -0.0007  0.0986 -0.1588
  671ERGO   ROH 9067  11.366   3.009  10.311 -0.0853  0.2379 -0.0644
  671ERGO    R1 9068  11.487   3.015  10.055 -0.0589  0.4092 -0.0503
  671ERGO    R2 9069  11.462   2.807   9.874  0.4392  0.2621  0.0299
  671ERGO    R3 9070  11.375   3.005   9.709 -0.0007  0.0043 -0.0615
  671ERGO    R4 9071  11.520   2.820   9.534  0.5618  0.3210  0.0529
  671ERGO    R5 9072  11.553   3.034   9.553  0.0024  0.4241  0.0135
  671ERGO    C1 9073  11.471   3.013   9.181  0.2202  0.1132 -0.0196
  671ERGO    C2 9074  11.322   2.970   8.854  0.0945  0.0047 -0.2191
  672ERGO   ROH 9075   1.372  13.087  11.397 -0.3299  0.2300  0.1093
  672ERGO    R1 9076   1.239  13.027  11.154 -0.0823  0.0031  0.0256
  672ERGO    R2 9077   1.100  13.216  11.009 -0.3245 -0.2304 -0.0501
  672ERGO    R3 9078   1.261  13.133  10.807 -0.0552  0.0490  0.0400
  672ERGO    R4 9079   1.061  13.304  10.677 -0.2342 -0.2110 -0.0557
  672ERGO    R5 9080   1.112  13.100  10.622  0.1108 -0.1342 -0.0694
  672ERGO    C1 9081   1.190  13.277  10.294  0.0712  0.0625  0.0256
  672ERGO    C2 9082   1.161  13.313   9.964  0.1547  0.2899 -0.0213
  673ERGO   ROH 9083   8.175  15.500  10.820  0.1166 -0.2025  0.0670
  673ERGO    R1 9084   8.136  15.619  10.566 -0.1910 -0.2913  0.0694
  673ERGO    R2 9085   8.345  15.671  10.392 -0.2894  0.3719  0.1287
  673ERGO    R3 9086   8.194  15.526  10.219  0.1881 -0.0931  0.0727
  673ERGO    R4 9087   8.339  15.715  10.049 -0.3726  0.4361  0.1374
  673ERGO    R5 9088   8.124  15.685  10.054 -0.3005 -0.2610  0.0982
  673ERGO    C1 9089   8.194  15.605   9.687  0.0272  0.0369  0.0897
  673ERGO    C2 9090   8.125  15.790   9.421  0.3166  0.2711 -0.0617
  674ERGO   ROH 9091   8.406  14.941   6.499  0.0181  0.1670  0.0664
  674ERGO    R1 9092   8.486  15.095   6.723  0.1364  0.0020  0.1390
  674ERGO    R2 9093   8.309  15.179   6.917  0.1682  0.1887  0.0860
  674ERGO    R3 9094   8.484  15.056   7.085 -0.0602 -0.0922  0.1298
  674ERGO    R4 9095   8.355  15.262   7.249  0.2986  0.2017  0.0659
  674ERGO    R5 9096   8.569  15.234   7.221  0.2594 -0.2009  0.0847
  674ERGO    C1 9097   8.546  15.195   7.600  0.1602 -0.0545  0.0953
  674ERGO    C2 9098   8.447  15.280   7.898  0.0698 -0.0990  0.3442
  675loPI    C1 9099   2.469   1.112   6.744  0.1001  0.1791 -0.0569
  675loPI    C2 9100   2.801   1.105   6.521  0.0327 -0.0958 -0.1520
  675loPI    C3 9101   2.450   0.999   6.361 -0.0334 -0.1965  0.0563
  675loPI   PO4 9102   2.470   1.069   6.920  0.0766 -0.3781  0.0857
  675loPI   GL1 9103   2.289   1.218   7.289  0.1367  0.0084  0.1181
  675loPI   GL2 9104   2.123   0.948   7.418 -0.1990  0.0303 -0.0047
  675loPI   C1A 9105   2.048   1.473   7.511  0.0472 -0.0048  0.1495
  675loPI   C2A 9106   2.001   1.579   7.845  0.1360 -0.1623 -0.1258
  675loPI   C3A 9107   2.022   1.586   8.310  0.2368  0.0117  0.0506
  675loPI   C4A 9108   2.146   1.791   8.726  0.0293  0.0742 -0.0983
  675loPI   C5A 9109   2.212   2.078   9.004  0.0932  0.0072  0.0475
  675loPI   C6A 9110   2.328   2.206   9.331  0.0580  0.0934  0.2579
  675loPI   C1B 9111   1.947   1.050   7.870  0.1305 -0.1220  0.4986
  675loPI   C2B 9112   1.840   1.109   8.176  0.1372 -0.0318 -0.1240
  675loPI   C3B 9113   1.937   1.241   8.690  0.1608 -0.0084  0.3270
  675loPI   C4B 9114   1.938   1.060   9.026  0.0167 -0.0911 -0.0204
  676loPI    C1 9115  12.380  11.777   6.170  0.0735  0.1460 -0.1213
  676loPI    C2 9116  12.274  11.438   5.986 -0.0121  0.1589 -0.0966
  676loPI    C3 9117  12.335  11.771   5.773  0.2586  0.0830 -0.1421
  676loPI   PO4 9118  12.585  11.695   6.331  0.0925  0.0299  0.4406
  676loPI   GL1 9119  12.529  11.568   6.704  0.0572 -0.0919 -0.1191
  676loPI   GL2 9120  12.421  11.730   6.817  0.1465  0.0267  0.0948
  676loPI   C1A 9121  12.598  11.391   7.189 -0.1203  0.3007  0.0289
  676loPI   C2A 9122  12.491  11.447   7.598 -0.0675  0.1059 -0.1417
  676loPI   C3A 9123  12.639  11.268   8.046 -0.2293  0.0162 -0.1155
  676loPI   C4A 9124  12.548  11.163   8.502 -0.1981  0.2565 -0.1149
  676loPI   C5A 9125  12.536  10.926   8.773  0.0392 -0.0130 -0.2996
  676loPI   C6A 9126  12.755  10.595   8.907 -0.2121  0.1091 -0.1702
  676loPI   C1B 9127  12.114  11.604   7.122  0.4154  0.2110 -0.0553
  676loPI   C2B 9128  12.009  11.564   7.519  0.3963  0.0571 -0.0516
  676loPI   C3B 9129  11.942  11.410   7.929  0.0615 -0.0324  0.2007
  676loPI   C4B 9130  11.755  11.509   8.255 -0.0147  0.1202  0.2151
  677loPI    C1 9131   6.776   3.342   5.946  0.1821  0.0229  0.0031
  677loPI    C2 9132   6.402   3.424   5.830  0.2216  0.0322 -0.1185
  677loPI    C3 9133   6.712   3.560   5.617  0.2913 -0.1864 -0.1591
  677loPI   PO4 9134   6.697   3.190   6.150 -0.2183 -0.2183  0.1175
  677loPI   GL1 9135   6.798   3.293   6.496  0.1083  0.0816 -0.1382
  677loPI   GL2 9136   7.133   3.377   6.568  0.0439 -0.1932  0.3313
  677loPI   C1A 9137   6.818   3.324   7.001 -0.0446 -0.0859  0.1579
  677loPI   C2A 9138   6.999   3.394   7.316  0.1119 -0.3632  0.1269
  677loPI   C3A 9139   6.906   3.402   7.765 -0.0212 -0.0455 -0.0125
  677loPI   C4A 9140   6.992   3.355   8.225  0.1832 -0.2357  0.1346
  677loPI   C5A 9141   7.018   3.190   8.635 -0.0453 -0.2920  0.4312
  677loPI   C6A 9142   7.318   3.179   8.843  0.0283 -0.2023  0.2444
  677loPI   C1B 9143   7.277   3.535   6.912 -0.4585  0.0024  0.1260
  677loPI   C2B 9144   7.426   3.609   7.228 -0.1619 -0.1307  0.1313
  677loPI   C3B 9145   7.410   3.599   7.584  0.0286 -0.3058  0.1092
  677loPI   C4B 9146   7.416   3.519   8.034  0.0602  0.0850  0.1020
  678loPI    C1 9147  16.632   9.853   6.353 -0.2824 -0.1407  0.0638
  678loPI    C2 9148  16.986   9.892   6.171 -0.3662  0.2878 -0.0198
  678loPI    C3 9149  16.654   9.841   5.954 -0.3317 -0.3958  0.0677
  678loPI   PO4 9150  16.566  10.034   6.559 -0.0771  0.1433  0.0897
  678loPI   GL1 9151  16.394  10.037   6.985 -0.3383 -0.0877  0.1329
  678loPI   GL2 9152  16.646   9.875   7.187 -0.1788  0.0768  0.1134
  678loPI   C1A 9153  16.228   9.806   7.360  0.0837  0.0577 -0.0935
  678loPI   C2A 9154  16.083   9.821   7.699 -0.1106  0.1715 -0.0898
  678loPI   C3A 9155  15.981   9.744   8.079  0.1068 -0.1732  0.0055
  678loPI   C4A 9156  15.978   9.800   8.476  0.0852  0.0202 -0.0362
  678loPI   C5A 9157  15.847   9.860   8.862  0.1473  0.1405  0.1242
  678loPI   C6A 9158  15.922  10.114   9.122 -0.0211 -0.0556  0.1632
  678loPI   C1B 9159  16.623   9.975   7.671 -0.0365 -0.1192 -0.1465
  678loPI   C2B 9160  16.656  10.036   8.105 -0.1990 -0.4204  0.1402
  678loPI   C3B 9161  16.462  10.079   8.470  0.0339 -0.1444  0.0841
  678loPI   C4B 9162  16.376  10.089   8.868  0.1724 -0.0023 -0.2455
  679loPI    C1 9163   8.426  15.821   5.771 -0.0199  0.0019 -0.1032
  679loPI    C2 9164   8.446  15.579   5.454  0.0752 -0.0632 -0.0481
  679loPI    C3 9165   8.119  15.802   5.515  0.1021  0.0352 -0.2531
  679loPI   PO4 9166   8.614  15.707   5.940  0.1196 -0.0772  0.0733
  679loPI   GL1 9167   8.650  15.582   6.386  0.1506 -0.2336 -0.0367
  679loPI   GL2 9168   8.826  15.394   6.517  0.0167 -0.4424 -0.0729
  679loPI   C1A 9169   8.451  15.643   6.781 -0.0981 -0.2790  0.1389
  679loPI   C2A 9170   8.565  15.754   7.238 -0.0406  0.0862 -0.0149
  679loPI   C3A 9171   8.609  15.831   7.629  0.1904 -0.1912 -0.1086
  679loPI   C4A 9172   8.652  15.756   8.009  0.1246  0.1032 -0.1844
  679loPI   C5A 9173   8.726  15.626   8.453  0.2531  0.0136  0.2410
  679loPI   C6A 9174   8.948  15.766   8.861  0.1054 -0.1990 -0.1156
  679loPI   C1B 9175   8.896  15.472   6.925  0.0426  0.2097  0.4063
  679loPI   C2B 9176   9.058  15.394   7.344  0.3676 -0.0832  0.0135
  679loPI   C3B 9177   8.996  15.495   7.770 -0.1698  0.0140  0.1121
  679loPI   C4B 9178   9.000  15.360   8.095 -0.0801  0.2120  0.2445
  680loPI    C1 9179   2.571  10.504   6.636 -0.1161  0.0687 -0.2238
  680loPI    C2 9180   2.709  10.755   6.915 -0.2358 -0.0708 -0.0357
  680loPI    C3 9181   2.686  10.872   6.533 -0.0998  0.1328  0.0170
  680loPI   PO4 9182   2.422  10.374   6.762  0.0220 -0.0902 -0.3027
  680loPI   GL1 9183   2.302  10.310   7.258 -0.1617  0.0597 -0.3844
  680loPI   GL2 9184   1.915  10.280   7.277 -0.0051  0.0176  0.1929
  680loPI   C1A 9185   2.313  10.240   7.622 -0.2738  0.0313  0.1458
  680loPI   C2A 9186   2.226  10.251   7.945 -0.0348  0.2434  0.0492
  680loPI   C3A 9187   2.240  10.229   8.370 -0.0345  0.0706 -0.1183
  680loPI   C4A 9188   2.262  10.331   8.779 -0.1778 -0.3241  0.0767
  680loPI   C5A 9189   2.385  10.317   9.253 -0.0919  0.0362 -0.0387
  680loPI   C6A 9190   2.801  10.290   9.448 -0.1654 -0.0590  0.1990
  680loPI   C1B 9191   1.806  10.324   7.701  0.0517 -0.0649  0.0097
  680loPI   C2B 9192   1.771  10.356   8.154 -0.1268 -0.1215  0.1395
  680loPI   C3B 9193   1.601  10.485   8.566  0.2698 -0.1933  0.0202
  680loPI   C4B 9194   1.406  10.775   8.791  0.0950 -0.0879 -0.0929
  681loPI    C1 9195   1.611   2.639   6.214 -0.3839 -0.0874 -0.1748
  681loPI    C2 9196   1.492   2.995   6.077  0.0666  0.1090 -0.0714
  681loPI    C3 9197   1.705   2.752   5.842  0.0376  0.0463 -0.0331
  681loPI   PO4 9198   1.674   2.750   6.512  0.4521  0.0357 -0.2097
  681loPI   GL1 9199   1.419   2.962   6.855  0.1358  0.1069 -0.1627
  681loPI   GL2 9200   1.106   2.941   6.969 -0.0196  0.2468  0.0395
  681loPI   C1A 9201   1.552   2.829   7.337  0.1114  0.2155  0.2411
  681loPI   C2A 9202   1.488   2.765   7.879  0.1601 -0.1750  0.1440
  681loPI   C3A 9203   1.335   2.770   8.350 -0.0594  0.1136  0.1901
  681loPI   C4A 9204   1.423   2.693   8.694 -0.0229 -0.2085  0.0705
  681loPI   C5A 9205   1.649   2.914   8.997 -0.0188  0.2733  0.1704
  681loPI   C6A 9206   2.039   3.141   9.039 -0.3482  0.2137 -0.0504
  681loPI   C1B 9207   1.101   2.930   7.500  0.0032 -0.2697  0.0861
  681loPI   C2B 9208   1.074   3.041   7.927 -0.1395  0.1504  0.1790
  681loPI   C3B 9209   0.950   3.145   8.285  0.0962 -0.0694 -0.1534
  681loPI   C4B 9210   0.821   3.232   8.684 -0.0734  0.2070  0.2378
  682loPI    C1 9211   3.035   1.771   6.709 -0.3282 -0.2743  0.0089
  682loPI    C2 9212   3.199   1.408   6.671 -0.1365 -0.1859 -0.0207
  682loPI    C3 9213   3.087   1.612   6.346 -0.1716 -0.1854 -0.0084
  682loPI   PO4 9214   3.194   1.928   6.798  0.0943  0.0459 -0.1512
  682loPI   GL1 9215   3.206   2.223   7.031 -0.0720  0.0563  0.0245
  682loPI   GL2 9216   2.970   2.405   6.995  0.0728  0.0926  0.2095
  682loPI   C1A 9217   3.219   2.351   7.539 -0.1735 -0.1301  0.0465
  682loPI   C2A 9218   3.278   2.383   7.995  0.0333  0.3462 -0.1681
  682loPI   C3A 9219   3.307   2.367   8.431  0.4258 -0.1449 -0.4132
  682loPI   C4A 9220   3.116   2.304   8.777  0.0848  0.0789  0.0116
  682loPI   C5A 9221   3.021   1.936   8.958  0.0190  0.1404 -0.0812
  682loPI   C6A 9222   2.616   1.796   8.999  0.1143 -0.0073  0.0491
  682loPI   C1B 9223   2.770   2.183   7.403  0.2081 -0.0599  0.0944
  682loPI   C2B 9224   2.804   2.282   7.864  0.0398  0.1441 -0.0850
  682loPI   C3B 9225   2.926   2.090   8.275  0.0913 -0.0641  0.1957
  682loPI   C4B 9226   3.070   1.823   8.444 -0.1350 -0.1882  0.0517
  683loPI    C1 9227  11.392  11.970   5.995  0.0891 -0.1755  0.1814
  683loPI    C2 9228  11.105  11.817   5.763  0.0285  0.1621  0.0280
  683loPI    C3 9229  11.332  11.575   5.986 -0.1449 -0.1364 -0.1137
  683loPI   PO4 9230  11.253  12.132   6.208  0.0191  0.0073 -0.0594
  683loPI   GL1 9231  11.386  12.108   6.670  0.1496  0.2998 -0.3265
  683loPI   GL2 9232  11.371  12.437   6.706  0.0560 -0.2577 -0.0233
  683loPI   C1A 9233  11.467  12.210   7.091  0.0478  0.2948 -0.0036
  683loPI   C2A 9234  11.466  12.176   7.499  0.1770 -0.1390 -0.2891
  683loPI   C3A 9235  11.581  12.355   7.826 -0.1382  0.0846 -0.0917
  683loPI   C4A 9236  11.426  12.420   8.261 -0.0987 -0.0243 -0.1394
  683loPI   C5A 9237  11.069  12.404   8.502  0.1660  0.1298  0.1028
  683loPI   C6A 9238  10.639  12.340   8.601 -0.0336  0.4521 -0.0343
  683loPI   C1B 9239  11.078  12.519   6.939  0.1479 -0.5304  0.0674
  683loPI   C2B 9240  11.051  12.572   7.425 -0.0635  0.3075  0.3148
  683loPI   C3B 9241  11.149  12.736   7.865 -0.0728 -0.0594 -0.1226
  683loPI   C4B 9242  11.104  12.874   8.308 -0.0330  0.0518  0.0354
  684loPI    C1 9243   7.043   8.624   5.786  0.1892 -0.0940 -0.2629
  684loPI    C2 9244   6.791   8.807   5.536  0.1276  0.0734 -0.0807
  684loPI    C3 9245   6.799   8.408   5.555  0.0669  0.0618 -0.2805
  684loPI   PO4 9246   6.953   8.625   6.028 -0.1419 -0.0834  0.3144
  684loPI   GL1 9247   7.112   8.522   6.415  0.0770 -0.3085  0.1316
  684loPI   GL2 9248   7.392   8.418   6.648  0.0251  0.3128  0.1765
  684loPI   C1A 9249   6.962   8.658   6.865  0.0512 -0.0149  0.2128
  684loPI   C2A 9250   6.916   9.002   7.162 -0.4553  0.0808  0.0978
  684loPI   C3A 9251   6.971   9.031   7.660 -0.1214 -0.1778  0.0107
  684loPI   C4A 9252   6.910   8.991   8.048 -0.1420  0.2660  0.0453
  684loPI   C5A 9253   6.924   8.916   8.534 -0.3142 -0.0323  0.0422
  684loPI   C6A 9254   6.692   8.734   8.736  0.1916 -0.2684 -0.1732
  684loPI   C1B 9255   7.721   8.387   7.008  0.1522  0.0651 -0.0842
  684loPI   C2B 9256   7.627   8.314   7.444 -0.0363  0.1733  0.2291
  684loPI   C3B 9257   7.607   8.396   7.935 -0.0462  0.1452 -0.0001
  684loPI   C4B 9258   7.817   8.293   8.365  0.0652 -0.1978  0.0530
  685loPI    C1 9259   7.982  13.495   6.188 -0.0592 -0.1587 -0.2052
  685loPI    C2 9260   8.113  13.394   6.552 -0.0569  0.0795 -0.1381
  685loPI    C3 9261   7.952  13.117   6.313 -0.0250 -0.0856  0.0297
  685loPI   PO4 9262   7.852  13.678   6.265 -0.2803  0.0260 -0.1391
  685loPI   GL1 9263   7.829  13.769   6.749 -0.2753  0.0047  0.0778
  685loPI   GL2 9264   7.492  13.662   6.915  0.1634  0.2585 -0.0003
  685loPI   C1A 9265   8.026  13.752   7.149  0.0089 -0.0031  0.1801
  685loPI   C2A 9266   7.993  13.775   7.589  0.1145  0.0766 -0.5640
  685loPI   C3A 9267   8.047  13.667   8.027 -0.2428  0.0497 -0.1935
  685loPI   C4A 9268   8.101  13.790   8.407  0.1347 -0.1207  0.0066
  685loPI   C5A 9269   8.061  14.112   8.682  0.1467  0.3294  0.0340
  685loPI   C6A 9270   8.125  14.386   9.019  0.1124 -0.0137 -0.0224
  685loPI   C1B 9271   7.587  13.587   7.329 -0.0724 -0.0230  0.0798
  685loPI   C2B 9272   7.586  13.530   7.882 -0.0354 -0.3996  0.1076
  685loPI   C3B 9273   7.588  13.706   8.223  0.0762 -0.1162  0.0013
  685loPI   C4B 9274   7.604  13.861   8.612 -0.2453  0.1288  0.3182
  686loPI    C1 9275   3.017  16.253   6.745 -0.0842 -0.2145 -0.0313
  686loPI    C2 9276   2.706  16.178   6.504 -0.0053  0.1928 -0.2700
  686loPI    C3 9277   3.061  16.276   6.348  0.1597  0.0489  0.0075
  686loPI   PO4 9278   2.887  16.171   6.952 -0.0410 -0.1271  0.2496
  686loPI   GL1 9279   2.821  16.193   7.347 -0.1306  0.3664 -0.3596
  686loPI   GL2 9280   2.481  16.025   7.398 -0.0684  0.2701  0.0067
  686loPI   C1A 9281   3.107  15.880   7.550  0.0191  0.2316 -0.0400
  686loPI   C2A 9282   3.324  15.799   7.940 -0.0298  0.2079 -0.0675
  686loPI   C3A 9283   3.322  15.824   8.370 -0.1862 -0.3181  0.0162
  686loPI   C4A 9284   3.683  16.154   8.633 -0.1632  0.0483 -0.0842
  686loPI   C5A 9285   3.706  16.287   9.023  0.0691 -0.4985  0.2729
  686loPI   C6A 9286   3.908  16.157   9.401  0.2150  0.2244 -0.0425
  686loPI   C1B 9287   2.629  16.000   7.785 -0.1155 -0.2679 -0.2330
  686loPI   C2B 9288   2.550  16.046   8.282  0.2560 -0.2720  0.3107
  686loPI   C3B 9289   2.533  16.257   8.716  0.0676  0.2519 -0.0223
  686loPI   C4B 9290   2.277  16.494   8.924  0.2003  0.2374  0.0911
  687loPI    C1 9291   5.238  14.292   6.905  0.2107  0.1222 -0.0848
  687loPI    C2 9292   5.316  13.996   6.648  0.2209  0.0257  0.0282
  687loPI    C3 9293   4.944  14.138   6.682  0.2408  0.1158 -0.1202
  687loPI   PO4 9294   5.385  14.429   7.126 -0.1337  0.2956 -0.3616
  687loPI   GL1 9295   5.841  14.339   7.358  0.0933 -0.2333  0.1378
  687loPI   GL2 9296   6.199  14.260   7.409  0.0560 -0.1588  0.1116
  687loPI   C1A 9297   5.885  14.619   7.682  0.0069 -0.0950  0.1360
  687loPI   C2A 9298   5.817  14.697   8.126 -0.3526  0.2473  0.0742
  687loPI   C3A 9299   5.741  14.676   8.531 -0.1354 -0.2475  0.0092
  687loPI   C4A 9300   5.468  14.701   8.870  0.0774 -0.2183 -0.0996
  687loPI   C5A 9301   5.286  14.542   9.272  0.0801  0.3385  0.0473
  687loPI   C6A 9302   5.416  14.818   9.573 -0.2951  0.0229 -0.3356
  687loPI   C1B 9303   6.295  14.281   7.782 -0.0447  0.0463  0.0071
  687loPI   C2B 9304   6.269  14.491   8.029 -0.3002  0.5638 -0.0383
  687loPI   C3B 9305   6.220  14.449   8.491 -0.2093 -0.1832  0.0834
  687loPI   C4B 9306   6.320  14.590   8.898 -0.0197 -0.0732 -0.3251
  688loPI    C1 9307  15.493  14.845   6.159 -0.3362  0.1605 -0.0090
  688loPI    C2 9308  15.486  14.445   6.152  0.0874  0.1424  0.2332
  688loPI    C3 9309  15.186  14.654   5.988  0.0145 -0.2687 -0.1784
  688loPI   PO4 9310  15.668  14.846   6.447 -0.2960  0.1802  0.1574
  688loPI   GL1 9311  15.696  14.790   6.881  0.3593  0.3032 -0.3002
  688loPI   GL2 9312  15.502  15.098   6.969  0.0306 -0.2501  0.0407
  688loPI   C1A 9313  15.409  14.654   7.165 -0.0020  0.3016 -0.0628
  688loPI   C2A 9314  15.329  14.657   7.590 -0.0435 -0.0417  0.2049
  688loPI   C3A 9315  15.355  14.667   8.008  0.2390 -0.1074 -0.5721
  688loPI   C4A 9316  15.370  14.847   8.371  0.0424 -0.1938  0.0233
  688loPI   C5A 9317  15.321  14.890   8.721  0.0541  0.1346 -0.1850
  688loPI   C6A 9318  15.235  15.121   9.066 -0.2197 -0.2811  0.0507
  688loPI   C1B 9319  15.688  14.964   7.403 -0.1422 -0.0512  0.1918
  688loPI   C2B 9320  15.647  14.979   7.773 -0.0408 -0.0813  0.1482
  688loPI   C3B 9321  15.792  15.001   8.178  0.0786 -0.2591  0.1014
  688loPI   C4B 9322  15.807  15.025   8.661  0.1924 -0.0622 -0.0839
  689loPI    C1 9323   1.568  10.088   6.757  0.0336 -0.0916 -0.1348
  689loPI    C2 9324   1.854  10.320   6.601  0.1164 -0.2137 -0.1664
  689loPI    C3 9325   1.486  10.322   6.444  0.0568  0.0595 -0.0292
  689loPI   PO4 9326   1.507  10.080   6.941 -0.1296 -0.2131  0.1092
  689loPI   GL1 9327   1.350  10.189   7.377 -0.0875  0.0019  0.0881
  689loPI   GL2 9328   1.212   9.910   7.304  0.1237 -0.3255 -0.0282
  689loPI   C1A 9329   1.234  10.307   7.736  0.2197  0.1782 -0.1052
  689loPI   C2A 9330   1.281  10.445   8.191 -0.2108 -0.0153  0.0847
  689loPI   C3A 9331   1.116  10.411   8.646 -0.2457 -0.0267 -0.2798
  689loPI   C4A 9332   1.173  10.394   9.003 -0.2349  0.3088  0.1096
  689loPI   C5A 9333   1.158  10.756   9.229  0.3151  0.0680 -0.3332
  689loPI   C6A 9334   1.222  11.173   9.051 -0.2318 -0.0151  0.1325
  689loPI   C1B 9335   1.038   9.896   7.709 -0.1164  0.3333  0.0639
  689loPI   C2B 9336   1.188   9.910   8.165  0.1145  0.0255  0.1980
  689loPI   C3B 9337   1.394  10.014   8.505 -0.1224 -0.1432 -0.0619
  689loPI   C4B 9338   1.477   9.975   8.887  0.0914  0.1149 -0.3666
  690loPI    C1 9339  11.371   9.061   5.955  0.1686  0.0611  0.1629
  690loPI    C2 9340  11.378   8.849   6.294 -0.1309 -0.1557  0.0376
  690loPI    C3 9341  11.299   8.668   5.946  0.3389  0.0339 -0.1756
  690loPI   PO4 9342  11.272   9.344   6.148 -0.0779  0.1076  0.3525
  690loPI   GL1 9343  11.411   9.547   6.583 -0.3984 -0.1613  0.0261
  690loPI   GL2 9344  11.665   9.712   6.737 -0.2062  0.0081 -0.2651
  690loPI   C1A 9345  11.186   9.412   6.944  0.1285 -0.1033 -0.1102
  690loPI   C2A 9346  11.288   9.485   7.379  0.1000  0.0858  0.0051
  690loPI   C3A 9347  11.282   9.395   7.761  0.0378 -0.2628 -0.0885
  690loPI   C4A 9348  11.064   9.590   8.137 -0.1630  0.1066  0.2601
  690loPI   C5A 9349  10.990   9.908   8.466  0.2366 -0.0486  0.3902
  690loPI   C6A 9350  11.133  10.301   8.695 -0.0420 -0.1258  0.0238
  690loPI   C1B 9351  11.665   9.673   7.165  0.0153  0.1255 -0.0223
  690loPI   C2B 9352  11.730   9.538   7.522 -0.4804 -0.2094  0.0413
  690loPI   C3B 9353  11.704   9.645   7.986 -0.0288  0.0649 -0.1015
  690loPI   C4B 9354  11.508   9.411   8.370 -0.1447  0.0413 -0.1534
  691loPI    C1 9355  11.119   9.934   6.066  0.2217  0.1063  0.0035
  691loPI    C2 9356  11.271   9.686   5.792  0.0957  0.1815 -0.1361
  691loPI    C3 9357  10.891   9.807   5.763  0.0508  0.1098  0.1292
  691loPI   PO4 9358  11.348   9.966   6.210 -0.1306 -0.0117 -0.0149
  691loPI   GL1 9359  11.381  10.113   6.643  0.2725 -0.1301  0.0547
  691loPI   GL2 9360  11.276  10.390   6.605 -0.2318 -0.1738  0.0591
  691loPI   C1A 9361  11.350  10.072   7.091  0.0936 -0.1913  0.0938
  691loPI   C2A 9362  11.407   9.931   7.567  0.1180  0.0550 -0.1101
  691loPI   C3A 9363  11.361  10.012   8.000 -0.0767  0.0765  0.0088
  691loPI   C4A 9364  11.462   9.870   8.367 -0.0352 -0.0435 -0.1320
  691loPI   C5A 9365  11.611   9.847   8.747 -0.2761 -0.0334  0.3979
  691loPI   C6A 9366  11.972   9.896   8.972  0.2399 -0.2507  0.1884
  691loPI   C1B 9367  10.921  10.383   6.847 -0.0503  0.0957  0.1086
  691loPI   C2B 9368  10.902  10.428   7.259 -0.1696  0.1291  0.3754
  691loPI   C3B 9369  11.026  10.328   7.672 -0.2311  0.0934  0.0919
  691loPI   C4B 9370  11.001  10.365   8.164 -0.4970 -0.0130 -0.3586
  692loPI    C1 9371   3.208   2.431   6.500 -0.0808  0.1656  0.2196
  692loPI    C2 9372   3.009   2.484   6.157  0.1475 -0.0677  0.0476
  692loPI    C3 9373   2.927   2.169   6.389  0.0576  0.0398  0.1630
  692loPI   PO4 9374   3.276   2.658   6.709  0.1529  0.0368 -0.0600
  692loPI   GL1 9375   3.370   2.790   7.070  0.0891  0.0906  0.0475
  692loPI   GL2 9376   3.587   2.490   7.143  0.3431  0.1382 -0.0303
  692loPI   C1A 9377   3.383   2.838   7.461 -0.2928  0.0637  0.0309
  692loPI   C2A 9378   3.314   2.913   7.808 -0.1520  0.0267 -0.1730
  692loPI   C3A 9379   3.328   2.894   8.247 -0.2018 -0.0624 -0.2824
  692loPI   C4A 9380   3.209   2.869   8.624 -0.2467 -0.0509  0.1328
  692loPI   C5A 9381   3.329   2.987   9.091 -0.1747 -0.0832  0.2060
  692loPI   C6A 9382   3.432   2.637   9.412 -0.2024 -0.1093 -0.3108
  692loPI   C1B 9383   3.784   2.450   7.553 -0.0496  0.0544 -0.2643
  692loPI   C2B 9384   3.774   2.468   8.025  0.1339 -0.0602 -0.3827
  692loPI   C3B 9385   3.806   2.509   8.406  0.1687  0.5654 -0.0336
  692loPI   C4B 9386   3.664   2.554   8.894 -0.0777  0.1137  0.1572
  693loPI    C1 9387   3.281  10.085   6.574 -0.2622  0.0914 -0.2761
  693loPI    C2 9388   3.147   9.730   6.700 -0.0227 -0.0653 -0.4517
  693loPI    C3 9389   3.175   9.805   6.308  0.2981  0.0011 -0.4189
  693loPI   PO4 9390   3.387  10.184   6.866 -0.2074  0.0733  0.1234
  693loPI   GL1 9391   3.281  10.010   7.259  0.4500 -0.0117 -0.3665
  693loPI   GL2 9392   3.267  10.304   7.326 -0.1272 -0.2221  0.1830
  693loPI   C1A 9393   3.386  10.077   7.768  0.1283 -0.2625 -0.0489
  693loPI   C2A 9394   3.404   9.986   8.285  0.3804  0.0913  0.1808
  693loPI   C3A 9395   3.583  10.274   8.583  0.0787  0.1722  0.0460
  693loPI   C4A 9396   3.578  10.597   8.671 -0.1839 -0.1183  0.1538
  693loPI   C5A 9397   3.517  10.980   8.848  0.0413  0.1234 -0.2871
  693loPI   C6A 9398   3.241  11.048   9.226  0.0824  0.0001  0.1568
  693loPI   C1B 9399   3.693  10.388   7.513 -0.1339  0.0373 -0.1995
  693loPI   C2B 9400   3.896  10.414   7.889 -0.0763  0.1450 -0.0609
  693loPI   C3B 9401   3.973  10.188   8.317 -0.1537 -0.1285 -0.0185
  693loPI   C4B 9402   4.074  10.082   8.780 -0.0346 -0.2180  0.1537
  694loPI    C1 9403  13.823  13.863   6.275 -0.1650  0.0720 -0.3779
  694loPI    C2 9404  13.937  13.485   6.212  0.0559  0.1050 -0.1909
  694loPI    C3 9405  13.827  13.715   5.904  0.0785 -0.0610 -0.3244
  694loPI   PO4 9406  14.000  13.964   6.449 -0.0115  0.1007 -0.0582
  694loPI   GL1 9407  14.009  13.974   6.864 -0.0532 -0.2669 -0.1034
  694loPI   GL2 9408  14.342  13.988   6.808  0.0361  0.0150  0.1595
  694loPI   C1A 9409  13.953  13.994   7.222 -0.0926  0.1218  0.0117
  694loPI   C2A 9410  13.865  13.974   7.570 -0.3344  0.2451  0.2019
  694loPI   C3A 9411  13.754  13.940   8.046 -0.2209  0.1213  0.0984
  694loPI   C4A 9412  13.605  13.940   8.502 -0.0057  0.1969 -0.2100
  694loPI   C5A 9413  13.502  13.694   8.883 -0.1345 -0.0042  0.3243
  694loPI   C6A 9414  13.428  13.257   8.885  0.0645 -0.4241 -0.0948
  694loPI   C1B 9415  14.447  14.132   7.197 -0.0146  0.1101  0.2856
  694loPI   C2B 9416  14.389  14.109   7.596 -0.0206  0.0799 -0.2699
  694loPI   C3B 9417  14.175  14.118   7.929  0.2547  0.2018 -0.1703
  694loPI   C4B 9418  14.182  14.134   8.337 -0.1216 -0.2293  0.2134
  695loPI    C1 9419  15.510   3.628   6.048  0.2471 -0.0491 -0.2350
  695loPI    C2 9420  15.362   3.991   5.968 -0.1105 -0.1824 -0.1939
  695loPI    C3 9421  15.651   3.838   5.737 -0.1144  0.0353 -0.3465
  695loPI   PO4 9422  15.545   3.584   6.317 -0.0620  0.0931  0.0795
  695loPI   GL1 9423  15.721   3.627   6.708 -0.0321 -0.1075 -0.1603
  695loPI   GL2 9424  15.537   3.889   6.921  0.0182 -0.0702 -0.0927
  695loPI   C1A 9425  15.980   3.637   7.039  0.1228  0.0400  0.1381
  695loPI   C2A 9426  15.955   3.658   7.523 -0.0775  0.1505 -0.2673
  695loPI   C3A 9427  15.984   3.580   7.991  0.2654 -0.0876  0.0913
  695loPI   C4A 9428  16.104   3.511   8.430 -0.2386  0.1324 -0.2813
  695loPI   C5A 9429  15.869   3.498   8.725 -0.2422  0.3004 -0.1370
  695loPI   C6A 9430  15.621   3.648   9.051 -0.0474 -0.4008  0.0591
  695loPI   C1B 9431  15.571   4.037   7.386  0.1535  0.0686 -0.0138
  695loPI   C2B 9432  15.618   3.963   7.795  0.1579  0.1236  0.0419
  695loPI   C3B 9433  15.726   3.908   8.256 -0.1042 -0.1607  0.5046
  695loPI   C4B 9434  15.828   4.070   8.737  0.0183  0.2992 -0.0680
  696loPI    C1 9435   0.488  10.067   6.833  0.1090  0.1387  0.0475
  696loPI    C2 9436   0.238   9.950   6.544 -0.0473  0.2513  0.1360
  696loPI    C3 9437   0.570  10.152   6.451 -0.0199  0.1548  0.0231
  696loPI   PO4 9438   0.362  10.056   7.006  0.0732 -0.0880  0.1088
  696loPI   GL1 9439   0.046   9.855   7.189  0.1561  0.2406  0.1260
  696loPI   GL2 9440   0.064   9.575   7.302 -0.2090  0.0302  0.3043
  696loPI   C1A 9441  -0.098  10.060   7.562 -0.3076  0.1048  0.2654
  696loPI   C2A 9442  -0.060  10.087   7.976 -0.2100 -0.2424 -0.1556
  696loPI   C3A 9443  -0.107  10.391   8.279  0.0799 -0.2253  0.1232
  696loPI   C4A 9444  -0.075  10.588   8.716  0.2621  0.1153  0.1903
  696loPI   C5A 9445   0.076  10.524   9.179  0.1036  0.1349  0.0740
  696loPI   C6A 9446   0.275  10.275   9.553 -0.0140 -0.1168 -0.1635
  696loPI   C1B 9447  -0.097   9.482   7.834 -0.0446 -0.0096  0.1685
  696loPI   C2B 9448  -0.253   9.675   8.256 -0.2657 -0.1282  0.0624
  696loPI   C3B 9449  -0.216  10.044   8.627  0.1843  0.0226  0.1586
  696loPI   C4B 9450  -0.353  10.228   9.053 -0.0799 -0.1203 -0.1525
  697loPI    C1 9451   3.924   6.027   6.154 -0.0192  0.1160  0.1025
  697loPI    C2 9452   4.048   5.728   5.919 -0.0332  0.0243  0.2107
  697loPI    C3 9453   3.658   5.776   5.991 -0.0455  0.1762  0.0521
  697loPI   PO4 9454   4.082   6.007   6.349 -0.0051  0.0726 -0.0075
  697loPI   GL1 9455   3.923   6.072   6.748  0.1308 -0.1451 -0.3429
  697loPI   GL2 9456   3.692   5.840   6.899  0.1977 -0.2000  0.0739
  697loPI   C1A 9457   3.821   6.243   7.146 -0.3252 -0.0278  0.0248
  697loPI   C2A 9458   3.712   6.247   7.518  0.2070  0.1287 -0.0762
  697loPI   C3A 9459   3.657   6.279   7.985 -0.0942  0.0097 -0.0998
  697loPI   C4A 9460   3.690   6.132   8.354  0.0912  0.1154 -0.0399
  697loPI   C5A 9461   3.661   6.150   8.820 -0.1320 -0.1467 -0.0684
  697loPI   C6A 9462   3.665   6.386   9.239 -0.2466 -0.1030  0.5356
  697loPI   C1B 9463   3.630   5.755   7.327 -0.0064  0.1480  0.1941
  697loPI   C2B 9464   3.615   5.723   7.708 -0.0900 -0.1268 -0.3575
  697loPI   C3B 9465   3.526   5.656   8.129  0.0919  0.1647  0.2146
  697loPI   C4B 9466   3.596   5.653   8.553  0.2387  0.1522  0.5691
  698loPI    C1 9467  14.476  12.726   6.226  0.4996  0.3850  0.2284
  698loPI    C2 9468  14.662  12.391   6.110 -0.4378 -0.0427 -0.1343
  698loPI    C3 9469  14.735  12.736   5.921  0.1734 -0.1318 -0.0805
  698loPI   PO4 9470  14.500  12.749   6.470 -0.2622  0.1725 -0.2525
  698loPI   GL1 9471  14.351  12.790   6.858  0.1757  0.1914 -0.4068
  698loPI   GL2 9472  14.696  12.834   6.959 -0.1756  0.2533 -0.0187
  698loPI   C1A 9473  14.110  12.658   7.233  0.1700  0.3860  0.2383
  698loPI   C2A 9474  13.966  12.557   7.565  0.0141  0.0148 -0.2435
  698loPI   C3A 9475  13.977  12.507   7.907 -0.1469 -0.0088 -0.2314
  698loPI   C4A 9476  13.818  12.604   8.293  0.0042  0.0319  0.1627
  698loPI   C5A 9477  13.798  12.557   8.701  0.0509 -0.4510  0.0650
  698loPI   C6A 9478  13.908  12.686   9.106 -0.0299 -0.0561  0.1238
  698loPI   C1B 9479  14.624  12.705   7.363  0.0284 -0.2866 -0.0426
  698loPI   C2B 9480  14.425  12.732   7.743  0.0415  0.1816  0.0874
  698loPI   C3B 9481  14.320  12.753   8.222  0.1851  0.0115 -0.0412
  698loPI   C4B 9482  14.310  12.723   8.651 -0.1748  0.0626 -0.2246
  699loPI    C1 9483   0.575  12.223   6.511  0.1898  0.0161 -0.0530
  699loPI    C2 9484   0.335  12.017   6.757  0.2482 -0.0639 -0.0627
  699loPI    C3 9485   0.370  11.908   6.374 -0.0944  0.2565 -0.1912
  699loPI   PO4 9486   0.591  12.445   6.719 -0.1584  0.3149  0.0158
  699loPI   GL1 9487   0.436  12.420   7.102  0.0249  0.3661  0.0786
  699loPI   GL2 9488   0.336  12.762   7.107  0.0051  0.1395 -0.0229
  699loPI   C1A 9489   0.493  12.267   7.482  0.0673 -0.4006  0.2004
  699loPI   C2A 9490   0.520  12.338   7.860  0.1815  0.1823  0.1347
  699loPI   C3A 9491   0.404  12.271   8.263  0.0511 -0.2253  0.0308
  699loPI   C4A 9492   0.296  12.275   8.720 -0.0019 -0.0686 -0.1683
  699loPI   C5A 9493   0.315  12.029   9.065 -0.1606  0.0139  0.3335
  699loPI   C6A 9494   0.381  11.587   9.219 -0.1708 -0.2845  0.1193
  699loPI   C1B 9495   0.262  12.714   7.509 -0.0629 -0.0519  0.2873
  699loPI   C2B 9496   0.308  12.738   7.933  0.1257  0.0321 -0.0549
  699loPI   C3B 9497   0.243  12.856   8.285  0.0130 -0.3267  0.3141
  699loPI   C4B 9498   0.298  12.713   8.656 -0.0626 -0.0552  0.1734
  700loPI    C1 9499   7.721   7.920   5.981 -0.1367  0.3016  0.1137
  700loPI    C2 9500   7.719   7.679   5.662  0.1432  0.4385  0.0048
  700loPI    C3 9501   7.517   8.025   5.653 -0.0773  0.3140  0.0806
  700loPI   PO4 9502   7.628   7.692   6.207  0.0191  0.1202 -0.1354
  700loPI   GL1 9503   7.698   7.584   6.611  0.0506  0.2315 -0.1573
  700loPI   GL2 9504   8.053   7.469   6.558 -0.0259 -0.1449  0.0194
  700loPI   C1A 9505   7.421   7.349   6.939  0.3171  0.0816  0.0449
  700loPI   C2A 9506   7.385   7.271   7.326 -0.1467  0.0934  0.0182
  700loPI   C3A 9507   7.401   7.334   7.638  0.0060 -0.3265 -0.0448
  700loPI   C4A 9508   7.426   7.373   8.003  0.0099  0.0048 -0.0171
  700loPI   C5A 9509   7.469   7.526   8.384 -0.1083  0.0822 -0.2502
  700loPI   C6A 9510   7.492   7.790   8.676 -0.0019  0.2071  0.0757
  700loPI   C1B 9511   7.979   7.392   7.027  0.2240 -0.1634  0.1551
  700loPI   C2B 9512   7.850   7.497   7.450  0.1586 -0.3639 -0.0499
  700loPI   C3B 9513   7.874   7.467   7.883 -0.1925 -0.0263 -0.0893
  700loPI   C4B 9514   7.930   7.232   8.251  0.0899 -0.4115  0.0848
  701loPI    C1 9515  15.441   1.932   5.878  0.1063 -0.0816 -0.0911
  701loPI    C2 9516  15.323   1.769   6.223  0.1717 -0.0007 -0.0301
  701loPI    C3 9517  15.377   1.538   5.901  0.3261 -0.1092  0.0723
  701loPI   PO4 9518  15.508   2.186   5.998 -0.0266 -0.1535 -0.2923
  701loPI   GL1 9519  15.479   2.154   6.442 -0.1335 -0.2241 -0.0086
  701loPI   GL2 9520  15.223   2.223   6.496 -0.2274  0.0161 -0.1688
  701loPI   C1A 9521  15.533   2.149   6.890 -0.1307  0.1479 -0.3697
  701loPI   C2A 9522  15.526   2.102   7.311 -0.1762 -0.1160 -0.0075
  701loPI   C3A 9523  15.495   2.024   7.737  0.1513 -0.1857  0.3435
  701loPI   C4A 9524  15.439   2.081   8.173 -0.0587  0.0813 -0.0114
  701loPI   C5A 9525  15.248   2.027   8.536 -0.1412 -0.0860 -0.4071
  701loPI   C6A 9526  14.980   1.793   8.804 -0.3418 -0.2327 -0.1029
  701loPI   C1B 9527  15.068   2.035   6.816 -0.0683  0.1608 -0.1133
  701loPI   C2B 9528  15.035   1.947   7.262 -0.2249 -0.0010  0.2241
  701loPI   C3B 9529  14.948   2.021   7.737  0.1030 -0.3196 -0.0878
  701loPI   C4B 9530  14.930   1.850   8.246 -0.0357  0.3159 -0.0888
  702loPI    C1 9531   5.673   8.261   6.105 -0.1106 -0.2788  0.1025
  702loPI    C2 9532   5.361   8.435   5.924  0.0287 -0.1029  0.0280
  702loPI    C3 9533   5.696   8.643   5.989  0.1814 -0.3303 -0.0172
  702loPI   PO4 9534   5.583   8.103   6.368  0.1357 -0.3089  0.3467
  702loPI   GL1 9535   5.689   8.162   6.778 -0.1288 -0.0131  0.0946
  702loPI   GL2 9536   5.561   8.437   6.947  0.0696 -0.0877  0.1927
  702loPI   C1A 9537   5.751   7.882   7.121 -0.2177  0.2697 -0.0614
  702loPI   C2A 9538   5.921   7.786   7.481  0.2269  0.1148  0.1741
  702loPI   C3A 9539   6.069   7.879   7.966  0.1782  0.1278  0.0541
  702loPI   C4A 9540   5.944   7.875   8.337 -0.1258  0.1428  0.2919
  702loPI   C5A 9541   6.222   7.580   8.641  0.1381  0.2790  0.1521
  702loPI   C6A 9542   6.648   7.649   8.608 -0.0993  0.0366  0.2255
  702loPI   C1B 9543   5.661   8.381   7.436 -0.1460 -0.2284 -0.0844
  702loPI   C2B 9544   5.780   8.288   7.919 -0.1793 -0.0489  0.0822
  702loPI   C3B 9545   5.770   8.364   8.389 -0.1546  0.1479  0.0033
  702loPI   C4B 9546   5.685   8.486   8.877  0.3605 -0.0762 -0.0740
  703loPI    C1 9547   2.480  12.324   6.521  0.0655 -0.0641 -0.1917
  703loPI    C2 9548   2.721  12.624   6.412  0.0962  0.0122  0.0802
  703loPI    C3 9549   2.455  12.476   6.152  0.2424  0.1161 -0.1306
  703loPI   PO4 9550   2.389  12.353   6.791  0.0673  0.2011  0.1235
  703loPI   GL1 9551   2.341  12.704   7.139 -0.1394  0.0812  0.2272
  703loPI   GL2 9552   2.131  12.479   7.230  0.2766 -0.2400 -0.0022
  703loPI   C1A 9553   2.220  12.954   7.420  0.2180  0.1295  0.0273
  703loPI   C2A 9554   2.272  12.956   7.837  0.1773 -0.2705 -0.0286
  703loPI   C3A 9555   2.306  12.918   8.311 -0.1480 -0.0514 -0.1800
  703loPI   C4A 9556   2.242  13.097   8.802 -0.3336 -0.4051  0.2131
  703loPI   C5A 9557   2.354  13.335   9.165 -0.0651 -0.2365  0.0042
  703loPI   C6A 9558   2.592  13.436   9.397 -0.0687  0.0674 -0.1389
  703loPI   C1B 9559   2.169  12.454   7.661  0.0022  0.2551 -0.0999
  703loPI   C2B 9560   2.214  12.481   8.101  0.3291  0.0303 -0.1188
  703loPI   C3B 9561   2.178  12.187   8.450 -0.1393 -0.0672  0.1448
  703loPI   C4B 9562   2.347  11.879   8.649 -0.1842 -0.2712  0.1492
  704loPI    C1 9563   6.703   5.693   6.227 -0.0297 -0.2152  0.0971
  704loPI    C2 9564   6.688   6.090   6.175  0.0761 -0.1943  0.2225
  704loPI    C3 9565   6.662   5.846   5.859 -0.4621 -0.1023  0.1866
  704loPI   PO4 9566   6.906   5.696   6.421 -0.1087 -0.1467 -0.2371
  704loPI   GL1 9567   7.051   5.781   6.813  0.0306  0.0031 -0.1752
  704loPI   GL2 9568   7.372   5.552   6.679  0.1332  0.2849 -0.1409
  704loPI   C1A 9569   6.937   5.699   7.177  0.0878 -0.0788 -0.3344
  704loPI   C2A 9570   6.808   5.840   7.471 -0.0927 -0.0291  0.1820
  704loPI   C3A 9571   6.822   5.758   7.929  0.0519 -0.1480  0.0452
  704loPI   C4A 9572   6.835   5.608   8.246  0.1802  0.3904 -0.0933
  704loPI   C5A 9573   7.089   5.551   8.505  0.0989  0.0698  0.3669
  704loPI   C6A 9574   7.344   5.744   8.626 -0.0136 -0.1200 -0.3193
  704loPI   C1B 9575   7.325   5.395   7.093 -0.1089  0.1445  0.2107
  704loPI   C2B 9576   7.376   5.396   7.464 -0.2176 -0.4148 -0.1762
  704loPI   C3B 9577   7.257   5.482   7.908  0.2272 -0.2129 -0.2926
  704loPI   C4B 9578   7.446   5.331   8.226  0.0495  0.0900  0.1553
  705loPI    C1 9579   8.417  16.708   6.093  0.0925  0.1186 -0.1282
  705loPI    C2 9580   8.490  17.070   6.246  0.4125  0.0509 -0.1147
  705loPI    C3 9581   8.640  16.970   5.889  0.3046 -0.0603 -0.1294
  705loPI   PO4 9582   8.538  16.540   6.293  0.2741 -0.0237  0.0931
  705loPI   GL1 9583   8.593  16.700   6.647 -0.2481 -0.2483  0.2408
  705loPI   GL2 9584   8.541  16.287   6.787  0.3410  0.1354 -0.1650
  705loPI   C1A 9585   8.722  16.793   7.077  0.2980 -0.0874  0.3043
  705loPI   C2A 9586   8.871  16.779   7.496  0.2807  0.1502  0.0680
  705loPI   C3A 9587   8.912  16.807   7.906 -0.1187 -0.3231 -0.0166
  705loPI   C4A 9588   8.910  16.721   8.300  0.0651 -0.1217 -0.1253
  705loPI   C5A 9589   8.896  16.609   8.680 -0.1322 -0.0085  0.1232
  705loPI   C6A 9590   9.087  16.355   8.984 -0.1094  0.0184 -0.0406
  705loPI   C1B 9591   8.616  16.319   7.226 -0.3159 -0.1040 -0.0012
  705loPI   C2B 9592   8.750  16.308   7.699 -0.2243  0.1412  0.3756
  705loPI   C3B 9593   8.793  16.281   8.089  0.0446  0.0634 -0.0577
  705loPI   C4B 9594   9.033  16.144   8.515  0.3569  0.2748  0.0524
  706loPI    C1 9595   7.918   0.902   6.366 -0.3067 -0.1747 -0.0918
  706loPI    C2 9596   8.048   1.100   6.043 -0.0226  0.0857  0.1751
  706loPI    C3 9597   7.817   1.285   6.312 -0.0959 -0.0704  0.2213
  706loPI   PO4 9598   8.143   0.749   6.393  0.2011 -0.1619 -0.1883
  706loPI   GL1 9599   8.459   0.695   6.659 -0.0815 -0.4532  0.0077
  706loPI   GL2 9600   8.507   0.486   6.857  0.1194  0.2543 -0.2138
  706loPI   C1A 9601   8.245   0.921   6.993 -0.3963  0.0001  0.0263
  706loPI   C2A 9602   8.216   0.931   7.509 -0.2012 -0.0819  0.2705
  706loPI   C3A 9603   8.166   0.876   7.929 -0.1194  0.0284 -0.2686
  706loPI   C4A 9604   8.254   0.899   8.315  0.2338  0.0781 -0.1596
  706loPI   C5A 9605   7.967   1.190   8.551  0.0123 -0.1681  0.1596
  706loPI   C6A 9606   7.646   1.307   8.795  0.0192 -0.4289  0.1817
  706loPI   C1B 9607   8.518   0.588   7.273 -0.2603 -0.1595 -0.1778
  706loPI   C2B 9608   8.556   0.624   7.638 -0.0920  0.1943 -0.1884
  706loPI   C3B 9609   8.640   0.582   8.101  0.0766 -0.1716  0.2102
  706loPI   C4B 9610   8.753   0.414   8.458  0.0968 -0.1560  0.1019
  707loPI    C1 9611  13.236   2.712   6.044  0.1314  0.2966 -0.0062
  707loPI    C2 9612  13.001   2.531   5.775  0.0119  0.0068  0.2858
  707loPI    C3 9613  13.392   2.572   5.703 -0.0158 -0.0829  0.0771
  707loPI   PO4 9614  13.059   2.895   6.127  0.1278  0.1975  0.2918
  707loPI   GL1 9615  12.958   2.699   6.514  0.0876  0.0100  0.4466
  707loPI   GL2 9616  13.242   2.719   6.546  0.1320 -0.0046 -0.2022
  707loPI   C1A 9617  12.859   2.527   6.844 -0.1470  0.0793 -0.0227
  707loPI   C2A 9618  12.835   2.561   7.274  0.3225 -0.3421 -0.2649
  707loPI   C3A 9619  12.849   2.587   7.668 -0.1808  0.4606 -0.0378
  707loPI   C4A 9620  12.793   2.674   8.020 -0.0264 -0.0745 -0.0086
  707loPI   C5A 9621  12.806   2.631   8.465  0.0640  0.1081  0.4259
  707loPI   C6A 9622  13.121   2.422   8.820 -0.0477 -0.5135 -0.0454
  707loPI   C1B 9623  13.304   2.737   7.012 -0.3223  0.0730  0.0545
  707loPI   C2B 9624  13.260   2.741   7.477 -0.2610  0.0311  0.0286
  707loPI   C3B 9625  13.337   2.742   7.866 -0.0129 -0.1608 -0.1825
  707loPI   C4B 9626  13.280   2.843   8.207 -0.0221  0.1127 -0.3637
  708loPI    C1 9627   5.487   2.586   6.327 -0.1072 -0.0307  0.2211
  708loPI    C2 9628   5.159   2.367   6.264 -0.1122 -0.0764  0.4020
  708loPI    C3 9629   5.472   2.333   6.017 -0.3237  0.1283  0.0989
  708loPI   PO4 9630   5.387   2.660   6.606 -0.1134  0.0862  0.3345
  708loPI   GL1 9631   5.586   2.837   6.959  0.0330  0.1090 -0.2722
  708loPI   GL2 9632   5.683   2.500   7.019  0.1052  0.0037 -0.0549
  708loPI   C1A 9633   5.839   2.999   7.200  0.0752 -0.1979  0.1316
  708loPI   C2A 9634   5.936   3.026   7.684 -0.0469  0.1713  0.1616
  708loPI   C3A 9635   5.809   3.076   8.141 -0.0045 -0.1127 -0.0473
  708loPI   C4A 9636   5.629   2.941   8.538 -0.0175  0.1749  0.3902
  708loPI   C5A 9637   5.473   2.831   8.897  0.1547  0.1565 -0.2477
  708loPI   C6A 9638   5.436   2.872   9.276  0.1287 -0.0103 -0.2816
  708loPI   C1B 9639   5.667   2.559   7.481  0.1093  0.1448  0.3300
  708loPI   C2B 9640   5.736   2.531   7.846 -0.0378 -0.3316  0.0503
  708loPI   C3B 9641   5.768   2.488   8.312 -0.1522  0.0117  0.2630
  708loPI   C4B 9642   5.821   2.509   8.698 -0.1595  0.1801  0.0273
  709loPI    C1 9643   5.636   0.696   6.338  0.1255 -0.0313  0.1415
  709loPI    C2 9644   5.293   0.780   6.526  0.0526 -0.0530  0.0197
  709loPI    C3 9645   5.367   0.937   6.166  0.1560 -0.0760  0.0305
  709loPI   PO4 9646   5.844   0.654   6.534 -0.1411 -0.2344 -0.0268
  709loPI   GL1 9647   5.785   0.823   6.882 -0.0322 -0.1171 -0.3309
  709loPI   GL2 9648   5.958   1.134   6.796  0.0768  0.0185  0.3684
  709loPI   C1A 9649   5.674   0.597   7.219 -0.2078 -0.0014  0.0510
  709loPI   C2A 9650   5.706   0.562   7.659  0.1358 -0.0716  0.0620
  709loPI   C3A 9651   5.700   0.676   8.060 -0.0414 -0.0839 -0.1060
  709loPI   C4A 9652   5.863   0.607   8.583  0.0053  0.3995  0.2308
  709loPI   C5A 9653   5.907   0.904   9.014 -0.2455 -0.1323 -0.0614
  709loPI   C6A 9654   6.083   1.298   9.150 -0.2895  0.2744  0.0887
  709loPI   C1B 9655   5.939   1.064   7.284 -0.0928 -0.2100 -0.3717
  709loPI   C2B 9656   5.930   1.042   7.724  0.0435  0.3148 -0.1383
  709loPI   C3B 9657   5.813   1.179   8.098  0.0179 -0.1556  0.1247
  709loPI   C4B 9658   5.831   1.170   8.567  0.1328  0.1757 -0.1562
  710loPI    C1 9659   5.753  11.309   6.312  0.1805 -0.3077 -0.1165
  710loPI    C2 9660   5.658  11.092   5.990  0.0458 -0.0737 -0.2377
  710loPI    C3 9661   5.992  11.312   5.991  0.0412 -0.0669 -0.2211
  710loPI   PO4 9662   5.527  11.229   6.472  0.0595  0.1311 -0.2710
  710loPI   GL1 9663   5.359  11.179   6.870 -0.0011  0.0626  0.1014
  710loPI   GL2 9664   5.110  11.317   7.035  0.0620  0.0003 -0.2464
  710loPI   C1A 9665   5.604  11.321   7.226 -0.2802  0.0700 -0.0007
  710loPI   C2A 9666   5.585  11.336   7.628  0.0652  0.3780 -0.0762
  710loPI   C3A 9667   5.557  11.476   8.033 -0.0325  0.0507 -0.0317
  710loPI   C4A 9668   5.748  11.531   8.476  0.0549  0.0563  0.0380
  710loPI   C5A 9669   5.923  11.484   8.852  0.5279 -0.0728 -0.2955
  710loPI   C6A 9670   6.062  11.531   9.250  0.1726  0.0649 -0.2586
  710loPI   C1B 9671   4.906  11.295   7.352  0.0267  0.1067 -0.2726
  710loPI   C2B 9672   4.666  11.418   7.684 -0.0957 -0.3662 -0.1295
  710loPI   C3B 9673   4.567  11.424   8.095 -0.0527 -0.2143  0.0935
  710loPI   C4B 9674   4.363  11.378   8.570  0.1949 -0.1283 -0.1580
  711loPI    C1 9675  10.708   6.649   6.140 -0.1026  0.0755  0.1100
  711loPI    C2 9676  10.324   6.563   6.210 -0.1080 -0.0393 -0.0532
  711loPI    C3 9677  10.431   6.730   5.863 -0.0189  0.0595  0.0209
  711loPI   PO4 9678  10.746   6.732   6.349 -0.2136 -0.1200  0.1261
  711loPI   GL1 9679  10.668   6.494   6.688 -0.0872  0.0239 -0.0429
  711loPI   GL2 9680  11.005   6.692   6.817  0.1475  0.1089  0.0604
  711loPI   C1A 9681  10.514   6.422   7.014 -0.0509 -0.1617  0.0258
  711loPI   C2A 9682  10.481   6.345   7.420  0.2596 -0.1442 -0.1386
  711loPI   C3A 9683  10.485   6.397   7.821 -0.2420  0.2128 -0.2871
  711loPI   C4A 9684  10.395   6.297   8.277 -0.0808  0.2250 -0.1421
  711loPI   C5A 9685  10.326   6.385   8.665 -0.1905 -0.1565  0.1930
  711loPI   C6A 9686  10.408   6.637   9.007  0.3614  0.0304 -0.0944
  711loPI   C1B 9687  10.995   6.523   7.125  0.0133 -0.0653  0.1594
  711loPI   C2B 9688  11.008   6.507   7.405 -0.3810  0.0839 -0.0630
  711loPI   C3B 9689  11.045   6.414   7.753 -0.3398  0.0468  0.0381
  711loPI   C4B 9690  10.950   6.520   8.217  0.1085 -0.1055  0.1216
  712loPI    C1 9691  12.602  16.741   5.734  0.1721  0.1111  0.0565
  712loPI    C2 9692  12.876  16.849   5.463 -0.0346  0.4171 -0.0363
  712loPI    C3 9693  12.580  16.601   5.360  0.1552  0.1537  0.0414
  712loPI   PO4 9694  12.480  17.044   5.863  0.0936  0.0716  0.0594
  712loPI   GL1 9695  12.316  17.159   6.296  0.0581 -0.2545  0.2398
  712loPI   GL2 9696  12.579  16.853   6.310 -0.0811  0.0222 -0.3625
  712loPI   C1A 9697  12.167  17.234   6.750 -0.0173  0.1488 -0.1029
  712loPI   C2A 9698  12.204  17.244   7.212  0.1542  0.0863 -0.0736
  712loPI   C3A 9699  12.213  17.204   7.600  0.0370 -0.1160 -0.2724
  712loPI   C4A 9700  12.122  17.376   7.936  0.1095 -0.2516  0.0034
  712loPI   C5A 9701  12.282  17.712   8.222 -0.2078 -0.0858 -0.1132
  712loPI   C6A 9702  12.477  17.884   8.520  0.0245  0.1203 -0.0139
  712loPI   C1B 9703  12.621  16.852   6.704  0.0034 -0.0425 -0.3849
  712loPI   C2B 9704  12.614  16.904   7.158  0.4470 -0.1231 -0.2020
  712loPI   C3B 9705  12.570  16.924   7.616 -0.0507  0.0065 -0.2697
  712loPI   C4B 9706  12.509  17.043   8.102  0.4092 -0.0518 -0.0017
  713loPI    C1 9707  16.656   8.826   5.859 -0.1250  0.0281 -0.1746
  713loPI    C2 9708  16.763   8.559   5.581  0.2454 -0.0229  0.0113
  713loPI    C3 9709  16.376   8.627   5.655  0.1442 -0.1093 -0.4171
  713loPI   PO4 9710  16.772   8.775   6.135  0.2241 -0.0875  0.0561
  713loPI   GL1 9711  16.752   8.691   6.620 -0.2634 -0.0612  0.1423
  713loPI   GL2 9712  16.452   8.704   6.618  0.0071 -0.1371 -0.0601
  713loPI   C1A 9713  16.823   8.709   7.026 -0.0056 -0.0414  0.0017
  713loPI   C2A 9714  16.751   8.582   7.436  0.3472  0.0557  0.0192
  713loPI   C3A 9715  16.665   8.584   7.881  0.3082  0.0270 -0.0394
  713loPI   C4A 9716  16.608   8.585   8.290 -0.0621 -0.1539  0.0084
  713loPI   C5A 9717  16.640   8.843   8.697 -0.1530 -0.0087  0.0757
  713loPI   C6A 9718  16.375   8.960   9.023  0.0088 -0.3905 -0.3685
  713loPI   C1B 9719  16.300   8.603   7.089 -0.0787  0.1706  0.3948
  713loPI   C2B 9720  16.255   8.652   7.489  0.2040 -0.2130 -0.0784
  713loPI   C3B 9721  16.133   8.473   7.916  0.0508  0.1610  0.0731
  713loPI   C4B 9722  16.005   8.379   8.328  0.2237 -0.0654 -0.2285
  714loPI    C1 9723   6.876   4.903   5.924 -0.0501 -0.0395 -0.0872
  714loPI    C2 9724   6.499   5.003   5.833 -0.1289 -0.0303  0.2377
  714loPI    C3 9725   6.750   5.279   5.977 -0.0236 -0.0574  0.1085
  714loPI   PO4 9726   6.865   4.707   6.104 -0.0760  0.1751 -0.0731
  714loPI   GL1 9727   7.102   4.734   6.467 -0.0075 -0.2454  0.3620
  714loPI   GL2 9728   7.291   4.541   6.566 -0.0806 -0.2194  0.0391
  714loPI   C1A 9729   7.161   4.920   6.859 -0.0977  0.0096  0.0531
  714loPI   C2A 9730   7.166   4.874   7.349 -0.4517  0.1298 -0.0731
  714loPI   C3A 9731   7.200   4.940   7.723  0.1740 -0.2531  0.0762
  714loPI   C4A 9732   7.387   4.832   8.161  0.2253  0.1673  0.0443
  714loPI   C5A 9733   7.605   4.722   8.535  0.1138 -0.1420 -0.1740
  714loPI   C6A 9734   7.559   4.605   8.913  0.0287 -0.3663  0.0224
  714loPI   C1B 9735   7.544   4.526   6.923 -0.2558  0.0410 -0.1787
  714loPI   C2B 9736   7.579   4.577   7.296  0.2647 -0.1601 -0.0401
  714loPI   C3B 9737   7.728   4.547   7.722  0.2917  0.1772 -0.0590
  714loPI   C4B 9738   7.911   4.584   8.119  0.0189 -0.0076 -0.1066
  715loPI    C1 9739  13.330   5.236   5.578  0.0560  0.1424  0.2128
  715loPI    C2 9740  13.212   4.867   5.481  0.1998  0.1308  0.0767
  715loPI    C3 9741  13.299   5.130   5.193 -0.1410  0.3511  0.1692
  715loPI   PO4 9742  13.399   5.151   5.834 -0.3462 -0.2621 -0.1119
  715loPI   GL1 9743  13.285   5.229   6.204  0.2770 -0.1161  0.0536
  715loPI   GL2 9744  13.096   5.093   6.361 -0.0101  0.2400  0.0063
  715loPI   C1A 9745  13.485   5.397   6.507 -0.0182  0.1876 -0.0941
  715loPI   C2A 9746  13.522   5.228   7.006 -0.1037 -0.3699  0.0263
  715loPI   C3A 9747  13.478   5.298   7.451  0.0092  0.1128 -0.6006
  715loPI   C4A 9748  13.496   5.302   7.955  0.0466  0.1177  0.0277
  715loPI   C5A 9749  13.391   5.140   8.367  0.2505  0.4385 -0.0747
  715loPI   C6A 9750  13.075   5.269   8.684  0.1724 -0.1037 -0.2427
  715loPI   C1B 9751  13.084   5.203   6.755  0.1192 -0.0814 -0.1279
  715loPI   C2B 9752  13.017   5.200   7.156  0.1327 -0.1832  0.2513
  715loPI   C3B 9753  13.036   5.184   7.687 -0.1575 -0.3014  0.0989
  715loPI   C4B 9754  12.991   5.207   8.051 -0.2471  0.0992  0.3708
  716loPI    C1 9755   8.707  12.523   5.737 -0.1392 -0.0923 -0.0660
  716loPI    C2 9756   8.963  12.355   5.480 -0.0135  0.1209 -0.0821
  716loPI    C3 9757   8.778  12.696   5.383  0.0935  0.2446  0.1394
  716loPI   PO4 9758   8.817  12.507   5.993 -0.3385  0.0781 -0.0977
  716loPI   GL1 9759   8.996  12.818   6.299  0.1876 -0.1444 -0.1729
  716loPI   GL2 9760   9.284  12.687   6.573  0.0466  0.0748 -0.2837
  716loPI   C1A 9761   9.047  13.143   6.684  0.2722 -0.1830 -0.0597
  716loPI   C2A 9762   9.362  13.190   6.943 -0.0256  0.0602  0.0237
  716loPI   C3A 9763   9.286  13.062   7.373 -0.0391 -0.4105  0.5657
  716loPI   C4A 9764   9.292  13.126   7.805  0.0224  0.1089 -0.0173
  716loPI   C5A 9765   9.316  13.134   8.192  0.0331  0.3238  0.1245
  716loPI   C6A 9766   9.516  12.842   8.522  0.2012  0.2699 -0.1912
  716loPI   C1B 9767   9.194  12.713   7.045  0.0867  0.0027  0.4388
  716loPI   C2B 9768   8.993  12.640   7.340 -0.1880 -0.1987 -0.0417
  716loPI   C3B 9769   9.137  12.634   7.744  0.2541 -0.0094 -0.0373
  716loPI   C4B 9770   9.287  12.621   8.123 -0.0796  0.2167 -0.1941
  717loPI    C1 9771  10.296   3.354   5.430  0.1647 -0.3499 -0.2120
  717loPI    C2 9772   9.993   3.474   5.198  0.1680  0.0629 -0.0113
  717loPI    C3 9773  10.165   3.118   5.134 -0.2239 -0.0892 -0.2545
  717loPI   PO4 9774  10.205   3.449   5.711 -0.0726  0.1851  0.2303
  717loPI   GL1 9775  10.184   3.380   6.207  0.0781  0.1263 -0.0656
  717loPI   GL2 9776  10.496   3.578   6.392  0.1564  0.2067  0.2032
  717loPI   C1A 9777  10.075   3.363   6.616 -0.0335  0.1183 -0.0757
  717loPI   C2A 9778  10.107   3.417   7.079 -0.0958 -0.4820  0.0049
  717loPI   C3A 9779  10.200   3.465   7.578 -0.1508  0.1745 -0.0807
  717loPI   C4A 9780  10.236   3.366   8.033 -0.2560 -0.2542  0.0037
  717loPI   C5A 9781  10.037   3.324   8.498  0.5035 -0.2210  0.1009
  717loPI   C6A 9782   9.623   3.507   8.536  0.1230 -0.1268  0.0303
  717loPI   C1B 9783  10.741   3.722   6.655  0.0844  0.3390 -0.0208
  717loPI   C2B 9784  10.812   3.597   7.049 -0.2356  0.2322 -0.2542
  717loPI   C3B 9785  10.748   3.602   7.524 -0.2222  0.0816 -0.0727
  717loPI   C4B 9786  10.804   3.454   7.953  0.0088 -0.1176  0.0875
  718loPI    C1 9787   5.268   8.858   6.244  0.0790 -0.2219 -0.0255
  718loPI    C2 9788   5.480   9.090   5.996 -0.1318 -0.0865 -0.0823
  718loPI    C3 9789   5.111   8.974   5.894 -0.1459 -0.1908  0.0840
  718loPI   PO4 9790   5.373   8.917   6.488  0.0562  0.6488 -0.1080
  718loPI   GL1 9791   5.374   9.035   6.891  0.1414  0.0491  0.0044
  718loPI   GL2 9792   5.062   9.082   7.104 -0.4100 -0.1943 -0.0840
  718loPI   C1A 9793   5.364   8.781   7.243 -0.3018  0.4560 -0.1046
  718loPI   C2A 9794   5.451   8.820   7.605  0.0484  0.3195 -0.1202
  718loPI   C3A 9795   5.393   8.616   7.963  0.0070  0.1170  0.1228
  718loPI   C4A 9796   5.265   8.459   8.367  0.0912 -0.1248  0.0077
  718loPI   C5A 9797   5.044   8.373   8.744  0.1529 -0.0481 -0.2081
  718loPI   C6A 9798   4.804   8.024   8.985  0.3330  0.0121 -0.2212
  718loPI   C1B 9799   5.123   9.158   7.475 -0.0716 -0.1115  0.3732
  718loPI   C2B 9800   5.143   9.123   7.897  0.1258 -0.0006  0.0091
  718loPI   C3B 9801   5.339   8.972   8.389 -0.0422  0.1286 -0.1171
  718loPI   C4B 9802   5.660   9.245   8.578 -0.2390 -0.1920  0.1037
  719loPI    C1 9803   4.588  15.001   6.789 -0.0452  0.1399 -0.2170
  719loPI    C2 9804   4.797  14.686   6.658 -0.0360  0.0744 -0.0478
  719loPI    C3 9805   4.919  15.057   6.571 -0.0031  0.0330 -0.1813
  719loPI   PO4 9806   4.544  14.929   7.008  0.0193 -0.1517 -0.1506
  719loPI   GL1 9807   4.689  15.040   7.432 -0.1226 -0.2861  0.2990
  719loPI   GL2 9808   4.689  14.746   7.484 -0.1148 -0.1862 -0.3880
  719loPI   C1A 9809   4.785  15.073   7.915 -0.1806 -0.3717  0.2906
  719loPI   C2A 9810   4.788  15.026   8.390 -0.0305  0.1022  0.5630
  719loPI   C3A 9811   4.774  15.137   8.890 -0.1017 -0.1877  0.1482
  719loPI   C4A 9812   4.504  15.277   9.156  0.1071 -0.1640 -0.2398
  719loPI   C5A 9813   4.399  15.248   9.639 -0.1846 -0.3056 -0.2055
  719loPI   C6A 9814   4.533  15.249   9.984 -0.0567  0.2653 -0.0181
  719loPI   C1B 9815   4.461  14.623   7.782 -0.1023  0.0381  0.1091
  719loPI   C2B 9816   4.370  14.643   8.197 -0.1270 -0.0982 -0.1964
  719loPI   C3B 9817   4.481  14.732   8.656 -0.2647  0.0231 -0.1873
  719loPI   C4B 9818   4.378  14.815   9.119  0.2037 -0.1554  0.1449
  720loPI    C1 9819   7.802   6.221   5.851  0.1122 -0.0752 -0.1123
  720loPI    C2 9820   7.559   5.904   5.855 -0.0132  0.0216  0.1397
  720loPI    C3 9821   7.951   5.856   5.914 -0.0210 -0.0945  0.0988
  720loPI   PO4 9822   7.640   6.412   6.036  0.1722 -0.0451  0.0384
  720loPI   GL1 9823   7.710   6.539   6.494 -0.4354 -0.0488 -0.2521
  720loPI   GL2 9824   8.002   6.720   6.416 -0.0375  0.2830 -0.2151
  720loPI   C1A 9825   7.617   6.447   6.982 -0.0834  0.0207 -0.2544
  720loPI   C2A 9826   7.657   6.513   7.406  0.0075 -0.0094 -0.1399
  720loPI   C3A 9827   7.537   6.375   7.769 -0.1582 -0.0937 -0.0940
  720loPI   C4A 9828   7.529   6.366   8.182 -0.0074 -0.1628  0.3084
  720loPI   C5A 9829   7.396   6.474   8.528 -0.0696 -0.0642  0.2164
  720loPI   C6A 9830   7.467   6.761   8.893  0.5440 -0.2111  0.4420
  720loPI   C1B 9831   8.054   6.672   6.879  0.0663  0.2382 -0.0534
  720loPI   C2B 9832   8.160   6.662   7.314  0.1885 -0.0033  0.1409
  720loPI   C3B 9833   8.145   6.593   7.704  0.4133 -0.2958 -0.3365
  720loPI   C4B 9834   8.145   6.740   8.141 -0.2484 -0.1711  0.1075
  721loPI    C1 9835   0.907  14.885   6.786 -0.0793  0.0307 -0.1022
  721loPI    C2 9836   1.288  15.005   6.809 -0.1201  0.1695 -0.1383
  721loPI    C3 9837   1.078  15.071   6.475 -0.1327 -0.0366 -0.1724
  721loPI   PO4 9838   0.857  14.911   7.041 -0.0463  0.0279 -0.0304
  721loPI   GL1 9839   1.039  15.002   7.373 -0.0209  0.1065  0.0479
  721loPI   GL2 9840   1.225  15.253   7.255  0.3054 -0.0677  0.0270
  721loPI   C1A 9841   0.952  15.131   7.773 -0.0605  0.1983  0.2624
  721loPI   C2A 9842   1.029  15.146   8.254 -0.0430  0.3497  0.2369
  721loPI   C3A 9843   0.810  15.358   8.548  0.0365 -0.2217 -0.3868
  721loPI   C4A 9844   0.665  15.489   8.926 -0.0223 -0.0088 -0.0529
  721loPI   C5A 9845   0.648  15.283   9.385 -0.0032  0.1439  0.0571
  721loPI   C6A 9846   0.619  14.857   9.557  0.0457 -0.2963  0.1870
  721loPI   C1B 9847   1.262  15.488   7.586  0.1184 -0.2100 -0.0519
  721loPI   C2B 9848   1.183  15.581   8.071 -0.2123  0.0377  0.0129
  721loPI   C3B 9849   1.243  15.618   8.522  0.0395 -0.1207  0.0783
  721loPI   C4B 9850   1.332  15.234   8.677 -0.0242 -0.2309  0.3691
  722loPI    C1 9851   5.070   7.416   6.096  0.2164  0.1524 -0.1172
  722loPI    C2 9852   4.715   7.377   5.916  0.1611  0.0480  0.0125
  722loPI    C3 9853   5.036   7.483   5.703  0.0335  0.2403 -0.0878
  722loPI   PO4 9854   5.016   7.505   6.354  0.3420  0.0321  0.1869
  722loPI   GL1 9855   5.031   7.522   6.764 -0.2446 -0.0871 -0.0896
  722loPI   GL2 9856   4.802   7.703   6.850 -0.3735 -0.0409  0.0170
  722loPI   C1A 9857   5.364   7.532   7.114  0.1647  0.2569 -0.0490
  722loPI   C2A 9858   5.441   7.654   7.457  0.4987  0.0921  0.2926
  722loPI   C3A 9859   5.579   7.614   7.893 -0.4092  0.0917  0.1257
  722loPI   C4A 9860   5.537   7.598   8.346 -0.3386  0.2029  0.2400
  722loPI   C5A 9861   5.738   7.524   8.763 -0.1875  0.1321 -0.0917
  722loPI   C6A 9862   5.735   7.451   9.162 -0.3367 -0.0507  0.0875
  722loPI   C1B 9863   4.843   7.665   7.241  0.1433 -0.0215 -0.1628
  722loPI   C2B 9864   4.909   7.675   7.652 -0.0385  0.0331  0.0950
  722loPI   C3B 9865   5.094   7.572   7.941  0.1244 -0.1736  0.1327
  722loPI   C4B 9866   5.132   7.326   8.279  0.0962  0.2170 -0.1404
  723loPI    C1 9867  16.056   9.909   6.485  0.0578  0.1828 -0.0114
  723loPI    C2 9868  15.885   9.911   6.123 -0.2016  0.0550  0.1079
  723loPI    C3 9869  16.219   9.700   6.186 -0.0750  0.1925 -0.0916
  723loPI   PO4 9870  15.806  10.010   6.618 -0.1548 -0.0704 -0.0007
  723loPI   GL1 9871  15.449   9.841   6.876 -0.2136 -0.5532  0.0629
  723loPI   GL2 9872  15.144   9.869   6.810 -0.1059 -0.1405 -0.0068
  723loPI   C1A 9873  15.358  10.061   7.294 -0.0968 -0.4046 -0.1454
  723loPI   C2A 9874  15.214  10.066   7.629  0.0947 -0.0955  0.3368
  723loPI   C3A 9875  15.187   9.961   7.959 -0.3409 -0.1740  0.3290
  723loPI   C4A 9876  15.056  10.038   8.300  0.1456  0.2756  0.1776
  723loPI   C5A 9877  15.006   9.981   8.757  0.0672  0.0265 -0.1484
  723loPI   C6A 9878  14.979   9.858   9.201  0.0478 -0.0501 -0.0252
  723loPI   C1B 9879  15.107   9.624   7.228 -0.1585 -0.1451  0.0234
  723loPI   C2B 9880  15.066   9.448   7.580  0.1108  0.0431 -0.0184
  723loPI   C3B 9881  15.038   9.439   8.010  0.0544 -0.1266  0.0509
  723loPI   C4B 9882  14.984   9.547   8.442  0.1635 -0.2314 -0.0010
  724loPI    C1 9883   1.402   8.714   6.539 -0.0578  0.0045  0.1914
  724loPI    C2 9884   1.691   8.989   6.543 -0.1938  0.1573 -0.1450
  724loPI    C3 9885   1.664   8.732   6.238 -0.0404 -0.2655  0.1875
  724loPI   PO4 9886   1.421   8.562   6.773 -0.1581  0.0936  0.1048
  724loPI   GL1 9887   1.532   8.173   7.113 -0.2211  0.0236  0.0561
  724loPI   GL2 9888   1.828   8.204   7.017 -0.1395 -0.1499 -0.2059
  724loPI   C1A 9889   1.498   8.111   7.599  0.2431  0.0846  0.2463
  724loPI   C2A 9890   1.506   8.271   7.974 -0.1753  0.0695  0.0086
  724loPI   C3A 9891   1.363   8.191   8.364  0.0905  0.0753 -0.2653
  724loPI   C4A 9892   1.245   7.813   8.562  0.0328 -0.0131 -0.1240
  724loPI   C5A 9893   0.998   7.733   8.881  0.1936 -0.1518  0.0539
  724loPI   C6A 9894   0.780   7.806   9.296  0.0342  0.2069  0.4222
  724loPI   C1B 9895   2.007   8.302   7.425  0.0816 -0.0076 -0.1193
  724loPI   C2B 9896   2.023   8.204   7.859 -0.0568  0.2763  0.1726
  724loPI   C3B 9897   2.026   8.227   8.344 -0.1165 -0.1424 -0.1428
  724loPI   C4B 9898   2.047   8.189   8.669  0.2700 -0.1464 -0.3216
  725loPI    C1 9899   4.564   9.175   6.587 -0.0417  0.1556  0.1053
  725loPI    C2 9900   4.878   8.927   6.573 -0.1235  0.0440  0.2224
  725loPI    C3 9901   4.685   9.027   6.236 -0.0030  0.0614  0.1582
  725loPI   PO4 9902   4.612   9.348   6.889  0.0027 -0.1612  0.2674
  725loPI   GL1 9903   4.613   9.530   7.159 -0.0522 -0.3161  0.0585
  725loPI   GL2 9904   4.556   9.856   7.225 -0.1745  0.0825  0.2587
  725loPI   C1A 9905   4.670   9.460   7.545 -0.0939  0.2728 -0.2168
  725loPI   C2A 9906   4.825   9.505   7.948  0.0969 -0.3000 -0.0670
  725loPI   C3A 9907   5.233   9.466   8.314 -0.1508 -0.2030 -0.2441
  725loPI   C4A 9908   5.113   9.302   8.696 -0.2169 -0.3108 -0.2514
  725loPI   C5A 9909   5.048   9.149   9.042 -0.3759  0.1568  0.1493
  725loPI   C6A 9910   5.206   8.819   9.321 -0.1222  0.1533  0.1910
  725loPI   C1B 9911   4.709   9.979   7.568  0.1754 -0.1261 -0.2454
  725loPI   C2B 9912   4.741  10.001   8.010  0.1254 -0.1296  0.2123
  725loPI   C3B 9913   4.935   9.837   8.289  0.3113 -0.3582 -0.2671
  725loPI   C4B 9914   5.153   9.849   8.702  0.2602  0.1588  0.3370
  726loPI    C1 9915  14.379   1.383   6.055 -0.2036 -0.2683  0.1035
  726loPI    C2 9916  14.616   1.141   5.843  0.2702  0.2118  0.0640
  726loPI    C3 9917  14.373   1.397   5.655  0.0257  0.0153  0.1068
  726loPI   PO4 9918  14.536   1.407   6.279  0.1646  0.0725 -0.1058
  726loPI   GL1 9919  14.780   1.370   6.505 -0.0143  0.0576  0.0533
  726loPI   GL2 9920  15.019   1.464   6.702 -0.1255 -0.0940 -0.1052
  726loPI   C1A 9921  14.588   1.277   6.937  0.1322 -0.0016 -0.1261
  726loPI   C2A 9922  14.446   1.180   7.385 -0.0649 -0.4104 -0.2592
  726loPI   C3A 9923  14.371   1.235   7.837  0.0874 -0.1595  0.1257
  726loPI   C4A 9924  14.388   1.263   8.258  0.2092  0.2377  0.0116
  726loPI   C5A 9925  14.307   1.529   8.594 -0.0964 -0.2927  0.1818
  726loPI   C6A 9926  14.114   1.922   8.649 -0.0345 -0.1776  0.2444
  726loPI   C1B 9927  14.974   1.439   7.170 -0.1076 -0.0611  0.0134
  726loPI   C2B 9928  14.972   1.490   7.587 -0.0065 -0.1031  0.1960
  726loPI   C3B 9929  14.826   1.432   8.004  0.0089  0.3006 -0.0626
  726loPI   C4B 9930  14.833   1.407   8.495 -0.1005 -0.1335  0.0389
  727loPI    C1 9931   8.436  12.824   6.064  0.1586  0.3043  0.1723
  727loPI    C2 9932   8.237  13.139   5.918  0.1671  0.2340  0.0079
  727loPI    C3 9933   8.327  12.830   5.680 -0.1220 -0.0375  0.2417
  727loPI   PO4 9934   8.341  12.782   6.266  0.0440 -0.2069 -0.3774
  727loPI   GL1 9935   8.263  12.859   6.649  0.2772 -0.0331 -0.3655
  727loPI   GL2 9936   8.526  13.058   6.685 -0.2313 -0.0830  0.3090
  727loPI   C1A 9937   8.196  12.777   7.118  0.2287  0.0385  0.0349
  727loPI   C2A 9938   8.321  12.785   7.566 -0.2252  0.0368 -0.2421
  727loPI   C3A 9939   8.363  12.841   8.005 -0.0403 -0.1387 -0.0928
  727loPI   C4A 9940   8.578  12.932   8.455 -0.1414  0.0127 -0.0914
  727loPI   C5A 9941   8.966  12.767   8.547  0.0047  0.0451  0.3066
  727loPI   C6A 9942   9.280  12.420   8.633  0.5287  0.0657 -0.0804
  727loPI   C1B 9943   8.309  13.288   6.993 -0.3810 -0.1800  0.2952
  727loPI   C2B 9944   8.332  13.381   7.367 -0.1859 -0.1347  0.0808
  727loPI   C3B 9945   8.413  13.336   7.746 -0.2222  0.0299  0.0713
  727loPI   C4B 9946   8.461  13.371   8.192  0.1043 -0.0153  0.3113
  728loPI    C1 9947   4.609   5.984   6.286 -0.1408  0.1861  0.0318
  728loPI    C2 9948   4.770   6.312   6.125 -0.0827  0.1173 -0.0514
  728loPI    C3 9949   4.459   6.134   5.947  0.0015  0.0232 -0.1051
  728loPI   PO4 9950   4.624   5.977   6.513 -0.0620 -0.0686  0.0524
  728loPI   GL1 9951   4.378   6.272   6.943 -0.2724  0.0274  0.2377
  728loPI   GL2 9952   4.637   5.945   7.018 -0.0834  0.0975  0.1853
  728loPI   C1A 9953   4.294   6.388   7.370  0.1118  0.1916 -0.0529
  728loPI   C2A 9954   4.239   6.333   7.865 -0.2539  0.3391  0.1020
  728loPI   C3A 9955   4.208   6.229   8.257 -0.0057 -0.0100 -0.0327
  728loPI   C4A 9956   4.177   6.173   8.677 -0.0410 -0.3221  0.0003
  728loPI   C5A 9957   4.350   6.116   9.070  0.1631  0.3735  0.1148
  728loPI   C6A 9958   4.544   6.310   9.297 -0.1148  0.0530 -0.0421
  728loPI   C1B 9959   4.657   5.999   7.379  0.3581  0.0487 -0.1112
  728loPI   C2B 9960   4.626   6.052   7.792 -0.0275  0.3162  0.3429
  728loPI   C3B 9961   4.651   6.000   8.195  0.1178  0.1304 -0.2875
  728loPI   C4B 9962   4.616   5.866   8.622 -0.0023 -0.1407 -0.3581
  729loPI    C1 9963   8.128   9.091   6.313 -0.1049  0.0749  0.1784
  729loPI    C2 9964   7.753   9.081   6.176  0.0627 -0.3343 -0.2803
  729loPI    C3 9965   8.016   9.339   6.019 -0.0064 -0.0853  0.0035
  729loPI   PO4 9966   8.156   8.898   6.402  0.3050  0.0817  0.2408
  729loPI   GL1 9967   8.077   8.735   6.789 -0.2258  0.3031 -0.2007
  729loPI   GL2 9968   8.092   8.410   6.658  0.3112  0.1624  0.1157
  729loPI   C1A 9969   7.846   8.836   7.237 -0.1491  0.0344 -0.2736
  729loPI   C2A 9970   7.750   8.862   7.742  0.0917 -0.2724 -0.3961
  729loPI   C3A 9971   7.894   8.806   8.103  0.2281  0.0233 -0.0604
  729loPI   C4A 9972   7.792   8.820   8.509 -0.0491  0.3028 -0.1848
  729loPI   C5A 9973   7.834   9.075   8.805 -0.0192 -0.1952 -0.0745
  729loPI   C6A 9974   7.620   9.190   9.063 -0.2047 -0.0499  0.1605
  729loPI   C1B 9975   8.242   8.434   7.107 -0.1068 -0.2729  0.0947
  729loPI   C2B 9976   8.126   8.467   7.533 -0.2320 -0.0230 -0.0460
  729loPI   C3B 9977   8.245   8.494   7.918 -0.2754  0.0794  0.0084
  729loPI   C4B 9978   8.359   8.460   8.297  0.1453 -0.0963 -0.0610
  730loPI    C1 9979   8.067  10.616   5.954 -0.0212 -0.1559  0.0261
  730loPI    C2 9980   8.318  10.315   6.035  0.1058 -0.0482  0.0366
  730loPI    C3 9981   8.389  10.556   5.724 -0.0021 -0.0362  0.0210
  730loPI   PO4 9982   8.027  10.766   6.127  0.0298  0.3425  0.2790
  730loPI   GL1 9983   7.876  11.068   6.538  0.1229  0.0386  0.1095
  730loPI   GL2 9984   8.160  11.023   6.566 -0.1686 -0.2133  0.1356
  730loPI   C1A 9985   7.820  11.249   6.968  0.1493  0.1426 -0.4372
  730loPI   C2A 9986   7.781  11.211   7.492 -0.3951  0.2592 -0.3355
  730loPI   C3A 9987   7.909  11.258   7.896 -0.2819  0.0608 -0.1032
  730loPI   C4A 9988   8.077  11.356   8.240 -0.0539  0.2517 -0.0764
  730loPI   C5A 9989   7.973  11.457   8.570  0.1372 -0.2938  0.0934
  730loPI   C6A 9990   7.530  11.451   8.848 -0.0468 -0.1056  0.0004
  730loPI   C1B 9991   8.172  10.899   6.895 -0.0538 -0.1061  0.0932
  730loPI   C2B 9992   8.159  10.936   7.286  0.2221  0.0548 -0.2306
  730loPI   C3B 9993   8.216  10.895   7.764 -0.0467 -0.2258  0.0341
  730loPI   C4B 9994   8.384  10.925   8.200  0.2110  0.0642  0.3094
  731loPI    C1 9995  12.135  10.414   6.139 -0.2501 -0.0066  0.1650
  731loPI    C2 9996  11.988  10.424   5.767 -0.1736 -0.1102  0.1314
  731loPI    C3 9997  12.377  10.497   5.831 -0.2370  0.1609  0.2196
  731loPI   PO4 9998  12.163  10.291   6.292 -0.1338  0.3540  0.0958
  731loPI   GL1 9999  12.264  10.098   6.597 -0.0884 -0.3842  0.0451
  731loPI   GL210000  12.157   9.759   6.695 -0.4524  0.0609  0.1761
  731loPI   C1A10001  12.467  10.063   6.960 -0.1173 -0.0322  0.0619
  731loPI   C2A10002  12.615  10.080   7.429 -0.1869  0.0092  0.0183
  731loPI   C3A10003  12.769   9.895   7.829  0.3873 -0.2849 -0.1435
  731loPI   C4A10004  12.778   9.730   8.228  0.1911  0.1519  0.2208
  731loPI   C5A10005  12.500   9.427   8.394  0.2982  0.4849  0.1130
  731loPI   C6A10006  12.196   9.256   8.676 -0.2961 -0.4736  0.2019
  731loPI   C1B10007  12.164   9.706   7.169 -0.0987 -0.1253 -0.0613
  731loPI   C2B10008  12.288   9.755   7.627  0.2181 -0.1879  0.0760
  731loPI   C3B10009  12.272   9.676   7.979  0.2749 -0.1470 -0.1434
  731loPI   C4B10010  11.963   9.682   8.416 -0.2962  0.0553 -0.1382
  732loPI    C110011  10.462  12.507   5.895  0.0253  0.0186 -0.0400
  732loPI    C210012  10.082  12.393   5.845  0.0259  0.0461 -0.1091
  732loPI    C310013  10.349  12.330   5.554  0.0077  0.2992 -0.1825
  732loPI   PO410014  10.432  12.579   6.243  0.3650  0.0740  0.3283
  732loPI   GL110015  10.341  12.756   6.640 -0.1084 -0.0898  0.0905
  732loPI   GL210016  10.525  12.485   6.697 -0.0637  0.0468 -0.3144
  732loPI   C1A10017  10.195  12.733   7.027  0.2332 -0.1731  0.0152
  732loPI   C2A10018  10.178  12.832   7.453  0.0549 -0.0933  0.0814
  732loPI   C3A10019  10.255  12.877   7.897  0.0767 -0.1595 -0.0542
  732loPI   C4A10020  10.165  12.870   8.332  0.3232 -0.0342  0.0701
  732loPI   C5A10021  10.009  12.937   8.785 -0.0081  0.0519  0.1834
  732loPI   C6A10022   9.791  13.034   9.115  0.1672 -0.0565 -0.2637
  732loPI   C1B10023  10.599  12.406   7.106 -0.0975 -0.0122  0.0980
  732loPI   C2B10024  10.583  12.458   7.455  0.0133 -0.0112 -0.1068
  732loPI   C3B10025  10.709  12.529   7.875 -0.1089  0.1312 -0.0043
  732loPI   C4B10026  10.629  12.747   8.247  0.1376  0.2841  0.0809
  733loPI    C110027   8.510   9.532   6.036  0.0010 -0.0811  0.1314
  733loPI    C210028   8.332   9.844   5.859  0.0076  0.0060  0.2760
  733loPI    C310029   8.469   9.539   5.638 -0.1743  0.0138  0.1501
  733loPI   PO410030   8.406   9.631   6.405  0.0496  0.2231  0.0903
  733loPI   GL110031   8.251   9.533   6.790  0.0661 -0.1801  0.1051
  733loPI   GL210032   8.368   9.223   6.811  0.0756  0.0838  0.0354
  733loPI   C1A10033   8.497   9.593   7.120  0.1745 -0.1465  0.2224
  733loPI   C2A10034   8.495   9.424   7.471 -0.0136  0.1986 -0.3229
  733loPI   C3A10035   8.457   9.453   7.930 -0.1621  0.0897  0.0997
  733loPI   C4A10036   8.397   9.475   8.344  0.2331 -0.0659 -0.3128
  733loPI   C5A10037   8.519   9.762   8.679 -0.2246 -0.2520  0.1126
  733loPI   C6A10038   8.517  10.194   8.737 -0.1668  0.1509 -0.2883
  733loPI   C1B10039   8.382   9.008   7.161  0.0094  0.0765  0.2153
  733loPI   C2B10040   8.345   8.926   7.643 -0.0364 -0.1761 -0.1058
  733loPI   C3B10041   8.388   8.992   8.089 -0.1575 -0.1985 -0.0083
  733loPI   C4B10042   8.412   8.925   8.569 -0.2076  0.2375 -0.1483
  734loPI    C110043  16.339  14.150   6.507 -0.0865 -0.1968  0.0787
  734loPI    C210044  16.585  14.386   6.717 -0.3428  0.0195  0.1411
  734loPI    C310045  16.527  14.454   6.327 -0.1153 -0.1847  0.0693
  734loPI   PO410046  16.098  14.158   6.707  0.0197  0.0249 -0.1965
  734loPI   GL110047  16.015  14.294   7.098 -0.2127 -0.1087  0.4290
  734loPI   GL210048  16.304  14.227   7.188  0.2791 -0.1016  0.1005
  734loPI   C1A10049  15.843  14.460   7.340 -0.3594 -0.2015  0.2321
  734loPI   C2A10050  15.840  14.513   7.699  0.0772  0.1807  0.2159
  734loPI   C3A10051  15.856  14.478   8.069 -0.3333 -0.0695 -0.2103
  734loPI   C4A10052  15.682  14.514   8.405  0.0994  0.0563 -0.2153
  734loPI   C5A10053  15.481  14.406   8.695 -0.1378  0.0922 -0.0315
  734loPI   C6A10054  15.359  14.128   8.969 -0.2096  0.1209  0.2861
  734loPI   C1B10055  16.228  14.240   7.602 -0.1993  0.0034  0.3261
  734loPI   C2B10056  16.316  14.235   7.909  0.1877  0.0442  0.1245
  734loPI   C3B10057  16.406  14.348   8.230  0.1433  0.2956 -0.0223
  734loPI   C4B10058  16.392  14.245   8.632  0.0432 -0.2598  0.2762
  735loPI    C110059  14.350   3.274   6.295  0.1077 -0.2814 -0.1089
  735loPI    C210060  14.738   3.280   6.198  0.0281  0.1463 -0.4313
  735loPI    C310061  14.462   3.221   5.914 -0.1421 -0.3158 -0.1795
  735loPI   PO410062  14.309   3.426   6.473 -0.0243 -0.0571 -0.0718
  735loPI   GL110063  14.199   3.675   6.759  0.0116 -0.2373  0.1221
  735loPI   GL210064  13.935   3.862   6.744 -0.1137 -0.1379 -0.0797
  735loPI   C1A10065  14.318   3.632   7.130  0.2518  0.1843  0.0799
  735loPI   C2A10066  14.322   3.597   7.521  0.1967  0.0571  0.0044
  735loPI   C3A10067  14.527   3.483   7.882 -0.1040  0.0893 -0.6060
  735loPI   C4A10068  14.677   3.675   8.237  0.0525 -0.0626  0.2231
  735loPI   C5A10069  14.942   3.667   8.606 -0.2790 -0.2993 -0.0950
  735loPI   C6A10070  15.282   3.808   8.582  0.1339 -0.1158  0.3865
  735loPI   C1B10071  13.996   3.996   7.154  0.1248  0.0200 -0.2473
  735loPI   C2B10072  14.067   4.000   7.604 -0.0136 -0.2588 -0.1195
  735loPI   C3B10073  14.114   3.816   7.998  0.0556 -0.0327  0.0978
  735loPI   C4B10074  14.093   3.974   8.439 -0.0058  0.0174 -0.2175
  736loPI    C110075   9.516  16.700   5.614 -0.1369 -0.0661  0.0182
  736loPI    C210076   9.744  16.454   5.833  0.0094  0.0723  0.0233
  736loPI    C310077   9.729  16.413   5.435 -0.1191 -0.0674  0.0418
  736loPI   PO410078   9.317  16.781   5.839 -0.1243  0.4081 -0.2067
  736loPI   GL110079   9.527  16.782   6.161  0.1407 -0.1867  0.0759
  736loPI   GL210080   9.725  16.946   6.330  0.1583 -0.0213  0.3076
  736loPI   C1A10081   9.565  16.569   6.659 -0.1382 -0.1535 -0.1669
  736loPI   C2A10082   9.679  16.591   7.135 -0.4055 -0.0920  0.2176
  736loPI   C3A10083   9.705  16.636   7.552 -0.3092 -0.1101  0.3549
  736loPI   C4A10084   9.735  16.638   7.936 -0.3746 -0.1118 -0.0380
  736loPI   C5A10085   9.804  16.674   8.376  0.1801  0.2543 -0.3632
  736loPI   C6A10086  10.139  16.696   8.691  0.0763  0.1900  0.0079
  736loPI   C1B10087   9.673  17.050   6.865 -0.2081  0.1325 -0.0420
  736loPI   C2B10088   9.702  17.202   7.284  0.1151 -0.2520 -0.0568
  736loPI   C3B10089   9.806  17.093   7.711  0.1893  0.3749  0.0683
  736loPI   C4B10090   9.880  17.159   8.055 -0.1386  0.1165 -0.1727
  737loPI    C110091  16.833   4.629   6.061 -0.1361  0.3498 -0.0672
  737loPI    C210092  17.162   4.832   6.165  0.0604  0.0988 -0.1869
  737loPI    C310093  17.184   4.544   5.888 -0.2069 -0.1070  0.0000
  737loPI   PO410094  16.774   4.535   6.344  0.0066  0.0128  0.1158
  737loPI   GL110095  16.774   4.653   6.809 -0.0979 -0.1592 -0.0602
  737loPI   GL210096  17.132   4.686   6.658 -0.0997  0.0529 -0.0756
  737loPI   C1A10097  16.619   4.775   7.101 -0.1802 -0.1261  0.0286
  737loPI   C2A10098  16.730   4.751   7.479 -0.1813  0.3865  0.0275
  737loPI   C3A10099  16.652   4.814   7.879  0.0429  0.0170  0.1010
  737loPI   C4A10100  16.669   4.610   8.184 -0.0410  0.1008 -0.1922
  737loPI   C5A10101  16.754   4.757   8.606  0.1549  0.2797  0.1869
  737loPI   C6A10102  16.505   4.758   9.011 -0.1431 -0.0946  0.0421
  737loPI   C1B10103  17.105   4.779   7.164 -0.1782  0.1694 -0.0750
  737loPI   C2B10104  17.268   4.769   7.550 -0.0545 -0.2616 -0.3725
  737loPI   C3B10105  17.187   4.823   7.985  0.1836 -0.2025  0.1713
  737loPI   C4B10106  17.234   4.792   8.474 -0.2471  0.1931 -0.1898
  738loPI    C110107  15.590   6.215   5.928  0.1570 -0.0596 -0.0002
  738loPI    C210108  15.806   6.498   5.744  0.0477 -0.1268 -0.2360
  738loPI    C310109  15.478   6.351   5.569 -0.1371 -0.0953  0.0756
  738loPI   PO410110  15.519   6.288   6.228 -0.0589 -0.3639  0.0060
  738loPI   GL110111  15.347   6.606   6.505 -0.0683 -0.0882 -0.2008
  738loPI   GL210112  15.387   6.813   6.679 -0.0059  0.0687  0.0340
  738loPI   C1A10113  15.148   6.411   6.820  0.2829  0.1520 -0.0979
  738loPI   C2A10114  15.130   6.275   7.236 -0.1475 -0.0813  0.1733
  738loPI   C3A10115  15.149   6.275   7.661  0.3497 -0.0067  0.0716
  738loPI   C4A10116  15.112   6.285   8.087 -0.0292  0.0931  0.0034
  738loPI   C5A10117  15.284   5.971   8.321 -0.0277  0.2858 -0.0877
  738loPI   C6A10118  15.676   5.695   8.434  0.2250 -0.4546 -0.2779
  738loPI   C1B10119  15.208   6.838   7.121 -0.0181  0.0540 -0.0318
  738loPI   C2B10120  15.192   6.739   7.495  0.0813 -0.0391 -0.0759
  738loPI   C3B10121  15.256   6.787   7.926 -0.3863 -0.0281 -0.3419
  738loPI   C4B10122  15.216   6.935   8.338  0.1526  0.1475  0.2204
  739loPI    C110123   7.940   4.101   5.893  0.1854 -0.3303  0.3020
  739loPI    C210124   7.640   3.907   5.714  0.1975 -0.1242  0.0505
  739loPI    C310125   7.958   4.021   5.501  0.0985  0.3509  0.1455
  739loPI   PO410126   7.924   4.015   6.154 -0.0176 -0.0400  0.0888
  739loPI   GL110127   7.878   3.608   6.485 -0.2483  0.1096 -0.2063
  739loPI   GL210128   8.086   3.284   6.376 -0.3009  0.3694  0.2785
  739loPI   C1A10129   7.836   3.617   6.965 -0.0325 -0.1065  0.1205
  739loPI   C2A10130   7.907   3.706   7.402 -0.0612  0.3121 -0.2252
  739loPI   C3A10131   7.885   3.667   7.906 -0.2868  0.1054 -0.2217
  739loPI   C4A10132   7.755   3.617   8.397 -0.0971  0.0260 -0.0262
  739loPI   C5A10133   7.790   3.610   8.854 -0.3927 -0.0402 -0.0085
  739loPI   C6A10134   7.793   3.255   9.062 -0.3343  0.0477 -0.2113
  739loPI   C1B10135   8.197   3.246   6.750 -0.2023 -0.0667 -0.1995
  739loPI   C2B10136   8.145   3.243   7.130  0.0360  0.2701 -0.1284
  739loPI   C3B10137   8.258   3.254   7.514 -0.3594  0.0229  0.1966
  739loPI   C4B10138   8.297   3.350   7.981  0.0226  0.1373 -0.1153
  740loPI    C110139   8.902   0.963   5.973 -0.2128  0.0553  0.1798
  740loPI    C210140   8.648   0.705   5.802  0.0583 -0.1596  0.0931
  740loPI    C310141   8.917   0.900   5.579 -0.0261  0.0649  0.1842
  740loPI   PO410142   8.938   0.837   6.213  0.2523 -0.3796  0.2393
  740loPI   GL110143   9.178   0.536   6.389  0.2085 -0.0325  0.0966
  740loPI   GL210144   9.036   0.458   6.618  0.1113  0.1315 -0.0296
  740loPI   C1A10145   9.476   0.737   6.711 -0.2291  0.2276 -0.2974
  740loPI   C2A10146   9.512   0.918   7.107  0.1043 -0.0637  0.0411
  740loPI   C3A10147   9.561   0.859   7.512  0.1276  0.1417  0.0674
  740loPI   C4A10148   9.571   0.769   7.944  0.1552  0.0400 -0.0334
  740loPI   C5A10149   9.575   0.897   8.334  0.0530 -0.0092  0.1203
  740loPI   C6A10150   9.586   1.242   8.475  0.0761 -0.0602  0.2300
  740loPI   C1B10151   9.000   0.758   6.920 -0.0266 -0.2240  0.1255
  740loPI   C2B10152   9.006   0.733   7.306 -0.2471 -0.1239  0.0473
  740loPI   C3B10153   9.089   0.735   7.667  0.2152  0.0269  0.1414
  740loPI   C4B10154   9.144   0.616   8.129  0.0097 -0.0898 -0.0524
  741loPI    C110155   6.601   4.462   5.793 -0.1406 -0.0031 -0.0809
  741loPI    C210156   6.356   4.439   5.477 -0.0363  0.1044 -0.1707
  741loPI    C310157   6.745   4.515   5.423 -0.0463  0.2791 -0.0056
  741loPI   PO410158   6.416   4.551   5.997  0.0973  0.0190  0.1199
  741loPI   GL110159   6.466   4.656   6.373  0.0005 -0.1569 -0.2095
  741loPI   GL210160   6.267   4.599   6.711 -0.1722 -0.0244 -0.1168
  741loPI   C1A10161   6.738   4.720   6.836 -0.0818  0.1729 -0.0930
  741loPI   C2A10162   6.663   4.734   7.265 -0.2899  0.0515 -0.0662
  741loPI   C3A10163   6.729   4.643   7.759 -0.2364  0.1203 -0.0409
  741loPI   C4A10164   6.847   4.676   8.223  0.0225  0.1297  0.0534
  741loPI   C5A10165   6.680   4.858   8.641  0.2036 -0.0307 -0.0877
  741loPI   C6A10166   6.680   5.302   8.690 -0.0229  0.0520  0.0109
  741loPI   C1B10167   6.154   4.742   7.169 -0.2784  0.1041  0.1139
  741loPI   C2B10168   6.196   4.768   7.576  0.1029 -0.0696  0.0970
  741loPI   C3B10169   6.195   4.465   7.965  0.0589 -0.4409  0.0141
  741loPI   C4B10170   6.398   4.530   8.434 -0.0930 -0.0959  0.0423
  742loPI    C110171   3.079   4.394   6.204  0.1330 -0.2534  0.0942
  742loPI    C210172   2.694   4.286   6.217  0.0717 -0.0505  0.0092
  742loPI    C310173   2.950   4.085   5.985  0.0829 -0.3774  0.2958
  742loPI   PO410174   3.132   4.478   6.473 -0.0732 -0.0977  0.0158
  742loPI   GL110175   3.048   4.363   6.898 -0.2572  0.0196 -0.2722
  742loPI   GL210176   3.160   4.118   7.039  0.0855 -0.0081 -0.0288
  742loPI   C1A10177   2.808   4.509   7.107  0.3080 -0.1587  0.2172
  742loPI   C2A10178   2.697   4.598   7.444 -0.1969  0.2427 -0.0692
  742loPI   C3A10179   2.783   4.676   7.900  0.1297  0.0891  0.2382
  742loPI   C4A10180   2.885   4.570   8.283  0.1182 -0.1737  0.1388
  742loPI   C5A10181   2.850   4.638   8.686  0.2093 -0.5582 -0.2426
  742loPI   C6A10182   2.732   4.344   8.992  0.1355 -0.1265 -0.0772
  742loPI   C1B10183   3.156   4.254   7.423 -0.1109 -0.0881  0.0999
  742loPI   C2B10184   3.157   4.209   7.919  0.0910 -0.1685 -0.1177
  742loPI   C3B10185   3.238   4.194   8.282  0.1571  0.1097 -0.2952
  742loPI   C4B10186   3.149   4.193   8.651  0.0338 -0.0961  0.2382
  743loPI    C110187   1.388  11.279   6.661  0.1582  0.1880  0.0548
  743loPI    C210188   1.367  11.114   6.298  0.2551 -0.0331  0.1480
  743loPI    C310189   1.232  11.486   6.356 -0.2048 -0.1681 -0.0099
  743loPI   PO410190   1.391  11.067   6.809 -0.1509  0.0044 -0.0700
  743loPI   GL110191   1.534  10.935   7.241 -0.3465  0.2356  0.0817
  743loPI   GL210192   1.563  10.645   7.416 -0.3316  0.1470 -0.0176
  743loPI   C1A10193   1.611  11.166   7.566 -0.3341  0.1282 -0.3023
  743loPI   C2A10194   1.571  11.237   7.900  0.0601  0.3189 -0.1520
  743loPI   C3A10195   1.607  11.340   8.317  0.1525 -0.3016 -0.2413
  743loPI   C4A10196   1.504  11.418   8.751 -0.0054 -0.0517 -0.0749
  743loPI   C5A10197   1.454  11.641   9.121  0.0085 -0.1286  0.0441
  743loPI   C6A10198   1.593  11.988   9.233 -0.1705  0.1693 -0.0964
  743loPI   C1B10199   1.568  10.706   7.912 -0.2891 -0.1471  0.1033
  743loPI   C2B10200   1.745  10.825   8.254 -0.0838  0.2210 -0.3808
  743loPI   C3B10201   1.827  10.901   8.618 -0.0866  0.1465  0.0095
  743loPI   C4B10202   2.260  10.901   8.904  0.0597  0.0056  0.0654
  744loPI    C110203   8.536   5.232   5.713  0.0859 -0.1706 -0.0095
  744loPI    C210204   8.766   5.423   5.448  0.1831 -0.4482 -0.1290
  744loPI    C310205   8.466   5.191   5.321 -0.0518 -0.2320  0.0209
  744loPI   PO410206   8.633   5.365   5.949 -0.1729 -0.2449 -0.1486
  744loPI   GL110207   8.702   5.178   6.318 -0.0604  0.3001 -0.0958
  744loPI   GL210208   8.475   5.501   6.481 -0.1658  0.1060  0.0773
  744loPI   C1A10209   8.560   5.054   6.816 -0.0468  0.0008  0.1203
  744loPI   C2A10210   8.612   4.965   7.175  0.2145 -0.0466  0.3150
  744loPI   C3A10211   8.724   4.870   7.636 -0.2681 -0.0271  0.4754
  744loPI   C4A10212   8.823   4.937   8.015 -0.0825  0.1297 -0.0739
  744loPI   C5A10213   9.182   4.880   8.304 -0.1513  0.0162  0.3126
  744loPI   C6A10214   9.569   4.940   8.529  0.0160  0.0509 -0.1233
  744loPI   C1B10215   8.719   5.492   6.869 -0.1132  0.1319 -0.4415
  744loPI   C2B10216   8.688   5.464   7.300  0.2471  0.1469  0.0963
  744loPI   C3B10217   8.765   5.401   7.761  0.1418 -0.0920  0.0929
  744loPI   C4B10218   8.794   5.397   8.176 -0.1232 -0.0927 -0.0890
  745loPI    C110219   3.518  16.185   6.599 -0.0097  0.1713  0.2363
  745loPI    C210220   3.800  15.973   6.412 -0.3332 -0.2267  0.1860
  745loPI    C310221   3.496  16.129   6.204 -0.1050  0.2888  0.2242
  745loPI   PO410222   3.678  16.357   6.769  0.0086  0.0710  0.0428
  745loPI   GL110223   3.741  16.527   7.097 -0.0194  0.5443  0.0268
  745loPI   GL210224   4.101  16.527   6.939  0.1895 -0.0329 -0.0842
  745loPI   C1A10225   3.696  16.657   7.437  0.1532  0.2868  0.2782
  745loPI   C2A10226   3.731  16.722   7.904  0.1736  0.1388  0.0584
  745loPI   C3A10227   3.628  16.730   8.398  0.1205 -0.0295  0.0193
  745loPI   C4A10228   3.373  16.528   8.684  0.0077  0.2695  0.0335
  745loPI   C5A10229   3.111  16.406   9.058 -0.0205  0.3928  0.1841
  745loPI   C6A10230   3.112  16.480   9.454 -0.1931 -0.0718 -0.0163
  745loPI   C1B10231   4.164  16.834   7.229  0.1812  0.0025 -0.5432
  745loPI   C2B10232   4.161  16.829   7.605  0.1152 -0.0446 -0.2884
  745loPI   C3B10233   4.187  16.841   8.078 -0.0489 -0.0762  0.0154
  745loPI   C4B10234   4.090  16.629   8.563 -0.1366 -0.2030 -0.0140
  746loPI    C110235  10.727  13.960   6.073 -0.3909 -0.0857  0.1950
  746loPI    C210236  10.943  13.932   5.738 -0.0878  0.2765  0.3532
  746loPI    C310237  10.589  13.749   5.763  0.0891 -0.1307  0.0031
  746loPI   PO410238  10.949  13.990   6.295 -0.2045  0.0453 -0.0506
  746loPI   GL110239  11.252  14.061   6.568 -0.3601 -0.0305 -0.3167
  746loPI   GL210240  11.408  14.362   6.570 -0.1311 -0.3391 -0.1583
  746loPI   C1A10241  11.097  13.918   6.956  0.0112 -0.1331  0.0049
  746loPI   C2A10242  10.942  13.890   7.311 -0.0803 -0.0818 -0.0091
  746loPI   C3A10243  10.998  14.097   7.763  0.0789  0.0122  0.0156
  746loPI   C4A10244  11.057  14.312   8.163  0.0337 -0.0134  0.0781
  746loPI   C5A10245  10.894  14.558   8.618 -0.0031 -0.4206 -0.1366
  746loPI   C6A10246  10.558  14.696   8.784  0.0723 -0.0826 -0.3003
  746loPI   C1B10247  11.535  14.206   7.002  0.0162  0.1622  0.0086
  746loPI   C2B10248  11.556  13.986   7.397 -0.3203  0.1911 -0.1147
  746loPI   C3B10249  11.486  14.298   7.789 -0.0058  0.1585  0.2971
  746loPI   C4B10250  11.553  14.450   8.115 -0.0118  0.1789  0.1060
  747loPI    C110251  12.311  15.876   5.929  0.1326  0.1021 -0.0567
  747loPI    C210252  12.450  15.854   5.554  0.0428  0.0368 -0.0864
  747loPI    C310253  12.314  15.525   5.737 -0.0116  0.0880 -0.0343
  747loPI   PO410254  12.497  15.984   6.103  0.0380  0.1555 -0.0528
  747loPI   GL110255  12.505  16.019   6.533 -0.1472 -0.1736 -0.4140
  747loPI   GL210256  12.541  16.377   6.552  0.2559  0.0919 -0.0090
  747loPI   C1A10257  12.426  15.900   6.932 -0.2051  0.1601 -0.0684
  747loPI   C2A10258  12.386  15.894   7.266 -0.4724  0.1060 -0.1385
  747loPI   C3A10259  12.344  15.926   7.734 -0.1440 -0.2244  0.0329
  747loPI   C4A10260  12.445  15.868   8.147 -0.1508  0.2834  0.1895
  747loPI   C5A10261  12.538  16.083   8.475  0.1773 -0.1864 -0.0640
  747loPI   C6A10262  12.553  16.480   8.878 -0.2695  0.2970 -0.1473
  747loPI   C1B10263  12.507  16.385   7.021 -0.1562  0.0287  0.0478
  747loPI   C2B10264  12.418  16.418   7.520 -0.0064 -0.0183  0.0944
  747loPI   C3B10265  12.410  16.402   8.008  0.0162 -0.1581 -0.0886
  747loPI   C4B10266  12.588  16.574   8.359  0.2325  0.1410 -0.0730
  748loPI    C110267   0.198  14.305   6.559 -0.0310 -0.0513  0.0426
  748loPI    C210268  -0.153  14.419   6.405  0.0285 -0.0123 -0.0659
  748loPI    C310269   0.026  14.087   6.271  0.0970  0.0404 -0.1054
  748loPI   PO410270   0.190  14.287   6.758 -0.0165 -0.1411  0.2449
  748loPI   GL110271   0.346  14.247   7.182 -0.0551  0.0620 -0.0123
  748loPI   GL210272   0.182  13.955   7.205 -0.3256 -0.1930 -0.0528
  748loPI   C1A10273   0.294  14.514   7.582  0.0991 -0.2226 -0.2502
  748loPI   C2A10274   0.329  14.464   8.074 -0.0744 -0.1151 -0.1101
  748loPI   C3A10275   0.354  14.443   8.431  0.1558  0.1736  0.0431
  748loPI   C4A10276   0.457  14.627   8.803 -0.0956 -0.0961 -0.0272
  748loPI   C5A10277   0.767  14.614   9.157  0.2336  0.2411  0.0998
  748loPI   C6A10278   1.065  14.839   9.390  0.0084  0.3674  0.0274
  748loPI   C1B10279   0.238  14.003   7.597  0.2839  0.0063 -0.1517
  748loPI   C2B10280   0.197  13.963   8.025 -0.1207  0.2314 -0.0526
  748loPI   C3B10281   0.212  13.972   8.470  0.1483 -0.0122  0.1141
  748loPI   C4B10282   0.127  14.167   8.845 -0.4358 -0.0699 -0.0716
  749loPI    C110283  15.534   6.845   6.135 -0.0865 -0.0524  0.0244
  749loPI    C210284  15.610   7.147   5.885 -0.0470 -0.0464  0.0435
  749loPI    C310285  15.379   6.843   5.766 -0.0938 -0.0048  0.0271
  749loPI   PO410286  15.720   6.762   6.229  0.0967  0.0027 -0.1026
  749loPI   GL110287  15.899   6.823   6.678  0.1442  0.1338  0.0368
  749loPI   GL210288  15.805   6.445   6.688 -0.0030  0.0081 -0.1720
  749loPI   C1A10289  15.686   6.894   7.160  0.1219 -0.2851  0.3875
  749loPI   C2A10290  15.690   6.854   7.622 -0.0834 -0.1707 -0.0942
  749loPI   C3A10291  15.744   6.889   8.011  0.0516  0.3070  0.0078
  749loPI   C4A10292  15.933   6.888   8.405  0.2531 -0.1293  0.0321
  749loPI   C5A10293  15.904   6.622   8.700  0.1402 -0.0546 -0.3192
  749loPI   C6A10294  15.845   6.386   9.115  0.0243 -0.0739 -0.2146
  749loPI   C1B10295  15.617   6.408   7.058 -0.0889 -0.1919 -0.0757
  749loPI   C2B10296  15.587   6.381   7.503 -0.0540 -0.1144  0.1075
  749loPI   C3B10297  15.603   6.456   7.936 -0.3171  0.3601  0.0581
  749loPI   C4B10298  15.532   6.539   8.355  0.2080  0.4640  0.2216
  750loPI    C110299   4.413   2.863   6.553  0.2958  0.1159  0.1381
  750loPI    C210300   4.535   3.002   6.198 -0.0476  0.0312 -0.0167
  750loPI    C310301   4.578   2.614   6.286  0.1013  0.0651  0.0641
  750loPI   PO410302   4.551   2.937   6.718 -0.1454  0.0626  0.3747
  750loPI   GL110303   4.643   2.895   7.100 -0.1497  0.3817  0.0615
  750loPI   GL210304   4.714   2.597   7.103 -0.1814 -0.0868  0.1474
  750loPI   C1A10305   4.496   3.071   7.359  0.1035 -0.1525 -0.1459
  750loPI   C2A10306   4.333   3.028   7.833 -0.2958  0.2065  0.0183
  750loPI   C3A10307   4.230   3.164   8.362 -0.1214 -0.3227 -0.1635
  750loPI   C4A10308   4.143   3.312   8.763  0.0260 -0.1449 -0.0561
  750loPI   C5A10309   4.476   3.253   9.005 -0.2081  0.0995 -0.2443
  750loPI   C6A10310   4.791   3.447   9.275 -0.1772 -0.0348 -0.0596
  750loPI   C1B10311   4.762   2.689   7.519 -0.0804 -0.1466  0.2751
  750loPI   C2B10312   4.746   2.671   7.859 -0.1001  0.1262 -0.1282
  750loPI   C3B10313   4.760   2.732   8.268  0.2131 -0.2801 -0.0375
  750loPI   C4B10314   4.841   2.687   8.654 -0.0502  0.1649 -0.3931
  751loPI    C110315  14.678  11.887   6.331 -0.1338 -0.1326  0.0807
  751loPI    C210316  14.399  11.988   6.063  0.0860 -0.1515 -0.1591
  751loPI    C310317  14.508  11.605   6.105  0.0210 -0.1545 -0.0096
  751loPI   PO410318  14.565  11.950   6.563 -0.0892  0.2822  0.0531
  751loPI   GL110319  14.301  11.880   6.937 -0.0617  0.2343  0.1245
  751loPI   GL210320  14.419  12.210   6.995  0.1995  0.0253 -0.3879
  751loPI   C1A10321  14.216  11.705   7.314 -0.4188 -0.0632  0.1246
  751loPI   C2A10322  14.211  11.611   7.670  0.0050  0.1746  0.0589
  751loPI   C3A10323  14.094  11.610   8.176  0.3765 -0.0989 -0.2241
  751loPI   C4A10324  14.028  11.618   8.595 -0.0719  0.1617  0.0391
  751loPI   C5A10325  14.049  11.484   8.971 -0.1881 -0.0672 -0.0178
  751loPI   C6A10326  14.042  11.348   9.341 -0.3621 -0.2293  0.0870
  751loPI   C1B10327  14.367  12.248   7.423 -0.0905 -0.0280 -0.0460
  751loPI   C2B10328  14.327  12.164   7.834  0.1406 -0.1039  0.2154
  751loPI   C3B10329  14.245  12.196   8.265  0.0914 -0.1744  0.0803
  751loPI   C4B10330  14.153  12.218   8.665 -0.2370 -0.0952  0.3069
  752loPI    C110331  12.022  16.718   5.808  0.0510  0.0364  0.1236
  752loPI    C210332  11.950  17.045   5.590  0.2588  0.0976  0.1446
  752loPI    C310333  12.092  16.715   5.414 -0.0763 -0.0273  0.1008
  752loPI   PO410334  12.032  16.831   6.002 -0.0605  0.1677 -0.3582
  752loPI   GL110335  12.051  16.650   6.470 -0.2965 -0.0730 -0.2106
  752loPI   GL210336  11.813  16.583   6.363  0.3796 -0.2390 -0.1853
  752loPI   C1A10337  12.159  16.739   6.917 -0.1372  0.2578  0.1978
  752loPI   C2A10338  12.102  16.760   7.390  0.0673  0.0978  0.1461
  752loPI   C3A10339  11.992  16.800   7.813  0.0953  0.0187 -0.1629
  752loPI   C4A10340  12.023  16.715   8.323  0.1655  0.4313  0.1243
  752loPI   C5A10341  12.131  16.321   8.436  0.2069 -0.4729  0.1053
  752loPI   C6A10342  12.048  16.107   8.827  0.1553 -0.0051 -0.2612
  752loPI   C1B10343  11.525  16.598   6.646  0.0770 -0.0972 -0.1047
  752loPI   C2B10344  11.406  16.566   7.051 -0.1127  0.4221  0.1235
  752loPI   C3B10345  11.552  16.645   7.442  0.0770 -0.1187  0.1443
  752loPI   C4B10346  11.438  16.782   7.876 -0.1619  0.2971  0.2468
  753loPI    C110347  13.869   8.758   5.920  0.0054 -0.1299  0.1038
  753loPI    C210348  14.045   8.406   5.993 -0.0035 -0.1309  0.1201
  753loPI    C310349  13.770   8.436   5.704  0.0621 -0.1173  0.0588
  753loPI   PO410350  13.832   8.854   6.156 -0.0035  0.0441 -0.1040
  753loPI   GL110351  13.979   8.619   6.520  0.1496 -0.2808  0.1512
  753loPI   GL210352  13.914   8.323   6.553  0.1359  0.0141  0.3205
  753loPI   C1A10353  13.907   8.829   6.883  0.3087 -0.0938  0.0582
  753loPI   C2A10354  13.935   8.803   7.319 -0.0683  0.1266 -0.0554
  753loPI   C3A10355  13.891   8.786   7.767  0.3627 -0.0003 -0.0152
  753loPI   C4A10356  13.911   8.706   8.157  0.1267  0.3075  0.3697
  753loPI   C5A10357  13.790   8.683   8.572 -0.2790 -0.2354 -0.0831
  753loPI   C6A10358  14.053   8.542   8.965  0.1811  0.0976  0.2730
  753loPI   C1B10359  13.808   8.352   7.026 -0.2777  0.2191 -0.5943
  753loPI   C2B10360  13.857   8.250   7.448 -0.4057  0.1841  0.3123
  753loPI   C3B10361  13.795   8.281   7.807  0.2114 -0.1663  0.0678
  753loPI   C4B10362  13.730   8.121   8.142  0.1341  0.0407 -0.1195
  754loPI    C110363   9.443   5.292   5.895 -0.1435 -0.1363 -0.1298
  754loPI    C210364   9.172   5.102   6.119 -0.1683  0.0040 -0.0394
  754loPI    C310365   9.076   5.226   5.751 -0.1914 -0.0468 -0.0504
  754loPI   PO410366   9.489   5.501   6.113  0.0324 -0.2342  0.1586
  754loPI   GL110367   9.475   5.795   6.468  0.0298  0.1223 -0.0230
  754loPI   GL210368   9.661   5.987   6.426  0.1137 -0.2194 -0.0485
  754loPI   C1A10369   9.342   5.626   6.919 -0.0255 -0.0630 -0.3034
  754loPI   C2A10370   9.194   5.561   7.130  0.0090 -0.1337  0.0006
  754loPI   C3A10371   9.233   5.557   7.546 -0.0145  0.1209  0.0885
  754loPI   C4A10372   9.292   5.589   8.017 -0.0982  0.1023 -0.3349
  754loPI   C5A10373   9.192   5.370   8.450 -0.2317 -0.0922 -0.0017
  754loPI   C6A10374   9.283   5.172   8.850 -0.3001  0.2546  0.1024
  754loPI   C1B10375   9.794   5.813   6.833  0.0444 -0.0129 -0.0297
  754loPI   C2B10376   9.881   5.772   7.262 -0.1075 -0.1647 -0.0558
  754loPI   C3B10377   9.830   5.710   7.646  0.0193 -0.2353  0.0508
  754loPI   C4B10378   9.891   5.667   7.985  0.0109 -0.1913  0.0321
  755loPI    C110379   4.100   8.955   6.242 -0.2084  0.0509  0.1752
  755loPI    C210380   3.826   9.170   6.045  0.1131  0.2195 -0.0990
  755loPI    C310381   4.210   9.281   6.038  0.2924 -0.3705 -0.2594
  755loPI   PO410382   4.013   8.874   6.488  0.0127 -0.2995 -0.0928
  755loPI   GL110383   4.200   9.042   6.916 -0.0918  0.1298  0.3139
  755loPI   GL210384   4.557   8.850   6.969 -0.0752 -0.2012 -0.2097
  755loPI   C1A10385   3.926   8.837   7.138  0.3155 -0.1745 -0.1783
  755loPI   C2A10386   3.937   8.825   7.636 -0.1873  0.1315 -0.2033
  755loPI   C3A10387   3.920   8.768   8.125 -0.0839  0.3647  0.2516
  755loPI   C4A10388   3.817   8.754   8.545  0.1647  0.0465 -0.0450
  755loPI   C5A10389   4.015   8.556   8.882  0.1004  0.2374 -0.1614
  755loPI   C6A10390   4.279   8.439   9.175  0.2323  0.2054  0.0820
  755loPI   C1B10391   4.520   8.913   7.486  0.2805 -0.1404 -0.0206
  755loPI   C2B10392   4.691   9.033   7.805  0.1624  0.0904  0.1562
  755loPI   C3B10393   4.878   9.119   8.296  0.0114 -0.2342 -0.1783
  755loPI   C4B10394   4.890   8.829   8.623 -0.2668 -0.1787 -0.1193
  756loPI    C110395  11.967  15.451   6.049  0.0314 -0.3419 -0.0352
  756loPI    C210396  11.806  15.753   5.841 -0.0022 -0.1544  0.2574
  756loPI    C310397  11.771  15.377   5.708 -0.0312 -0.0398 -0.0673
  756loPI   PO410398  12.075  15.565   6.268  0.0635  0.1691 -0.0989
  756loPI   GL110399  12.245  15.588   6.592  0.1259 -0.2354 -0.1257
  756loPI   GL210400  11.927  15.741   6.753 -0.2293  0.0574 -0.0140
  756loPI   C1A10401  12.280  15.390   6.922 -0.1746 -0.0262  0.0405
  756loPI   C2A10402  12.255  15.368   7.395  0.2081  0.0545  0.1868
  756loPI   C3A10403  12.329  15.441   7.852 -0.2290 -0.1491 -0.1606
  756loPI   C4A10404  12.272  15.364   8.299 -0.1197  0.1607  0.1006
  756loPI   C5A10405  12.549  15.182   8.636  0.1121  0.0895  0.1440
  756loPI   C6A10406  12.626  14.816   8.726 -0.2961  0.0336  0.1999
  756loPI   C1B10407  11.935  15.711   7.067  0.2281 -0.1892  0.2441
  756loPI   C2B10408  11.871  15.745   7.495 -0.0010  0.2520  0.0232
  756loPI   C3B10409  11.916  15.824   7.971  0.0786  0.0815  0.1281
  756loPI   C4B10410  11.953  15.828   8.403  0.0493  0.0056  0.2204
  757loPI    C110411   4.380   1.425   6.704 -0.1841 -0.0268 -0.1945
  757loPI    C210412   4.079   1.486   6.448 -0.1744  0.1338 -0.1690
  757loPI    C310413   4.405   1.717   6.432 -0.1755  0.1479 -0.0094
  757loPI   PO410414   4.430   1.122   6.676 -0.0295 -0.1341  0.0969
  757loPI   GL110415   4.468   0.797   6.940  0.3613  0.4127 -0.1223
  757loPI   GL210416   4.244   0.777   7.223  0.0595  0.0134  0.1755
  757loPI   C1A10417   4.756   0.844   7.257  0.1622  0.0474  0.2212
  757loPI   C2A10418   4.979   0.858   7.630 -0.4250  0.1341 -0.0769
  757loPI   C3A10419   4.966   0.831   8.011 -0.0195 -0.3691  0.2781
  757loPI   C4A10420   4.902   0.815   8.456  0.2780  0.3191 -0.1759
  757loPI   C5A10421   4.955   0.881   8.908 -0.0692  0.0122 -0.0491
  757loPI   C6A10422   5.012   1.022   9.371  0.0670 -0.3178 -0.0772
  757loPI   C1B10423   4.470   0.671   7.606  0.1346 -0.1661 -0.0259
  757loPI   C2B10424   4.457   0.756   8.026  0.0872  0.2610  0.1587
  757loPI   C3B10425   4.370   0.686   8.446 -0.1345 -0.2102 -0.1693
  757loPI   C4B10426   4.192   0.880   8.838 -0.0252  0.0774  0.0577
  758loPI    C110427   0.495   9.127   6.363  0.1397  0.3709 -0.1146
  758loPI    C210428   0.435   9.004   5.987  0.0230 -0.1825  0.0755
  758loPI    C310429   0.805   9.087   6.113  0.0403  0.2105 -0.2141
  758loPI   PO410430   0.407   8.994   6.547 -0.0953 -0.2604  0.2127
  758loPI   GL110431   0.531   9.096   6.953  0.2266 -0.1235 -0.1229
  758loPI   GL210432   0.439   9.227   7.316 -0.2325  0.1048  0.3038
  758loPI   C1A10433   0.530   8.773   7.147 -0.0361 -0.1091 -0.3918
  758loPI   C2A10434   0.499   8.658   7.490  0.0491 -0.1079 -0.0800
  758loPI   C3A10435   0.431   8.649   7.940  0.1851  0.1458 -0.3668
  758loPI   C4A10436   0.281   8.746   8.400  0.1545  0.0804 -0.1987
  758loPI   C5A10437   0.007   8.447   8.563  0.1758  0.0484  0.0342
  758loPI   C6A10438  -0.345   8.231   8.649 -0.0849  0.1754 -0.1787
  758loPI   C1B10439   0.446   9.268   7.707 -0.2494  0.2124 -0.5456
  758loPI   C2B10440   0.384   9.157   8.067  0.0530 -0.0506 -0.2016
  758loPI   C3B10441   0.050   9.244   8.339 -0.0330 -0.1941  0.1271
  758loPI   C4B10442  -0.378   9.203   8.249  0.0469 -0.0831  0.0717
  759loPI    C110443   7.256  10.977   6.146  0.1170 -0.1930 -0.3126
  759loPI    C210444   7.014  10.735   6.354  0.0017  0.0160 -0.1995
  759loPI    C310445   6.950  10.794   5.963 -0.1142  0.0497 -0.1758
  759loPI   PO410446   7.526  10.867   6.320  0.1886  0.0025  0.0072
  759loPI   GL110447   7.546  10.801   6.805 -0.1149 -0.2033  0.0441
  759loPI   GL210448   7.302  10.742   6.863 -0.1440  0.0869 -0.1358
  759loPI   C1A10449   7.736  10.713   7.274 -0.0999  0.1129  0.0214
  759loPI   C2A10450   7.759  10.681   7.695  0.1887  0.1641  0.2937
  759loPI   C3A10451   7.840  10.734   8.062  0.0423  0.0405  0.0729
  759loPI   C4A10452   7.825  10.890   8.411  0.2228 -0.0558  0.0203
  759loPI   C5A10453   7.865  11.022   8.730 -0.2698 -0.1330 -0.2263
  759loPI   C6A10454   8.111  11.268   8.982  0.1181  0.2931 -0.2674
  759loPI   C1B10455   7.263  10.584   7.267 -0.4627  0.0673 -0.2089
  759loPI   C2B10456   7.281  10.536   7.764  0.0770  0.0598  0.0949
  759loPI   C3B10457   7.320  10.562   8.170 -0.1083  0.4579  0.2688
  759loPI   C4B10458   7.390  10.520   8.609 -0.1093  0.1878  0.0775
  760loPI    C110459  16.826   5.942   5.975  0.1549  0.0460  0.1966
  760loPI    C210460  17.002   6.002   5.621 -0.1492  0.0132  0.0361
  760loPI    C310461  16.944   5.630   5.756 -0.2025  0.0203  0.0331
  760loPI   PO410462  16.933   6.027   6.174  0.0472  0.1473  0.1741
  760loPI   GL110463  17.084   6.233   6.539 -0.3510  0.0800  0.0488
  760loPI   GL210464  16.846   6.093   6.750 -0.1819 -0.0254  0.3866
  760loPI   C1A10465  17.345   6.042   6.863 -0.0602 -0.1526  0.3947
  760loPI   C2A10466  17.453   5.998   7.218 -0.0712  0.2241 -0.3098
  760loPI   C3A10467  17.510   5.904   7.661 -0.2377 -0.1574  0.0012
  760loPI   C4A10468  17.499   5.862   8.044  0.2596  0.0290 -0.2349
  760loPI   C5A10469  17.563   5.828   8.515  0.3045  0.0191  0.0369
  760loPI   C6A10470  17.643   5.700   8.912 -0.1829 -0.0205  0.0526
  760loPI   C1B10471  16.948   6.185   7.169 -0.0220 -0.1052  0.0758
  760loPI   C2B10472  17.039   6.165   7.576 -0.2413 -0.0336 -0.1399
  760loPI   C3B10473  17.187   6.246   8.001  0.2512 -0.3364 -0.0935
  760loPI   C4B10474  17.281   6.236   8.526 -0.0499 -0.2350 -0.1306
  761loPI    C110475   1.018   9.370   6.474 -0.0205  0.1092  0.1434
  761loPI    C210476   1.229   9.081   6.294 -0.1067  0.0828  0.0837
  761loPI    C310477   1.417   9.396   6.455 -0.0174  0.0266  0.0902
  761loPI   PO410478   0.852   9.301   6.634  0.0552  0.1879 -0.2229
  761loPI   GL110479   0.874   9.431   7.032  0.0176  0.0735  0.3299
  761loPI   GL210480   0.751   9.758   7.179 -0.0474  0.0390 -0.3160
  761loPI   C1A10481   0.900   9.017   7.359 -0.0213  0.0336 -0.0798
  761loPI   C2A10482   0.826   8.975   7.876  0.2997  0.0641  0.0284
  761loPI   C3A10483   0.816   8.984   8.320 -0.0847  0.2125 -0.0636
  761loPI   C4A10484   0.972   8.995   8.675  0.1995  0.1560 -0.0839
  761loPI   C5A10485   0.814   9.235   9.028  0.2147 -0.0563  0.0377
  761loPI   C6A10486   0.849   9.490   9.379 -0.1978 -0.2056 -0.1474
  761loPI   C1B10487   0.849   9.481   7.580  0.1721 -0.1548  0.0590
  761loPI   C2B10488   0.839   9.469   8.053  0.1339 -0.0825 -0.2441
  761loPI   C3B10489   0.898   9.544   8.499  0.2929  0.2507 -0.0128
  761loPI   C4B10490   1.095   9.571   8.900 -0.2185 -0.0161  0.0896
  762loPI    C110491   3.021   0.522   6.787 -0.1210  0.1878  0.1829
  762loPI    C210492   2.646   0.651   6.732 -0.1399  0.1019  0.1058
  762loPI    C310493   2.778   0.330   6.534 -0.0177  0.1456  0.1149
  762loPI   PO410494   3.053   0.558   7.059  0.2082  0.0463  0.2055
  762loPI   GL110495   2.670   0.784   7.312  0.0572 -0.0412  0.0530
  762loPI   GL210496   2.772   1.140   7.423 -0.1440  0.0386 -0.2183
  762loPI   C1A10497   2.941   0.704   7.683  0.0836  0.2616 -0.2493
  762loPI   C2A10498   2.920   0.763   8.189  0.0094  0.1322 -0.0182
  762loPI   C3A10499   2.789   0.901   8.631  0.0010 -0.2654 -0.0734
  762loPI   C4A10500   2.837   1.077   9.134  0.1045  0.0033 -0.1193
  762loPI   C5A10501   2.973   1.503   9.221 -0.3767  0.0053  0.2769
  762loPI   C6A10502   3.273   1.845   9.392  0.2937 -0.2142 -0.3648
  762loPI   C1B10503   2.451   1.189   7.731  0.1044  0.1801  0.1392
  762loPI   C2B10504   2.364   1.285   8.056 -0.0029  0.1812  0.2793
  762loPI   C3B10505   2.398   1.245   8.424  0.3942 -0.0760  0.1250
  762loPI   C4B10506   2.347   1.317   8.911 -0.0245  0.0720 -0.1470
  763loPI    C110507   2.741   4.826   6.245  0.2215 -0.0033  0.0534
  763loPI    C210508   2.498   4.889   5.933  0.2115  0.1385  0.0894
  763loPI    C310509   2.894   4.930   5.890  0.2120  0.1335  0.0888
  763loPI   PO410510   2.652   4.963   6.405  0.0369  0.0149  0.0200
  763loPI   GL110511   2.827   4.912   6.850  0.0739  0.0821 -0.3557
  763loPI   GL210512   2.461   4.920   6.910  0.0134 -0.0603  0.1653
  763loPI   C1A10513   2.899   5.163   7.154 -0.2546 -0.4399  0.2041
  763loPI   C2A10514   2.938   5.160   7.589 -0.0465 -0.4226  0.0937
  763loPI   C3A10515   2.997   5.109   8.063 -0.2537  0.3435  0.1294
  763loPI   C4A10516   3.111   5.067   8.515  0.0611  0.0743  0.1246
  763loPI   C5A10517   2.878   5.149   8.926  0.1121 -0.1514 -0.1702
  763loPI   C6A10518   2.719   5.379   9.154 -0.2546  0.2558  0.1607
  763loPI   C1B10519   2.444   5.062   7.364  0.3708 -0.1675  0.0662
  763loPI   C2B10520   2.395   4.972   7.810 -0.2893  0.0781  0.1140
  763loPI   C3B10521   2.490   4.980   8.321 -0.0762 -0.0793  0.3572
  763loPI   C4B10522   2.388   5.087   8.767 -0.0198 -0.0220  0.0396
  764loPI    C110523   1.038  10.170   6.637 -0.1928 -0.0040  0.1639
  764loPI    C210524   0.890   9.800   6.679 -0.3118  0.0185 -0.0479
  764loPI    C310525   1.231   9.858   6.478 -0.0246 -0.0295  0.4111
  764loPI   PO410526   1.050  10.312   6.895  0.0370 -0.0330 -0.0899
  764loPI   GL110527   0.776  10.265   7.242 -0.2106 -0.0959  0.0717
  764loPI   GL210528   0.604  10.506   7.132  0.1921  0.0761 -0.3225
  764loPI   C1A10529   0.739  10.306   7.642  0.2144 -0.0090 -0.2287
  764loPI   C2A10530   0.841  10.233   8.029  0.0217  0.1447  0.0355
  764loPI   C3A10531   0.808  10.109   8.396  0.2070 -0.1573  0.0360
  764loPI   C4A10532   0.851   9.993   8.770 -0.2527 -0.0388 -0.0700
  764loPI   C5A10533   1.052   9.922   9.191  0.2168 -0.0871 -0.1420
  764loPI   C6A10534   1.353   9.721   9.291 -0.0353 -0.2798 -0.0051
  764loPI   C1B10535   0.529  10.740   7.467  0.0547  0.0190 -0.2834
  764loPI   C2B10536   0.554  10.724   7.948 -0.1177 -0.0442 -0.1671
  764loPI   C3B10537   0.829  10.618   8.297  0.1195  0.3445 -0.0265
  764loPI   C4B10538   0.905  10.863   8.777  0.2946  0.0154  0.0446
  765loPI    C110539  13.945   6.890   6.048 -0.1175 -0.0900  0.0914
  765loPI    C210540  14.293   6.694   6.058  0.0981  0.2747 -0.0898
  765loPI    C310541  14.003   6.574   5.810  0.0613 -0.0786  0.1188
  765loPI   PO410542  13.928   6.994   6.279  0.1428 -0.0425  0.0407
  765loPI   GL110543  14.000   7.119   6.675 -0.2054 -0.1100  0.3021
  765loPI   GL210544  13.679   7.265   6.658 -0.1836  0.0448  0.2478
  765loPI   C1A10545  13.970   7.005   7.125 -0.3812  0.2119  0.3401
  765loPI   C2A10546  13.891   6.893   7.516  0.0458 -0.1352  0.0555
  765loPI   C3A10547  13.844   6.780   8.008  0.0988  0.5412  0.1378
  765loPI   C4A10548  13.748   6.678   8.394  0.0013  0.0476 -0.3442
  765loPI   C5A10549  13.733   6.308   8.697 -0.1139  0.4411  0.6525
  765loPI   C6A10550  13.397   6.013   8.696  0.0301  0.2573  0.2605
  765loPI   C1B10551  13.618   7.378   7.081  0.2573 -0.0155 -0.2012
  765loPI   C2B10552  13.511   7.291   7.472  0.1819 -0.1513  0.3668
  765loPI   C3B10553  13.434   7.153   7.845  0.3079  0.0384  0.0904
  765loPI   C4B10554  13.381   7.152   8.245  0.1209  0.0018 -0.1342
  766loPI    C110555  10.351   4.858   5.558 -0.0844  0.0427 -0.0707
  766loPI    C210556  10.297   4.718   5.187 -0.0134 -0.0473 -0.0474
  766loPI    C310557  10.425   5.093   5.243 -0.0792 -0.0149 -0.1127
  766loPI   PO410558  10.199   4.813   5.680  0.1798 -0.3381 -0.0211
  766loPI   GL110559  10.268   4.850   6.149  0.2292  0.2327 -0.0958
  766loPI   GL210560  10.610   4.816   6.409 -0.0891  0.3370 -0.2349
  766loPI   C1A10561  10.029   4.724   6.475 -0.3700 -0.0425  0.0173
  766loPI   C2A10562   9.935   4.768   6.867 -0.1906 -0.3695 -0.1095
  766loPI   C3A10563   9.935   4.820   7.263 -0.0241 -0.0707  0.1481
  766loPI   C4A10564   9.987   4.785   7.720 -0.2953  0.1201 -0.0734
  766loPI   C5A10565  10.055   4.968   8.152  0.0028  0.1384 -0.2075
  766loPI   C6A10566   9.865   5.356   8.375  0.0698  0.1949 -0.2270
  766loPI   C1B10567  10.866   4.838   6.784 -0.0259  0.3132  0.1711
  766loPI   C2B10568  10.842   4.787   7.151 -0.0840 -0.0084  0.0726
  766loPI   C3B10569  10.871   4.567   7.486 -0.1616  0.2601  0.1427
  766loPI   C4B10570  10.982   4.499   7.936  0.1995 -0.1766  0.1480
  767loPI    C110571  10.524  13.007   5.997 -0.1401 -0.0389  0.2901
  767loPI    C210572  10.327  13.352   5.954 -0.0563 -0.0518 -0.2663
  767loPI    C310573  10.262  13.050   5.698  0.5014 -0.1413 -0.3138
  767loPI   PO410574  10.595  13.033   6.283 -0.4565 -0.0950  0.1218
  767loPI   GL110575  10.802  12.945   6.700  0.0127 -0.0066 -0.2234
  767loPI   GL210576  11.021  13.019   6.733 -0.0928  0.0679  0.2358
  767loPI   C1A10577  10.688  12.936   7.171  0.1069  0.2924  0.3166
  767loPI   C2A10578  10.657  12.947   7.619  0.1141  0.1119 -0.1135
  767loPI   C3A10579  10.744  13.096   7.918 -0.0427  0.0046  0.3491
  767loPI   C4A10580  10.768  13.355   8.265  0.0739 -0.1744  0.1104
  767loPI   C5A10581  10.602  13.675   8.662 -0.1913 -0.0433  0.0639
  767loPI   C6A10582  10.621  14.155   8.734  0.1519  0.1728  0.0529
  767loPI   C1B10583  11.193  13.072   7.158 -0.0949  0.1133 -0.2917
  767loPI   C2B10584  11.145  13.086   7.523 -0.1370 -0.0969 -0.0279
  767loPI   C3B10585  11.282  13.168   7.877 -0.0301  0.1756 -0.4192
  767loPI   C4B10586  11.299  13.419   8.313 -0.0011 -0.0837  0.0423
  768loPI    C110587   9.563  12.757   6.209  0.0647 -0.0608  0.0184
  768loPI    C210588   9.605  12.870   5.828 -0.0322  0.2011  0.0838
  768loPI    C310589   9.287  12.653   5.939  0.0139  0.0949  0.0098
  768loPI   PO410590   9.609  13.035   6.358  0.3691 -0.1806  0.1906
  768loPI   GL110591   9.980  13.179   6.532  0.1598  0.0776  0.0566
  768loPI   GL210592  10.245  13.334   6.453  0.3340 -0.0594  0.1289
  768loPI   C1A10593   9.854  13.154   6.990  0.2201 -0.0613  0.0383
  768loPI   C2A10594   9.821  13.203   7.455  0.0236  0.1508  0.0934
  768loPI   C3A10595   9.816  13.283   7.879 -0.0295  0.3725 -0.0687
  768loPI   C4A10596   9.831  13.372   8.259 -0.0842  0.0838 -0.0517
  768loPI   C5A10597   9.697  13.305   8.649  0.0410  0.0023  0.0633
  768loPI   C6A10598   9.252  13.194   8.900 -0.2485  0.0114  0.1632
  768loPI   C1B10599  10.383  13.228   6.815 -0.3612  0.1612 -0.1551
  768loPI   C2B10600  10.310  13.246   7.194 -0.3335  0.1002  0.1949
  768loPI   C3B10601  10.332  13.374   7.695  0.3697  0.0125  0.2338
  768loPI   C4B10602  10.316  13.393   8.124 -0.1392 -0.1558  0.0716
  769loPI    C110603   0.682   2.810   6.120 -0.0551  0.0319  0.1348
  769loPI    C210604   0.604   3.117   6.365 -0.2271  0.0613  0.0447
  769loPI    C310605   0.470   3.122   5.988 -0.0161 -0.0116 -0.0332
  769loPI   PO410606   0.739   2.634   6.325  0.1492 -0.1834 -0.1609
  769loPI   GL110607   0.690   2.433   6.705  0.0366  0.2766  0.0214
  769loPI   GL210608   0.929   2.473   6.866 -0.0803  0.0612 -0.1594
  769loPI   C1A10609   0.472   2.398   7.032 -0.3167  0.2534 -0.1590
  769loPI   C2A10610   0.408   2.337   7.564 -0.1875  0.0128  0.1993
  769loPI   C3A10611   0.386   2.435   7.979  0.0669 -0.0307  0.0734
  769loPI   C4A10612   0.380   2.455   8.436  0.0267  0.0272  0.1100
  769loPI   C5A10613   0.227   2.642   8.867  0.0486  0.0924 -0.3091
  769loPI   C6A10614  -0.103   2.885   8.792 -0.2637  0.0365  0.0198
  769loPI   C1B10615   0.864   2.514   7.371  0.2367 -0.1208  0.2589
  769loPI   C2B10616   0.761   2.643   7.803  0.1094 -0.1115  0.0597
  769loPI   C3B10617   0.907   2.572   8.265 -0.1938 -0.0154  0.0712
  769loPI   C4B10618   0.900   2.663   8.654  0.0233  0.1648 -0.1661
  770loPI    C110619  11.319   0.803   5.530 -0.3360  0.0811 -0.0869
  770loPI    C210620  11.590   0.572   5.348 -0.2299  0.0560  0.0998
  770loPI    C310621  11.202   0.535   5.257 -0.1933 -0.0571 -0.0141
  770loPI   PO410622  11.409   0.774   5.769  0.0514  0.2818 -0.0316
  770loPI   GL110623  11.388   0.463   6.223  0.0956 -0.0130 -0.0551
  770loPI   GL210624  11.684   0.598   6.265 -0.0761 -0.1951 -0.1290
  770loPI   C1A10625  11.364   0.283   6.571 -0.0282 -0.0677 -0.1209
  770loPI   C2A10626  11.241   0.261   6.864  0.2850 -0.0006 -0.3697
  770loPI   C3A10627  11.200   0.335   7.314  0.0102  0.3677  0.1331
  770loPI   C4A10628  11.323   0.454   7.720  0.1005 -0.0047  0.0666
  770loPI   C5A10629  11.266   0.366   8.166 -0.1125 -0.2917 -0.2985
  770loPI   C6A10630  11.263   0.226   8.600 -0.1090  0.3600  0.3047
  770loPI   C1B10631  11.818   0.432   6.655 -0.0033  0.2483  0.0867
  770loPI   C2B10632  11.740   0.478   7.170 -0.0202  0.2455 -0.2093
  770loPI   C3B10633  11.764   0.596   7.652 -0.0479 -0.2010  0.1127
  770loPI   C4B10634  11.743   0.557   8.086  0.0624 -0.0974  0.0627
  771loPI    C110635   1.928   0.370   6.501  0.0035 -0.1097 -0.0507
  771loPI    C210636   2.133   0.701   6.593  0.0502 -0.1234 -0.1049
  771loPI    C310637   2.318   0.394   6.416  0.0271 -0.2134  0.0249
  771loPI   PO410638   1.787   0.403   6.749 -0.1071  0.0128  0.0167
  771loPI   GL110639   1.468   0.628   6.939  0.2498 -0.0673 -0.0994
  771loPI   GL210640   1.705   0.783   7.065  0.2127  0.1836 -0.1426
  771loPI   C1A10641   1.137   0.682   7.307  0.0476  0.1687 -0.0100
  771loPI   C2A10642   0.995   0.661   7.679  0.0146  0.0709 -0.0438
  771loPI   C3A10643   0.833   0.822   8.042 -0.1006  0.1773 -0.0383
  771loPI   C4A10644   0.704   0.730   8.414  0.0188  0.1368  0.3980
  771loPI   C5A10645   0.696   0.784   8.869  0.0789 -0.3441  0.1019
  771loPI   C6A10646   0.978   0.727   9.245 -0.2286 -0.1201  0.1649
  771loPI   C1B10647   1.543   0.865   7.635 -0.1254  0.1934 -0.0205
  771loPI   C2B10648   1.383   0.937   7.995  0.3850 -0.0244  0.2395
  771loPI   C3B10649   1.248   0.920   8.416  0.3831  0.2662  0.1465
  771loPI   C4B10650   1.303   0.747   8.840 -0.2524  0.1193 -0.0597
  772loPI    C110651   7.884   8.512   6.222  0.0700 -0.0026  0.0159
  772loPI    C210652   8.019   8.762   5.941 -0.4115  0.2492 -0.0004
  772loPI    C310653   7.816   8.433   5.836 -0.2694  0.1469  0.0422
  772loPI   PO410654   7.712   8.646   6.359  0.0979 -0.3146 -0.2366
  772loPI   GL110655   7.714   9.000   6.671  0.0112  0.2308  0.1297
  772loPI   GL210656   7.837   9.191   6.900 -0.3603  0.0537  0.0252
  772loPI   C1A10657   7.452   8.838   6.949 -0.0473  0.3890  0.0969
  772loPI   C2A10658   7.282   8.697   7.308 -0.0509  0.2691  0.0321
  772loPI   C3A10659   7.321   8.713   7.669 -0.1771  0.3323 -0.0656
  772loPI   C4A10660   7.262   8.720   8.194 -0.0979 -0.0537 -0.1092
  772loPI   C5A10661   7.349   8.475   8.484 -0.1004  0.0740  0.0138
  772loPI   C6A10662   7.566   8.288   8.813  0.2254 -0.4670  0.1378
  772loPI   C1B10663   8.013   9.264   7.406 -0.0280 -0.0981 -0.1032
  772loPI   C2B10664   8.015   9.265   7.876 -0.1438 -0.0049  0.0584
  772loPI   C3B10665   7.950   9.304   8.320  0.0218  0.1097 -0.0615
  772loPI   C4B10666   8.064   9.499   8.814 -0.0733  0.0731 -0.1115
  773loPI    C110667   4.969  16.058   6.412 -0.0538 -0.2198 -0.0943
  773loPI    C210668   4.922  16.275   6.079 -0.0348 -0.3235 -0.1655
  773loPI    C310669   4.602  16.133   6.271 -0.0505 -0.1740 -0.0788
  773loPI   PO410670   5.158  16.133   6.533 -0.1212  0.0296 -0.0571
  773loPI   GL110671   5.295  15.957   6.886  0.1876  0.1342  0.0363
  773loPI   GL210672   4.982  15.826   6.908 -0.1246  0.0070 -0.2869
  773loPI   C1A10673   5.279  15.830   7.360 -0.1120 -0.1200  0.1374
  773loPI   C2A10674   5.365  15.795   7.903 -0.0969 -0.0067  0.2148
  773loPI   C3A10675   5.406  15.739   8.357  0.2909 -0.4750  0.1548
  773loPI   C4A10676   5.379  15.802   8.780  0.3811  0.0349  0.0342
  773loPI   C5A10677   5.246  16.059   9.025 -0.0598  0.0058 -0.2344
  773loPI   C6A10678   5.100  16.496   9.109  0.0437 -0.0997  0.0684
  773loPI   C1B10679   4.910  16.159   7.192 -0.0330  0.2098 -0.2063
  773loPI   C2B10680   4.893  16.151   7.629  0.0682 -0.2351  0.1134
  773loPI   C3B10681   4.952  16.158   8.088  0.0294 -0.3017 -0.2484
  773loPI   C4B10682   5.011  16.001   8.554  0.0476 -0.1233 -0.0731
  774loPI    C110683   6.496  13.358   6.670 -0.0707  0.4473  0.0798
  774loPI    C210684   6.121  13.468   6.587 -0.1370  0.0557 -0.1626
  774loPI    C310685   6.390  13.439   6.293  0.0267  0.1200 -0.0206
  774loPI   PO410686   6.518  13.409   6.915 -0.5432 -0.2998 -0.1967
  774loPI   GL110687   6.790  13.168   7.165 -0.1178  0.2676 -0.2674
  774loPI   GL210688   6.808  12.943   7.314  0.1439  0.1966  0.1086
  774loPI   C1A10689   6.744  13.356   7.629  0.2299 -0.1162 -0.2046
  774loPI   C2A10690   6.747  13.460   8.024  0.0598  0.1831  0.2932
  774loPI   C3A10691   7.009  13.213   8.331  0.1051 -0.2978  0.2254
  774loPI   C4A10692   7.169  13.431   8.716  0.1459  0.3962  0.1173
  774loPI   C5A10693   7.175  13.570   9.090  0.2017  0.1185 -0.0780
  774loPI   C6A10694   7.120  13.964   9.309  0.1331  0.0814 -0.0253
  774loPI   C1B10695   6.901  12.757   7.755  0.1502 -0.0548 -0.0730
  774loPI   C2B10696   6.826  12.765   8.151 -0.0980  0.0111  0.1566
  774loPI   C3B10697   6.982  12.705   8.670  0.1428  0.0635  0.1578
  774loPI   C4B10698   7.098  12.808   9.059 -0.1740 -0.0529 -0.2050
  775loPI    C110699  14.977  16.211   6.208 -0.0459 -0.1947 -0.0742
  775loPI    C210700  15.293  16.290   5.975 -0.1402  0.0782 -0.1133
  775loPI    C310701  15.114  15.933   5.955  0.1218 -0.0540 -0.1407
  775loPI   PO410702  15.033  16.292   6.439 -0.1614 -0.2363  0.3233
  775loPI   GL110703  15.014  16.473   6.862  0.0802  0.0330 -0.2770
  775loPI   GL210704  15.233  16.524   6.853 -0.2045  0.0825  0.0521
  775loPI   C1A10705  14.858  16.682   7.275 -0.0367  0.0986  0.1351
  775loPI   C2A10706  14.787  16.701   7.750 -0.0963 -0.2043 -0.1481
  775loPI   C3A10707  14.746  16.727   8.162  0.0092  0.2948 -0.0411
  775loPI   C4A10708  14.688  16.559   8.599  0.3987  0.2512  0.3186
  775loPI   C5A10709  14.331  16.287   8.824 -0.3120 -0.0580  0.0399
  775loPI   C6A10710  13.921  16.001   8.819  0.0093 -0.0445 -0.1114
  775loPI   C1B10711  15.318  16.422   7.332 -0.1752  0.1071 -0.3197
  775loPI   C2B10712  15.342  16.369   7.781  0.1152  0.2436  0.0069
  775loPI   C3B10713  15.184  16.304   8.134 -0.1837 -0.0385  0.0846
  775loPI   C4B10714  15.131  16.286   8.536 -0.1119  0.0849 -0.0526
  776loPI    C110715   9.021   0.110   5.974  0.1552 -0.0117  0.0114
  776loPI    C210716   9.083   0.491   5.870  0.3635 -0.0948 -0.1769
  776loPI    C310717   8.851   0.257   5.643 -0.0592  0.0143  0.1314
  776loPI   PO410718   9.006   0.047   6.239  0.0705  0.2161 -0.2320
  776loPI   GL110719   9.273   0.006   6.485 -0.0885 -0.0602  0.2211
  776loPI   GL210720   9.220  -0.261   6.642 -0.1900 -0.1682  0.1785
  776loPI   C1A10721   9.350   0.228   6.905  0.2595 -0.1157  0.3588
  776loPI   C2A10722   9.388   0.436   7.303  0.2583 -0.2277 -0.0100
  776loPI   C3A10723   9.403   0.294   7.737  0.0469 -0.3106  0.1951
  776loPI   C4A10724   9.529   0.300   8.111  0.3752  0.3958  0.0276
  776loPI   C5A10725   9.383   0.403   8.497  0.1161 -0.1587 -0.1595
  776loPI   C6A10726   9.154   0.786   8.677 -0.2114 -0.1623 -0.0480
  776loPI   C1B10727   9.286  -0.250   7.183  0.0197  0.0828 -0.1138
  776loPI   C2B10728   9.347  -0.236   7.706 -0.0422 -0.1197  0.2628
  776loPI   C3B10729   9.385  -0.203   8.124 -0.1667 -0.1833 -0.0216
  776loPI   C4B10730   9.438  -0.139   8.447  0.0585 -0.1697  0.2540
  777loPI    C110731  12.115   7.539   5.991  0.1986  0.0308  0.0492
  777loPI    C210732  11.976   7.314   5.691 -0.1462  0.3063 -0.0038
  777loPI    C310733  12.216   7.625   5.614 -0.0640  0.2504  0.0256
  777loPI   PO410734  11.959   7.493   6.122  0.0114  0.0672 -0.1014
  777loPI   GL110735  11.927   7.486   6.513  0.1351  0.1419  0.0399
  777loPI   GL210736  12.157   7.419   6.568  0.1516  0.4030 -0.2576
  777loPI   C1A10737  11.847   7.714   6.862 -0.0847 -0.1233 -0.3127
  777loPI   C2A10738  11.744   7.760   7.311  0.4026  0.1672 -0.4136
  777loPI   C3A10739  11.659   7.625   7.694  0.1691  0.0026 -0.1264
  777loPI   C4A10740  11.704   7.566   8.130 -0.0313  0.1627  0.1038
  777loPI   C5A10741  11.858   7.448   8.516  0.2173  0.0362 -0.1402
  777loPI   C6A10742  11.640   7.480   8.841  0.0164 -0.1266  0.0964
  777loPI   C1B10743  12.233   7.323   6.998 -0.0276  0.1716  0.3177
  777loPI   C2B10744  12.205   7.214   7.475  0.1392  0.4580 -0.1125
  777loPI   C3B10745  12.092   7.228   7.879  0.2442 -0.0687  0.0242
  777loPI   C4B10746  12.244   7.249   8.251  0.0205 -0.1724  0.2311
  778loPI    C110747  16.553   0.730   6.491  0.0110 -0.0881 -0.0290
  778loPI    C210748  16.479   0.343   6.423  0.1172 -0.1043 -0.0529
  778loPI    C310749  16.644   0.568   6.137  0.0669 -0.0444 -0.0347
  778loPI   PO410750  16.562   0.758   6.826 -0.2485  0.0462  0.5018
  778loPI   GL110751  16.745   0.693   7.166 -0.1159 -0.1538  0.2415
  778loPI   GL210752  16.363   0.957   7.211  0.1221 -0.3052  0.3401
  778loPI   C1A10753  16.805   0.689   7.579  0.0548 -0.0460 -0.0232
  778loPI   C2A10754  16.600   0.646   8.041 -0.0066  0.0531 -0.0667
  778loPI   C3A10755  16.420   0.530   8.480  0.1377  0.0260 -0.1570
  778loPI   C4A10756  16.184   0.653   8.860  0.2068  0.4178  0.0627
  778loPI   C5A10757  16.263   0.363   9.140 -0.0755 -0.0041  0.0704
  778loPI   C6A10758  16.277  -0.040   9.333 -0.0559  0.0131  0.0523
  778loPI   C1B10759  16.307   0.860   7.568 -0.0855  0.3294 -0.1186
  778loPI   C2B10760  16.105   0.914   7.966  0.1414  0.0075 -0.0444
  778loPI   C3B10761  15.991   0.898   8.410  0.0130 -0.1272 -0.0864
  778loPI   C4B10762  15.995   1.351   8.648  0.0957 -0.0294 -0.2627
  779loPI    C110763   1.064   5.880   6.113 -0.1149  0.0175 -0.0481
  779loPI    C210764   1.113   5.594   5.838  0.1015  0.1930 -0.1955
  779loPI    C310765   1.086   5.976   5.725 -0.0973  0.2403  0.0070
  779loPI   PO410766   1.002   5.756   6.321 -0.2603  0.0931 -0.0640
  779loPI   GL110767   0.749   5.575   6.631 -0.3660  0.0285 -0.0041
  779loPI   GL210768   0.720   5.280   6.747 -0.1209  0.0131  0.0662
  779loPI   C1A10769   0.355   5.594   6.805  0.0597 -0.1025  0.2002
  779loPI   C2A10770   0.215   5.431   7.258  0.3115  0.1126  0.0874
  779loPI   C3A10771   0.242   5.296   7.788  0.0798 -0.3217 -0.0016
  779loPI   C4A10772   0.239   5.373   8.221  0.0739  0.0977  0.1621
  779loPI   C5A10773   0.020   5.462   8.646 -0.2138  0.0761  0.3454
  779loPI   C6A10774  -0.058   5.431   9.117 -0.6588  0.1992 -0.0672
  779loPI   C1B10775   0.738   5.444   7.131 -0.1486  0.1578 -0.1704
  779loPI   C2B10776   0.662   5.479   7.545 -0.0620 -0.2612 -0.1331
  779loPI   C3B10777   0.670   5.436   7.945 -0.0255  0.3314  0.2289
  779loPI   C4B10778   0.724   5.437   8.414  0.2323 -0.2401 -0.0913
  780loPI    C110779   1.533   4.252   6.181 -0.0248 -0.0170  0.1633
  780loPI    C210780   1.768   4.223   5.859 -0.3016  0.0533 -0.0485
  780loPI    C310781   1.464   3.968   5.908 -0.2250  0.0052  0.1895
  780loPI   PO410782   1.751   4.254   6.370  0.1097 -0.2535 -0.4651
  780loPI   GL110783   1.680   4.325   6.837 -0.1099  0.2164 -0.1815
  780loPI   GL210784   1.746   4.030   6.840 -0.1115  0.1934 -0.0894
  780loPI   C1A10785   1.602   4.379   7.292 -0.1350 -0.1938  0.2113
  780loPI   C2A10786   1.702   4.231   7.741  0.2803  0.1883 -0.0933
  780loPI   C3A10787   1.775   4.326   8.128 -0.2705 -0.2536  0.0407
  780loPI   C4A10788   1.927   4.312   8.508 -0.4094  0.1352  0.0620
  780loPI   C5A10789   1.831   4.211   8.889  0.0935  0.1920 -0.3150
  780loPI   C6A10790   1.810   4.125   9.261 -0.2963 -0.1922  0.4713
  780loPI   C1B10791   1.703   3.887   7.240  0.0101 -0.2864  0.1467
  780loPI   C2B10792   1.747   3.704   7.587  0.3281 -0.1494  0.0224
  780loPI   C3B10793   1.654   3.726   8.028  0.0134 -0.0169  0.2601
  780loPI   C4B10794   1.670   3.854   8.431  0.0673 -0.0568  0.2018
  781loPI    C110795   9.988   4.276   5.785 -0.0117  0.1303  0.0173
  781loPI    C210796  10.016   4.373   5.398  0.0712 -0.0003 -0.0097
  781loPI    C310797   9.680   4.454   5.600  0.0278  0.0688 -0.1085
  781loPI   PO410798  10.213   4.381   5.959  0.2181  0.1140 -0.0777
  781loPI   GL110799  10.396   4.334   6.238  0.2126  0.2314  0.0354
  781loPI   GL210800  10.432   4.059   6.382 -0.3357 -0.0133  0.0541
  781loPI   C1A10801  10.342   4.454   6.656 -0.3055  0.1148 -0.1463
  781loPI   C2A10802  10.457   4.473   7.067  0.1355  0.2909 -0.0956
  781loPI   C3A10803  10.333   4.471   7.491  0.3654  0.2568 -0.0839
  781loPI   C4A10804  10.386   4.387   7.905 -0.1135 -0.4594  0.4726
  781loPI   C5A10805  10.315   4.578   8.357  0.0659  0.1887  0.0680
  781loPI   C6A10806  10.112   4.857   8.691  0.1975 -0.1350 -0.3706
  781loPI   C1B10807  10.259   3.835   6.706 -0.0103  0.2847  0.1363
  781loPI   C2B10808  10.336   3.903   7.065  0.1230  0.0170  0.0374
  781loPI   C3B10809  10.308   3.920   7.528  0.0328 -0.0493  0.5176
  781loPI   C4B10810  10.366   3.872   7.952 -0.0687  0.3125 -0.0162
  782loPI    C110811  15.009  11.568   6.478  0.0312  0.2894 -0.0589
  782loPI    C210812  15.334  11.663   6.265  0.0320  0.0038 -0.1897
  782loPI    C310813  15.037  11.455   6.095 -0.2331  0.2849 -0.0787
  782loPI   PO410814  15.142  11.495   6.732 -0.0135  0.0612  0.1777
  782loPI   GL110815  15.264  11.554   7.140 -0.0656 -0.0100  0.2999
  782loPI   GL210816  15.650  11.549   7.140  0.3148  0.0692  0.2173
  782loPI   C1A10817  15.003  11.522   7.539  0.2512  0.4255 -0.1835
  782loPI   C2A10818  14.957  11.461   7.966 -0.1273 -0.0516  0.2270
  782loPI   C3A10819  15.018  11.430   8.361 -0.2248 -0.5753 -0.2913
  782loPI   C4A10820  14.834  11.343   8.761 -0.4412  0.1252 -0.3039
  782loPI   C5A10821  14.874  10.855   9.010 -0.1624 -0.1908 -0.1024
  782loPI   C6A10822  14.740  10.377   9.099 -0.0843 -0.0583  0.1126
  782loPI   C1B10823  15.526  11.376   7.609 -0.0141 -0.0643  0.0320
  782loPI   C2B10824  15.506  11.350   8.039  0.4106  0.0008 -0.1035
  782loPI   C3B10825  15.345  11.051   8.478 -0.3447 -0.1210 -0.2282
  782loPI   C4B10826  15.378  10.953   8.919 -0.0960  0.1344  0.1739
  783loPI    C110827  10.982   2.362   5.658  0.2155 -0.1657 -0.1658
  783loPI    C210828  11.255   2.476   5.927 -0.0619  0.0417  0.0344
  783loPI    C310829  11.320   2.537   5.537  0.2631 -0.0957  0.0636
  783loPI   PO410830  10.924   2.175   5.704  0.3183 -0.0256  0.1867
  783loPI   GL110831  10.993   1.993   6.030  0.0021  0.1954  0.1188
  783loPI   GL210832  10.753   1.792   6.167  0.4406  0.1641  0.1163
  783loPI   C1A10833  11.245   1.849   6.403 -0.3176  0.0779 -0.1016
  783loPI   C2A10834  11.073   1.732   6.858  0.0470  0.2477 -0.2242
  783loPI   C3A10835  11.025   1.693   7.192  0.1974 -0.1680  0.0588
  783loPI   C4A10836  11.146   1.712   7.553 -0.0156 -0.1494 -0.0848
  783loPI   C5A10837  11.205   1.736   8.007  0.0520 -0.0363 -0.3277
  783loPI   C6A10838  11.457   1.861   8.386 -0.5168  0.0761  0.1236
  783loPI   C1B10839  10.645   1.680   6.607  0.2467 -0.0487  0.1370
  783loPI   C2B10840  10.590   1.619   7.035 -0.1524 -0.0356  0.3024
  783loPI   C3B10841  10.657   1.517   7.457  0.0091 -0.1363 -0.0438
  783loPI   C4B10842  10.666   1.691   7.815 -0.0393 -0.1398 -0.3250
  784loPI    C110843  15.632   9.261   6.109 -0.2756 -0.0354 -0.0244
  784loPI    C210844  15.804   9.532   5.869 -0.2742 -0.0102  0.0050
  784loPI    C310845  15.523   9.286   5.725 -0.1489 -0.1129 -0.0659
  784loPI   PO410846  15.875   9.391   6.388 -0.2454  0.1092  0.0125
  784loPI   GL110847  15.784   9.448   6.744 -0.0025 -0.1092  0.0325
  784loPI   GL210848  15.962   9.638   6.910  0.1075 -0.5208 -0.4032
  784loPI   C1A10849  15.513   9.368   7.068  0.1146 -0.0719  0.1368
  784loPI   C2A10850  15.475   9.206   7.518  0.1152 -0.0074 -0.0366
  784loPI   C3A10851  15.440   9.106   7.956 -0.0819 -0.2360 -0.0565
  784loPI   C4A10852  15.343   9.202   8.350 -0.1356 -0.1896 -0.0918
  784loPI   C5A10853  15.754   9.186   8.698  0.3066  0.0491  0.1512
  784loPI   C6A10854  16.191   9.307   8.668 -0.2855 -0.1185  0.0335
  784loPI   C1B10855  15.734   9.735   7.311  0.0865  0.1353 -0.1699
  784loPI   C2B10856  15.598   9.683   7.606  0.1094 -0.0187  0.0321
  784loPI   C3B10857  15.528   9.650   8.011  0.2289 -0.0935  0.0342
  784loPI   C4B10858  15.520   9.684   8.438  0.0460  0.1348  0.0495
  785loPI    C110859   9.240   9.173   6.088  0.0327  0.0839 -0.1523
  785loPI    C210860   8.890   9.212   5.899 -0.0512  0.0426 -0.0071
  785loPI    C310861   9.199   9.038   5.714 -0.1347 -0.0054 -0.1027
  785loPI   PO410862   9.159   9.116   6.341  0.2853 -0.1676  0.1883
  785loPI   GL110863   9.220   9.325   6.729  0.2800  0.0055 -0.1233
  785loPI   GL210864   8.956   9.387   6.736  0.0885 -0.0662 -0.0077
  785loPI   C1A10865   9.395   9.305   7.097 -0.1131 -0.1933  0.1447
  785loPI   C2A10866   9.303   9.347   7.481 -0.0797  0.2413  0.1336
  785loPI   C3A10867   9.341   9.264   7.975 -0.1268  0.1814  0.1378
  785loPI   C4A10868   9.504   9.299   8.341  0.1415  0.0374 -0.2510
  785loPI   C5A10869   9.693   9.446   8.880  0.2648 -0.1473 -0.0118
  785loPI   C6A10870   9.853   9.864   9.062  0.2281  0.1453 -0.0903
  785loPI   C1B10871   8.839   9.229   7.063  0.2412 -0.3862 -0.2647
  785loPI   C2B10872   8.866   9.130   7.499 -0.0521 -0.1071 -0.2876
  785loPI   C3B10873   8.818   9.126   7.898 -0.0992  0.3823 -0.1811
  785loPI   C4B10874   9.060   9.088   8.353 -0.2067 -0.0799 -0.2573
  786loPI    C110875   9.490   0.101   5.981 -0.1178  0.1171 -0.2462
  786loPI    C210876   9.563   0.042   5.592  0.2291 -0.1179 -0.1505
  786loPI    C310877   9.809  -0.111   5.868 -0.0681 -0.0392  0.1671
  786loPI   PO410878   9.519   0.345   6.003  0.0786 -0.0838 -0.2476
  786loPI   GL110879   9.882   0.551   6.123  0.3070  0.0796 -0.0148
  786loPI   GL210880   9.942   0.251   6.297 -0.3180 -0.0202  0.0583
  786loPI   C1A10881  10.277   0.637   6.394  0.0016 -0.0882 -0.5466
  786loPI   C2A10882  10.391   0.447   6.748 -0.3366 -0.3270 -0.1743
  786loPI   C3A10883  10.417   0.507   7.183 -0.1921  0.0802 -0.0875
  786loPI   C4A10884  10.439   0.556   7.615  0.2425  0.0349  0.0774
  786loPI   C5A10885  10.295   0.649   8.018  0.1274 -0.0737  0.2314
  786loPI   C6A10886  10.131   0.940   8.367 -0.0847 -0.2104 -0.1336
  786loPI   C1B10887   9.729   0.349   6.611  0.1230 -0.0643  0.1529
  786loPI   C2B10888   9.829   0.462   7.036  0.0260  0.0639  0.3538
  786loPI   C3B10889   9.932   0.505   7.371 -0.3197  0.0041  0.2078
  786loPI   C4B10890   9.891   0.461   7.808  0.3361 -0.2492 -0.1292
  787loPI    C110891   0.974   8.296   6.335  0.1249 -0.0192  0.2857
  787loPI    C210892   1.127   8.583   6.101  0.0563 -0.1074  0.1310
  787loPI    C310893   0.733   8.570   6.170  0.0571 -0.1745  0.1236
  787loPI   PO410894   1.023   8.265   6.625  0.4197 -0.3160 -0.1923
  787loPI   GL110895   1.038   8.075   6.925  0.1340  0.0170  0.2950
  787loPI   GL210896   0.720   8.213   7.015 -0.1769  0.0706 -0.3804
  787loPI   C1A10897   1.061   7.994   7.309 -0.2639 -0.2628 -0.3015
  787loPI   C2A10898   0.989   7.903   7.716 -0.0489  0.0765 -0.2047
  787loPI   C3A10899   0.956   7.902   8.094  0.2552 -0.0900  0.0915
  787loPI   C4A10900   0.855   8.110   8.502 -0.2689  0.1098 -0.1718
  787loPI   C5A10901   0.936   8.276   8.928 -0.3607 -0.0799  0.1107
  787loPI   C6A10902   1.104   8.656   9.054  0.2726  0.1773  0.0002
  787loPI   C1B10903   0.591   8.159   7.386  0.1475  0.2770 -0.2258
  787loPI   C2B10904   0.517   8.143   7.905  0.0925  0.0084  0.1092
  787loPI   C3B10905   0.424   8.256   8.247  0.2911  0.1450 -0.0983
  787loPI   C4B10906   0.487   8.313   8.690 -0.0562 -0.2317  0.1703
  788loPI    C110907   0.613  16.950   6.629  0.0951  0.0203  0.1329
  788loPI    C210908   0.287  16.892   6.853  0.2407 -0.2201  0.2880
  788loPI    C310909   0.262  16.869   6.454 -0.0395  0.3036  0.2660
  788loPI   PO410910   0.694  17.224   6.851  0.0215  0.2084 -0.1546
  788loPI   GL110911   0.820  17.374   7.300 -0.2192  0.0246 -0.0275
  788loPI   GL210912   0.594  17.670   7.139 -0.0941  0.1460 -0.1386
  788loPI   C1A10913   0.661  17.473   7.635 -0.1106 -0.1431 -0.2507
  788loPI   C2A10914   0.664  17.505   8.053  0.2573 -0.0907  0.3904
  788loPI   C3A10915   0.541  17.432   8.437 -0.0363  0.1066 -0.2218
  788loPI   C4A10916   0.399  17.502   8.794 -0.4352 -0.1346 -0.1898
  788loPI   C5A10917   0.267  17.779   9.110  0.2613 -0.0999  0.0285
  788loPI   C6A10918  -0.069  18.064   9.031  0.1631  0.0371 -0.1741
  788loPI   C1B10919   0.219  17.697   7.450 -0.2193 -0.0027  0.1430
  788loPI   C2B10920   0.016  17.705   7.854 -0.0330  0.0558 -0.1635
  788loPI   C3B10921   0.222  17.836   8.168 -0.1416  0.0354 -0.2190
  788loPI   C4B10922   0.184  17.910   8.607 -0.3988 -0.0729 -0.1577
  789loPI    C110923   3.636   7.622   6.099 -0.1266  0.1966 -0.3304
  789loPI    C210924   3.625   7.274   5.901 -0.1027  0.0672 -0.1070
  789loPI    C310925   3.337   7.546   5.845 -0.0755  0.0478 -0.3471
  789loPI   PO410926   3.724   7.529   6.362 -0.2955  0.0247 -0.1151
  789loPI   GL110927   3.634   7.397   6.751 -0.0536  0.0096  0.0817
  789loPI   GL210928   3.361   7.190   6.803 -0.0031 -0.0343  0.0386
  789loPI   C1A10929   3.480   7.666   7.055  0.0222 -0.1289  0.4840
  789loPI   C2A10930   3.603   7.720   7.428 -0.0700  0.1813  0.0655
  789loPI   C3A10931   3.732   7.595   7.803  0.0350 -0.0345  0.1898
  789loPI   C4A10932   3.715   7.603   8.267 -0.1618 -0.2540 -0.1617
  789loPI   C5A10933   3.563   7.502   8.674 -0.2941 -0.1048 -0.1634
  789loPI   C6A10934   3.608   7.353   9.113 -0.1741  0.0108 -0.0149
  789loPI   C1B10935   3.343   7.248   7.271  0.2626  0.1943 -0.2574
  789loPI   C2B10936   3.443   7.204   7.730 -0.0354  0.2430 -0.2168
  789loPI   C3B10937   3.548   7.176   8.085 -0.1445 -0.1462 -0.2414
  789loPI   C4B10938   3.618   6.987   8.455  0.1667 -0.0076 -0.0951
  790loPI    C110939   5.993   3.234   6.417 -0.0044 -0.0079  0.2190
  790loPI    C210940   5.855   2.869   6.325 -0.0077  0.0350  0.0510
  790loPI    C310941   5.889   3.148   6.040 -0.0849  0.1928  0.1945
  790loPI   PO410942   6.289   3.202   6.516 -0.2242 -0.0140  0.1227
  790loPI   GL110943   6.481   3.013   6.937 -0.0130  0.1930  0.2932
  790loPI   GL210944   6.799   2.760   6.897 -0.0212 -0.0500 -0.2967
  790loPI   C1A10945   6.326   3.178   7.353 -0.4306 -0.1473  0.0051
  790loPI   C2A10946   6.405   3.181   7.784 -0.0010  0.3232  0.1474
  790loPI   C3A10947   6.289   3.278   8.198  0.1781 -0.0474 -0.1326
  790loPI   C4A10948   6.560   3.352   8.575  0.1091  0.0642 -0.1061
  790loPI   C5A10949   6.871   3.705   8.700 -0.1573 -0.1427 -0.0403
  790loPI   C6A10950   7.230   3.682   8.860 -0.3539 -0.0544 -0.0432
  790loPI   C1B10951   6.674   2.870   7.312  0.1739  0.1263 -0.1874
  790loPI   C2B10952   6.803   2.965   7.625  0.1222  0.1031  0.1630
  790loPI   C3B10953   6.781   2.924   8.070  0.1824  0.2621 -0.0423
  790loPI   C4B10954   6.681   2.819   8.505  0.1871  0.2385 -0.1324
  791loPI    C110955   1.644   6.224   6.297  0.1336  0.1885 -0.0402
  791loPI    C210956   1.474   6.148   5.943 -0.0628 -0.0569  0.1033
  791loPI    C310957   1.836   6.000   6.027  0.1080  0.2359 -0.0980
  791loPI   PO410958   1.364   6.142   6.436  0.0972 -0.0465  0.3238
  791loPI   GL110959   1.298   6.005   6.750  0.0168  0.0823  0.1338
  791loPI   GL210960   1.213   6.375   6.834  0.0121 -0.0154  0.1146
  791loPI   C1A10961   1.134   5.747   7.029  0.1223 -0.2285  0.3181
  791loPI   C2A10962   1.119   5.724   7.374  0.2112 -0.2103  0.1818
  791loPI   C3A10963   1.166   5.627   7.804  0.0359  0.0006 -0.0169
  791loPI   C4A10964   1.177   5.533   8.199 -0.0230 -0.0023  0.3158
  791loPI   C5A10965   1.272   5.522   8.683 -0.3296  0.0225  0.0999
  791loPI   C6A10966   1.418   5.151   8.942  0.0955  0.1675  0.2895
  791loPI   C1B10967   1.191   6.254   7.283 -0.0667  0.1969 -0.0973
  791loPI   C2B10968   1.343   6.114   7.673  0.2235  0.2181 -0.2866
  791loPI   C3B10969   1.322   5.975   8.076 -0.0428  0.0437 -0.0608
  791loPI   C4B10970   1.429   6.005   8.435  0.0435 -0.1690 -0.3365
  792loPI    C110971  12.987   4.077   5.971  0.0095  0.0433  0.2817
  792loPI    C210972  12.803   4.423   5.893 -0.0045 -0.0322 -0.0346
  792loPI    C310973  13.016   4.241   5.607  0.1932 -0.1706  0.1972
  792loPI   PO410974  12.960   4.036   6.299 -0.1258 -0.2800  0.0715
  792loPI   GL110975  12.937   4.239   6.723 -0.0203 -0.2757  0.0443
  792loPI   GL210976  12.550   4.086   6.804  0.0580  0.0560 -0.0729
  792loPI   C1A10977  13.216   4.265   7.080  0.1863 -0.0923  0.0741
  792loPI   C2A10978  13.276   4.359   7.500  0.0578  0.1037 -0.0544
  792loPI   C3A10979  13.193   4.231   7.900 -0.3412 -0.0295  0.2061
  792loPI   C4A10980  13.269   4.095   8.277 -0.1420  0.3104  0.1292
  792loPI   C5A10981  13.214   4.215   8.690  0.0608 -0.1672 -0.3827
  792loPI   C6A10982  13.381   4.399   9.066  0.3181 -0.2834 -0.1585
  792loPI   C1B10983  12.666   4.165   7.203  0.3241 -0.2065  0.2765
  792loPI   C2B10984  12.808   4.187   7.592 -0.1872  0.0549 -0.3927
  792loPI   C3B10985  12.788   4.032   8.047 -0.0887 -0.3471 -0.2717
  792loPI   C4B10986  12.795   3.901   8.461  0.0622  0.0533 -0.0622
  793loPI    C110987   9.066  14.102   6.036  0.1507  0.1795  0.1707
  793loPI    C210988   9.378  14.202   5.806  0.0479  0.1718  0.0267
  793loPI    C310989   9.130  13.910   5.692  0.0720  0.0769  0.2128
  793loPI   PO410990   9.015  14.305   6.173  0.0459 -0.0601  0.0550
  793loPI   GL110991   8.890  14.455   6.605 -0.1107  0.1269 -0.0462
  793loPI   GL210992   8.614  14.452   6.508  0.3841 -0.1822 -0.0569
  793loPI   C1A10993   9.023  14.133   6.947 -0.0834 -0.1789 -0.0919
  793loPI   C2A10994   9.030  13.928   7.358  0.2274 -0.1018  0.0780
  793loPI   C3A10995   8.971  13.939   7.802 -0.1202 -0.1374 -0.3010
  793loPI   C4A10996   8.989  14.032   8.244  0.0530 -0.2861 -0.0369
  793loPI   C5A10997   9.077  13.853   8.619  0.0980 -0.0700  0.1525
  793loPI   C6A10998   9.373  13.682   8.831 -0.1045  0.1375  0.1894
  793loPI   C1B10999   8.588  14.421   7.045  0.0146  0.0484  0.0715
  793loPI   C2B11000   8.695  14.289   7.469  0.0467  0.0195 -0.1739
  793loPI   C3B11001   8.680  14.357   7.939  0.2138  0.0835 -0.0890
  793loPI   C4B11002   8.419  14.195   8.273 -0.0800 -0.1319  0.2317
  794loPI    C111003   0.076   6.704   6.357 -0.2857 -0.0887 -0.0619
  794loPI    C211004  -0.160   6.866   6.078  0.0019  0.0241 -0.2437
  794loPI    C311005   0.236   6.847   6.020  0.0472 -0.1039  0.0851
  794loPI   PO411006   0.043   6.821   6.617 -0.1007 -0.2202 -0.0839
  794loPI   GL111007  -0.009   6.554   6.846  0.0911 -0.1229 -0.0138
  794loPI   GL211008  -0.356   6.577   6.849 -0.0576 -0.0279  0.0918
  794loPI   C1A11009  -0.018   6.740   7.308 -0.2234  0.2581 -0.0013
  794loPI   C2A11010  -0.084   6.666   7.744  0.0244 -0.0602  0.2686
  794loPI   C3A11011   0.183   6.700   8.044  0.1825  0.1422 -0.0127
  794loPI   C4A11012   0.268   6.749   8.455 -0.3349  0.1732  0.3259
  794loPI   C5A11013   0.349   6.615   8.774  0.0270  0.0181  0.1316
  794loPI   C6A11014   0.473   6.812   9.190 -0.1170 -0.0223 -0.4079
  794loPI   C1B11015  -0.555   6.606   7.255 -0.1811  0.3266 -0.0334
  794loPI   C2B11016  -0.585   6.633   7.668 -0.2353 -0.0846  0.0484
  794loPI   C3B11017  -0.592   6.592   8.087  0.0749  0.0393 -0.0162
  794loPI   C4B11018  -0.803   6.503   8.542  0.2943 -0.1773 -0.0982
  795loPI    C111019   3.895   4.078   6.161  0.0431  0.2413  0.0419
  795loPI    C211020   3.498   4.119   6.140  0.0257  0.0154 -0.1039
  795loPI    C311021   3.668   3.769   6.048  0.2547  0.0928  0.0166
  795loPI   PO411022   3.926   4.252   6.354  0.0897 -0.1103 -0.1211
  795loPI   GL111023   3.948   4.238   6.797  0.0608  0.0406  0.0306
  795loPI   GL211024   4.132   4.450   6.987  0.1265  0.0829  0.1761
  795loPI   C1A11025   4.041   3.984   7.212 -0.0713 -0.2080  0.0069
  795loPI   C2A11026   4.137   4.001   7.621  0.0712 -0.2127 -0.3169
  795loPI   C3A11027   4.038   3.889   8.165 -0.2993 -0.1721  0.1014
  795loPI   C4A11028   4.027   3.807   8.683  0.1201  0.1953  0.0959
  795loPI   C5A11029   3.886   3.810   9.102 -0.0346 -0.1076 -0.4989
  795loPI   C6A11030   3.558   3.614   9.357 -0.1589 -0.1067  0.0022
  795loPI   C1B11031   4.314   4.405   7.386  0.1587 -0.1589  0.0970
  795loPI   C2B11032   4.310   4.528   7.900 -0.3414  0.0878 -0.2776
  795loPI   C3B11033   4.229   4.409   8.252  0.2927  0.0587 -0.0068
  795loPI   C4B11034   4.308   4.154   8.623  0.1759 -0.2271  0.4490
  796loPI    C111035   7.331   4.215   6.004  0.0593 -0.0017  0.0161
  796loPI    C211036   7.391   4.607   5.949  0.2057 -0.0417 -0.1161
  796loPI    C311037   7.083   4.424   5.770 -0.0594  0.0762  0.2090
  796loPI   PO411038   7.367   4.205   6.262 -0.0500 -0.0725  0.3772
  796loPI   GL111039   7.466   3.958   6.615 -0.1937  0.0510  0.0933
  796loPI   GL211040   7.817   4.151   6.652  0.1374  0.0356  0.0239
  796loPI   C1A11041   7.430   4.089   7.026  0.1593  0.1057 -0.0079
  796loPI   C2A11042   7.441   4.128   7.389  0.2409  0.1598  0.4870
  796loPI   C3A11043   7.501   4.042   7.807 -0.1661  0.0757  0.0622
  796loPI   C4A11044   7.731   4.024   8.149  0.1393 -0.3380 -0.0735
  796loPI   C5A11045   7.726   4.144   8.540  0.2116  0.2495  0.3097
  796loPI   C6A11046   7.341   4.174   8.769 -0.1918  0.0949  0.3988
  796loPI   C1B11047   7.921   4.170   7.114 -0.0265  0.0314 -0.0895
  796loPI   C2B11048   7.891   4.157   7.533 -0.1474 -0.0320  0.1254
  796loPI   C3B11049   8.120   4.146   7.867  0.3218  0.0281  0.0936
  796loPI   C4B11050   8.227   4.259   8.291 -0.2110 -0.1750 -0.0101
  797loPI    C111051   3.144  17.080   6.707  0.0054  0.0665 -0.0390
  797loPI    C211052   3.279  17.357   6.453 -0.0619  0.1161 -0.0207
  797loPI    C311053   3.056  17.054   6.318 -0.0948  0.1405 -0.0216
  797loPI   PO411054   3.110  17.196   6.900  0.0243 -0.1506  0.1023
  797loPI   GL111055   3.172  17.109   7.244  0.1206 -0.1144  0.1194
  797loPI   GL211056   2.944  17.142   7.411  0.1255 -0.0464 -0.2414
  797loPI   C1A11057   3.398  16.974   7.583  0.0545 -0.3477  0.1592
  797loPI   C2A11058   3.356  17.051   8.047  0.0580  0.0233 -0.1264
  797loPI   C3A11059   3.423  17.112   8.511  0.1489 -0.1072  0.0440
  797loPI   C4A11060   3.447  17.312   8.944 -0.1375 -0.1161 -0.1736
  797loPI   C5A11061   3.340  17.589   9.380  0.2642 -0.0868 -0.1102
  797loPI   C6A11062   3.162  17.926   9.363 -0.4026  0.0911 -0.1095
  797loPI   C1B11063   2.856  17.345   7.705 -0.0381  0.0135  0.1358
  797loPI   C2B11064   2.796  17.469   8.026  0.1809 -0.4176 -0.0413
  797loPI   C3B11065   2.736  17.507   8.431  0.3038 -0.4354  0.2296
  797loPI   C4B11066   2.566  17.522   8.790 -0.0290 -0.1944 -0.3531
  798loPI    C111067   9.831  13.425   5.819  0.0886  0.0976 -0.0162
  798loPI    C211068   9.625  13.723   5.649  0.1593  0.0942 -0.1092
  798loPI    C311069   9.534  13.343   5.563  0.1949  0.0925 -0.1392
  798loPI   PO411070   9.821  13.459   6.120  0.0864  0.1121 -0.2347
  798loPI   GL111071   9.872  13.682   6.575 -0.1088  0.1505  0.1392
  798loPI   GL211072   9.548  13.512   6.583  0.0886  0.1875 -0.0281
  798loPI   C1A11073  10.112  13.644   6.875  0.0376 -0.0222 -0.3131
  798loPI   C2A11074  10.037  13.614   7.289 -0.1110  0.0150 -0.0677
  798loPI   C3A11075   9.928  13.723   7.757 -0.1281 -0.0907  0.2753
  798loPI   C4A11076   9.917  13.884   8.154 -0.0653  0.0756 -0.0314
  798loPI   C5A11077   9.662  14.138   8.485 -0.0824  0.1438 -0.0191
  798loPI   C6A11078   9.347  14.236   8.829 -0.0464 -0.1759  0.4457
  798loPI   C1B11079   9.622  13.575   7.036  0.3049 -0.3202  0.0532
  798loPI   C2B11080   9.436  13.552   7.463 -0.2792 -0.2841 -0.3736
  798loPI   C3B11081   9.420  13.571   7.903 -0.0803  0.0551 -0.2078
  798loPI   C4B11082   9.428  13.638   8.347 -0.2179  0.0133 -0.2649
  799loPI    C111083  16.517   3.532   6.049 -0.0281 -0.1741  0.0404
  799loPI    C211084  16.196   3.534   5.811 -0.1945 -0.2298  0.2606
  799loPI    C311085  16.531   3.350   5.694 -0.2764 -0.2623  0.0740
  799loPI   PO411086  16.461   3.681   6.208  0.2980 -0.0650 -0.0468
  799loPI   GL111087  16.481   3.759   6.549 -0.0691 -0.1481 -0.0245
  799loPI   GL211088  16.166   3.909   6.616  0.4051  0.1984 -0.1894
  799loPI   C1A11089  16.512   3.860   6.955 -0.2238  0.0441  0.4102
  799loPI   C2A11090  16.388   3.807   7.352 -0.0241  0.0858  0.3791
  799loPI   C3A11091  16.493   3.680   7.759 -0.2779 -0.0549 -0.1199
  799loPI   C4A11092  16.493   3.650   8.138 -0.1711 -0.1792 -0.0571
  799loPI   C5A11093  16.659   3.616   8.658 -0.2139 -0.4120  0.5197
  799loPI   C6A11094  17.117   3.847   8.715 -0.0138  0.0450  0.1265
  799loPI   C1B11095  15.959   4.172   6.997  0.2203 -0.0256 -0.2251
  799loPI   C2B11096  16.077   4.173   7.449  0.2690 -0.2092  0.3023
  799loPI   C3B11097  16.151   4.051   7.850 -0.0998  0.2077 -0.1425
  799loPI   C4B11098  16.169   4.027   8.324 -0.0240 -0.4685  0.0908
  800loPI    C111099  14.880   8.002   6.308  0.0242  0.1831 -0.0686
  800loPI    C211100  14.657   8.129   6.000  0.1006  0.2275 -0.1057
  800loPI    C311101  14.898   7.813   5.956 -0.2617 -0.0777  0.0524
  800loPI   PO411102  14.731   7.960   6.571  0.0656  0.0951 -0.1157
  800loPI   GL111103  14.525   8.114   6.971  0.1057  0.0791 -0.0521
  800loPI   GL211104  14.266   8.046   6.821 -0.0399 -0.1269 -0.0648
  800loPI   C1A11105  14.670   8.074   7.346 -0.0072  0.2379  0.1668
  800loPI   C2A11106  14.605   7.998   7.772 -0.1455  0.2698 -0.0672
  800loPI   C3A11107  14.576   8.020   8.232 -0.0794  0.2529 -0.2823
  800loPI   C4A11108  14.691   7.740   8.576 -0.2384 -0.0450  0.2986
  800loPI   C5A11109  14.778   7.507   8.858  0.0106  0.1492  0.1721
  800loPI   C6A11110  14.884   7.069   9.016 -0.0281  0.0370 -0.1818
  800loPI   C1B11111  14.144   7.920   7.255  0.4304 -0.0192 -0.1114
  800loPI   C2B11112  14.036   7.889   7.682  0.0526  0.1035 -0.0851
  800loPI   C3B11113  14.130   7.857   8.071 -0.1835 -0.1482 -0.1524
  800loPI   C4B11114  14.108   7.850   8.558 -0.1577 -0.1497 -0.0551
  801loPI    C111115  17.005   3.742   6.330  0.1458  0.0060 -0.0385
  801loPI    C211116  16.863   4.050   6.119 -0.1143 -0.0450  0.0584
  801loPI    C311117  16.947   3.704   5.936 -0.0802 -0.0034 -0.0054
  801loPI   PO411118  17.188   3.800   6.441  0.0513  0.0704 -0.1433
  801loPI   GL111119  17.302   4.009   6.747 -0.1232  0.2924 -0.1313
  801loPI   GL211120  17.439   3.787   6.859  0.2922 -0.3257 -0.0553
  801loPI   C1A11121  17.104   4.272   7.000  0.0847 -0.0313  0.1229
  801loPI   C2A11122  17.041   4.360   7.409 -0.2209  0.0017 -0.3073
  801loPI   C3A11123  16.992   4.427   7.813 -0.0151 -0.2703  0.2820
  801loPI   C4A11124  17.066   4.257   8.238 -0.1576  0.0683 -0.1290
  801loPI   C5A11125  17.078   4.324   8.645 -0.1996 -0.1137  0.2025
  801loPI   C6A11126  16.929   4.452   9.012  0.0515 -0.2259  0.2025
  801loPI   C1B11127  17.469   3.946   7.259 -0.0193  0.0212  0.1034
  801loPI   C2B11128  17.531   3.856   7.618  0.0335 -0.1511 -0.2649
  801loPI   C3B11129  17.542   3.940   7.962  0.2553 -0.2409 -0.2920
  801loPI   C4B11130  17.477   3.901   8.306  0.0172 -0.0792 -0.3546
  802loPI    C111131  10.713   5.532   5.818  0.1329  0.0138  0.0892
  802loPI    C211132  10.599   5.178   5.964  0.2034 -0.1150 -0.1635
  802loPI    C311133  10.769   5.200   5.602  0.1071  0.1895 -0.1929
  802loPI   PO411134  10.509   5.717   5.934  0.1266  0.1928  0.0733
  802loPI   GL111135  10.243   5.520   6.253 -0.0629  0.1189 -0.1405
  802loPI   GL211136  10.098   5.723   6.500  0.1182  0.2160  0.1181
  802loPI   C1A11137  10.251   5.229   6.513  0.0225 -0.1295  0.0303
  802loPI   C2A11138  10.413   4.983   6.847 -0.2200 -0.0012  0.2286
  802loPI   C3A11139  10.420   4.995   7.302 -0.1204  0.1263 -0.2563
  802loPI   C4A11140  10.585   4.983   7.696 -0.0677  0.0862  0.2804
  802loPI   C5A11141  10.587   4.807   8.071 -0.1887  0.1888  0.0824
  802loPI   C6A11142  10.900   4.711   8.384 -0.0690 -0.1294  0.2058
  802loPI   C1B11143  10.133   5.460   6.889  0.0719 -0.4320 -0.3431
  802loPI   C2B11144  10.099   5.369   7.345  0.2561 -0.0152 -0.0226
  802loPI   C3B11145  10.203   5.315   7.660  0.1298 -0.1853 -0.0650
  802loPI   C4B11146  10.378   5.323   8.077  0.1508  0.0634 -0.1534
  803loPI    C111147   4.621   5.487   6.243 -0.3330  0.0832  0.0741
  803loPI    C211148   4.598   5.119   6.401 -0.0750  0.0155 -0.0417
  803loPI    C311149   4.698   5.167   6.016 -0.0993  0.2080 -0.0254
  803loPI   PO411150   4.365   5.536   6.353 -0.0561 -0.0624  0.3135
  803loPI   GL111151   4.297   5.647   6.737 -0.0036  0.1959  0.0221
  803loPI   GL211152   4.472   5.387   6.846 -0.1689 -0.1561 -0.1068
  803loPI   C1A11153   4.167   5.829   7.128  0.1380 -0.2745  0.1110
  803loPI   C2A11154   4.122   5.886   7.566  0.1444 -0.1618 -0.5704
  803loPI   C3A11155   4.045   5.807   8.080 -0.1055  0.0230 -0.0404
  803loPI   C4A11156   4.153   5.684   8.525  0.0100 -0.2362 -0.0474
  803loPI   C5A11157   3.948   5.414   8.857  0.0064  0.1283  0.1384
  803loPI   C6A11158   3.861   5.028   9.090 -0.0256  0.1908 -0.1812
  803loPI   C1B11159   4.535   5.445   7.222 -0.1988 -0.2850  0.0137
  803loPI   C2B11160   4.524   5.529   7.621 -0.1124  0.0192 -0.1172
  803loPI   C3B11161   4.461   5.503   8.026 -0.2610 -0.0665 -0.3687
  803loPI   C4B11162   4.587   5.437   8.413  0.0468  0.2269  0.0283
  804loPI    C111163   6.885   9.386   6.134  0.0017 -0.1707  0.2330
  804loPI    C211164   7.073   9.091   5.940 -0.0595  0.0685 -0.2038
  804loPI    C311165   6.675   9.125   5.916 -0.0817  0.0243  0.0757
  804loPI   PO411166   6.919   9.391   6.367 -0.1172  0.1099 -0.0563
  804loPI   GL111167   6.813   9.401   6.735 -0.1291  0.1090  0.2882
  804loPI   GL211168   6.547   9.409   6.802  0.2008 -0.0591  0.1116
  804loPI   C1A11169   6.903   9.585   7.121 -0.1706 -0.1685 -0.1186
  804loPI   C2A11170   6.971   9.588   7.628  0.0052 -0.0290 -0.0223
  804loPI   C3A11171   7.111   9.518   8.099  0.1807 -0.4542 -0.2315
  804loPI   C4A11172   7.105   9.385   8.503  0.0146  0.2007 -0.1028
  804loPI   C5A11173   7.300   9.117   8.717  0.3950 -0.1151 -0.0793
  804loPI   C6A11174   7.308   8.713   8.971  0.0538 -0.2001  0.2618
  804loPI   C1B11175   6.526   9.281   7.263 -0.5011  0.2655 -0.1640
  804loPI   C2B11176   6.554   9.366   7.717  0.0896  0.2174 -0.0670
  804loPI   C3B11177   6.574   9.446   8.117 -0.3035  0.0915  0.0507
  804loPI   C4B11178   6.630   9.345   8.406  0.2548  0.2193 -0.1832
  805loPI    C111179  12.863   5.941   5.724 -0.3966 -0.2691  0.0828
  805loPI    C211180  12.659   6.269   5.621  0.0390 -0.0414 -0.0787
  805loPI    C311181  12.692   5.965   5.363 -0.4218 -0.2482  0.0960
  805loPI   PO411182  12.761   5.985   5.997 -0.1537  0.0337 -0.0676
  805loPI   GL111183  12.963   5.995   6.357 -0.0123  0.3124 -0.2455
  805loPI   GL211184  13.085   5.735   6.453  0.1476 -0.0448 -0.0720
  805loPI   C1A11185  12.943   6.118   6.761  0.1123  0.0321  0.0544
  805loPI   C2A11186  12.883   6.155   7.155 -0.0482 -0.1764  0.0693
  805loPI   C3A11187  12.859   6.019   7.577 -0.2828 -0.0605  0.3524
  805loPI   C4A11188  12.714   5.983   7.968 -0.0530  0.1949 -0.1717
  805loPI   C5A11189  12.781   5.992   8.352 -0.3991  0.0735  0.1275
  805loPI   C6A11190  12.978   5.772   8.724 -0.0077 -0.1936  0.1176
  805loPI   C1B11191  13.078   5.684   6.935 -0.3446 -0.2726  0.0784
  805loPI   C2B11192  13.147   5.612   7.455  0.0860  0.1418  0.0449
  805loPI   C3B11193  13.173   5.670   7.863 -0.1711  0.0374  0.0892
  805loPI   C4B11194  13.149   5.596   8.314  0.0815 -0.2496  0.5256
  806loPI    C111195   0.462   8.000   6.032  0.1770 -0.1961  0.0679
  806loPI    C211196   0.791   8.143   5.854  0.1894 -0.4151 -0.0881
  806loPI    C311197   0.596   7.832   5.695 -0.2941 -0.0727 -0.1900
  806loPI   PO411198   0.511   8.022   6.319  0.1819 -0.2240  0.1582
  806loPI   GL111199   0.193   8.087   6.643 -0.0738  0.0486 -0.4003
  806loPI   GL211200   0.086   7.823   6.798 -0.0172  0.0214  0.0783
  806loPI   C1A11201   0.231   8.298   6.986  0.0488  0.2814  0.0339
  806loPI   C2A11202   0.040   8.394   7.330 -0.1980 -0.2201  0.0996
  806loPI   C3A11203  -0.018   8.377   7.823 -0.1985  0.0368 -0.0083
  806loPI   C4A11204  -0.123   8.111   8.134 -0.0930  0.1268  0.0135
  806loPI   C5A11205   0.131   7.992   8.522  0.3991  0.1672 -0.1496
  806loPI   C6A11206   0.129   8.111   8.909  0.0022  0.2654  0.0110
  806loPI   C1B11207   0.094   7.862   7.232  0.0958  0.1515  0.0926
  806loPI   C2B11208   0.136   7.921   7.700  0.2499  0.2851 -0.0623
  806loPI   C3B11209   0.322   7.760   8.085  0.2458 -0.1084  0.0219
  806loPI   C4B11210   0.583   7.733   8.380 -0.2988  0.1068  0.1842
  807loPI    C111211  10.974  13.415   5.854 -0.0288 -0.1177 -0.0151
  807loPI    C211212  10.722  13.285   5.572  0.2648  0.1241 -0.3981
  807loPI    C311213  11.071  13.098   5.631  0.0559 -0.1418  0.0554
  807loPI   PO411214  10.798  13.453   6.099  0.0131 -0.3413  0.2563
  807loPI   GL111215  10.692  13.614   6.522  0.0225  0.1177  0.0577
  807loPI   GL211216  10.551  13.838   6.674 -0.2957 -0.2762  0.5407
  807loPI   C1A11217  10.890  13.436   6.927  0.3551  0.0690  0.0836
  807loPI   C2A11218  10.790  13.413   7.330 -0.0764  0.3150  0.1643
  807loPI   C3A11219  10.937  13.484   7.746  0.0068 -0.0641  0.1220
  807loPI   C4A11220  11.018  13.733   8.097  0.2556 -0.2014  0.0413
  807loPI   C5A11221  11.044  13.849   8.539  0.3231 -0.1918  0.1490
  807loPI   C6A11222  11.112  14.060   8.950  0.0531 -0.1896  0.3547
  807loPI   C1B11223  10.509  13.775   7.075  0.2562  0.1018 -0.3545
  807loPI   C2B11224  10.498  13.806   7.472 -0.1548  0.1056 -0.0630
  807loPI   C3B11225  10.546  13.844   7.839 -0.1899 -0.1309 -0.1041
  807loPI   C4B11226  10.603  14.093   8.179  0.2551  0.0568  0.0677
  808loPI    C111227  13.054   8.734   6.107 -0.0031  0.2539 -0.3412
  808loPI    C211228  13.269   8.574   5.810 -0.0261  0.0559 -0.2529
  808loPI    C311229  13.307   8.963   5.898  0.2980  0.0232 -0.2365
  808loPI   PO411230  13.107   8.514   6.337 -0.1206  0.0210  0.0589
  808loPI   GL111231  13.167   8.671   6.721  0.1083  0.0361 -0.0684
  808loPI   GL211232  13.474   8.561   6.693 -0.2256 -0.1012  0.0832
  808loPI   C1A11233  12.894   8.543   7.091 -0.0671  0.2881 -0.0951
  808loPI   C2A11234  12.868   8.492   7.435  0.0329 -0.4021 -0.4676
  808loPI   C3A11235  12.942   8.366   7.854  0.1080  0.1992  0.1531
  808loPI   C4A11236  12.732   8.431   8.236 -0.2216  0.0616 -0.1323
  808loPI   C5A11237  12.802   8.599   8.692 -0.1615 -0.1392  0.2815
  808loPI   C6A11238  13.224   8.645   8.804 -0.0652 -0.2273  0.0607
  808loPI   C1B11239  13.435   8.710   7.128 -0.0093 -0.3136 -0.0824
  808loPI   C2B11240  13.485   8.567   7.491 -0.0843 -0.3318 -0.2689
  808loPI   C3B11241  13.346   8.615   7.871  0.0466 -0.0098  0.0505
  808loPI   C4B11242  13.280   8.424   8.370  0.0609  0.0500  0.1110
  809loPI    C111243   8.631  16.287   5.876 -0.1740  0.1780  0.1499
  809loPI    C211244   8.872  16.556   5.705  0.0281 -0.0203  0.1181
  809loPI    C311245   8.480  16.562   5.628  0.0294  0.2683  0.1244
  809loPI   PO411246   8.829  16.169   6.034  0.0225 -0.3312  0.1253
  809loPI   GL111247   8.952  16.181   6.471  0.3055 -0.3525  0.2834
  809loPI   GL211248   8.958  16.398   6.522  0.1673  0.0602  0.1751
  809loPI   C1A11249   8.868  15.919   6.741 -0.1584 -0.1092  0.1229
  809loPI   C2A11250   8.997  15.959   7.215  0.3533  0.0120  0.1777
  809loPI   C3A11251   9.115  15.970   7.675 -0.1110  0.0243 -0.2164
  809loPI   C4A11252   9.189  15.909   8.075 -0.2996  0.0392  0.1411
  809loPI   C5A11253   9.318  15.716   8.458 -0.1754 -0.1413  0.2197
  809loPI   C6A11254   9.449  15.512   8.880 -0.1142  0.1767 -0.2278
  809loPI   C1B11255   9.006  16.394   6.914  0.1095  0.1325 -0.0608
  809loPI   C2B11256   9.222  16.409   7.344  0.1771  0.0030  0.1044
  809loPI   C3B11257   9.278  16.438   7.763  0.0190  0.1509 -0.1007
  809loPI   C4B11258   9.257  16.452   8.117  0.0272 -0.1802  0.0412
  810loPI    C111259   2.110  13.770   6.639  0.0419 -0.0208 -0.0615
  810loPI    C211260   1.811  13.954   6.831  0.0548  0.0477 -0.1069
  810loPI    C311261   1.916  14.073   6.464  0.0835 -0.0303 -0.1241
  810loPI   PO411262   2.086  13.492   6.896 -0.0797  0.1084  0.5126
  810loPI   GL111263   2.255  13.416   7.289 -0.0397  0.0055 -0.1703
  810loPI   GL211264   2.588  13.469   7.153  0.3359 -0.2531 -0.2351
  810loPI   C1A11265   2.187  13.416   7.765  0.1511  0.1854  0.1914
  810loPI   C2A11266   2.166  13.388   8.116  0.1403  0.0017 -0.0358
  810loPI   C3A11267   1.908  13.307   8.512  0.0152  0.2067 -0.1094
  810loPI   C4A11268   1.787  13.228   9.018  0.3247 -0.1330 -0.0931
  810loPI   C5A11269   1.529  13.149   9.335 -0.0967  0.0986  0.0637
  810loPI   C6A11270   1.074  13.279   9.457 -0.2237  0.0643  0.0689
  810loPI   C1B11271   2.502  13.811   7.535  0.1992 -0.0645 -0.1485
  810loPI   C2B11272   2.516  13.743   7.967 -0.4754 -0.0992  0.0648
  810loPI   C3B11273   2.399  13.790   8.351 -0.1491 -0.0521 -0.0185
  810loPI   C4B11274   2.352  13.607   8.748 -0.1170 -0.0245 -0.2229
  811loPI    C111275  12.086   9.389   5.748 -0.0962 -0.1692 -0.0572
  811loPI    C211276  12.202   9.582   6.079  0.0276 -0.0862 -0.1481
  811loPI    C311277  12.422   9.605   5.746 -0.1266 -0.1221 -0.2537
  811loPI   PO411278  11.997   9.188   5.881 -0.0149  0.1569  0.0017
  811loPI   GL111279  11.780   9.099   6.302  0.3343  0.1900 -0.1294
  811loPI   GL211280  11.988   9.315   6.479  0.2898  0.0318 -0.0038
  811loPI   C1A11281  11.626   9.013   6.744 -0.2475  0.2992 -0.2650
  811loPI   C2A11282  11.636   9.145   7.156 -0.0783 -0.0603  0.0628
  811loPI   C3A11283  11.731   8.987   7.556 -0.0040 -0.4824  0.2073
  811loPI   C4A11284  11.641   9.123   7.989 -0.0360  0.1044  0.2294
  811loPI   C5A11285  11.647   8.931   8.361  0.1981 -0.0309  0.1924
  811loPI   C6A11286  11.764   8.989   8.775 -0.1222  0.0520 -0.3043
  811loPI   C1B11287  12.064   9.286   6.914 -0.2270  0.0177 -0.0005
  811loPI   C2B11288  12.206   9.220   7.337  0.3453  0.3263 -0.0478
  811loPI   C3B11289  12.141   9.232   7.788 -0.0239 -0.0813 -0.0207
  811loPI   C4B11290  12.060   9.112   8.228  0.1736 -0.1123 -0.1578
  812loPI    C111291   7.905   3.063   5.903  0.0878 -0.0660 -0.0867
  812loPI    C211292   7.684   2.944   5.593  0.0977  0.2076 -0.2015
  812loPI    C311293   7.597   3.287   5.781  0.0830  0.0372  0.1085
  812loPI   PO411294   7.950   2.893   6.049  0.3930 -0.0283  0.0349
  812loPI   GL111295   7.799   2.675   6.380  0.1594  0.0409  0.1140
  812loPI   GL211296   8.104   2.778   6.580  0.2574  0.2101 -0.2583
  812loPI   C1A11297   7.757   2.485   6.785 -0.1992 -0.1867  0.0964
  812loPI   C2A11298   7.684   2.612   7.179  0.3000 -0.0983 -0.0091
  812loPI   C3A11299   7.623   2.696   7.563 -0.2505  0.1812 -0.0586
  812loPI   C4A11300   7.618   2.667   7.995 -0.3122 -0.1551  0.0487
  812loPI   C5A11301   7.695   2.693   8.366  0.0692 -0.0875 -0.0386
  812loPI   C6A11302   7.729   2.666   8.833  0.3904 -0.2159 -0.0007
  812loPI   C1B11303   8.202   2.766   7.021 -0.1579  0.0889 -0.1267
  812loPI   C2B11304   8.170   2.769   7.409 -0.1875 -0.0565  0.1515
  812loPI   C3B11305   8.080   2.796   7.790  0.0597 -0.1238 -0.1339
  812loPI   C4B11306   8.241   2.858   8.245 -0.0447 -0.2705 -0.2527
  813loPI    C111307  12.841   5.038   5.947 -0.0611  0.2277  0.0272
  813loPI    C211308  12.861   5.219   5.591  0.3542 -0.0320 -0.0894
  813loPI    C311309  12.684   4.862   5.624 -0.0615  0.1801  0.0533
  813loPI   PO411310  12.703   5.197   6.122  0.0147 -0.1140  0.2155
  813loPI   GL111311  12.545   5.210   6.467  0.1171  0.0417  0.2066
  813loPI   GL211312  12.399   4.900   6.464 -0.1285 -0.2054 -0.3816
  813loPI   C1A11313  12.586   5.111   6.901 -0.0855  0.1323 -0.0734
  813loPI   C2A11314  12.517   5.160   7.348  0.0592  0.3604  0.0889
  813loPI   C3A11315  12.494   5.047   7.667  0.2651 -0.0516 -0.0484
  813loPI   C4A11316  12.482   5.009   8.085  0.2232  0.2939  0.0087
  813loPI   C5A11317  12.743   4.884   8.407 -0.0985  0.2076 -0.0226
  813loPI   C6A11318  12.860   4.468   8.303  0.2056  0.0871 -0.1679
  813loPI   C1B11319  12.169   4.907   6.851  0.0778  0.0608 -0.0680
  813loPI   C2B11320  12.169   4.837   7.248 -0.1648 -0.1070  0.1311
  813loPI   C3B11321  12.041   4.749   7.703  0.2477 -0.1010 -0.4427
  813loPI   C4B11322  11.915   4.828   8.221  0.2728 -0.1574 -0.0434
  814loPI    C111323   7.254   1.916   6.153  0.2110 -0.0313 -0.0967
  814loPI    C211324   7.103   1.684   5.864 -0.0357  0.2054 -0.1624
  814loPI    C311325   7.361   1.976   5.772  0.1834  0.0366 -0.0939
  814loPI   PO411326   7.094   1.978   6.300  0.3818  0.1270  0.1560
  814loPI   GL111327   6.957   2.111   6.628  0.0514 -0.1409  0.0627
  814loPI   GL211328   7.020   2.378   6.753 -0.0006  0.0149 -0.2335
  814loPI   C1A11329   6.936   1.972   7.000  0.1083  0.0156 -0.1417
  814loPI   C2A11330   7.091   2.009   7.441 -0.0107 -0.1816 -0.4010
  814loPI   C3A11331   7.095   2.075   7.805  0.0972 -0.2754 -0.1192
  814loPI   C4A11332   7.038   1.995   8.171 -0.0042 -0.1310 -0.0781
  814loPI   C5A11333   6.994   2.012   8.678  0.1646 -0.0118  0.1478
  814loPI   C6A11334   6.885   2.456   8.783  0.1063 -0.1715 -0.2622
  814loPI   C1B11335   7.133   2.406   7.141 -0.4390  0.2760  0.2930
  814loPI   C2B11336   7.151   2.571   7.566 -0.2919  0.0188  0.0384
  814loPI   C3B11337   7.175   2.564   8.162  0.0674  0.1200 -0.1701
  814loPI   C4B11338   7.274   2.715   8.616 -0.0631  0.2631  0.2909
  815loPI    C111339   8.338  11.325   5.900 -0.2001  0.0267 -0.1033
  815loPI    C211340   8.106  11.510   5.631  0.0092 -0.0092 -0.3111
  815loPI    C311341   8.501  11.486   5.573  0.0792  0.1215  0.0788
  815loPI   PO411342   8.116  11.336   6.126  0.4216 -0.0325  0.0355
  815loPI   GL111343   8.120  11.545   6.472 -0.2095  0.0542  0.5799
  815loPI   GL211344   7.898  11.594   6.588  0.2805  0.3322 -0.0648
  815loPI   C1A11345   8.296  11.496   6.830 -0.1821 -0.3152 -0.2230
  815loPI   C2A11346   8.293  11.413   7.270 -0.2043  0.0235 -0.2346
  815loPI   C3A11347   8.411  11.373   7.692  0.1164 -0.0270 -0.2292
  815loPI   C4A11348   8.549  11.436   8.197  0.1932  0.1395  0.1780
  815loPI   C5A11349   8.531  11.256   8.557 -0.1693 -0.0586 -0.1462
  815loPI   C6A11350   8.816  11.455   8.840 -0.1223 -0.0057  0.2283
  815loPI   C1B11351   7.954  11.773   7.043 -0.1536 -0.0580 -0.1018
  815loPI   C2B11352   7.976  11.721   7.509  0.1557 -0.0394 -0.1227
  815loPI   C3B11353   8.057  11.764   7.879 -0.0056  0.1399 -0.2426
  815loPI   C4B11354   8.189  11.882   8.305  0.0395 -0.1782  0.0570
  816loPI    C111355  16.833  14.837   6.621  0.0990  0.0445 -0.1418
  816loPI    C211356  17.096  15.127   6.540  0.0060  0.2463  0.2521
  816loPI    C311357  17.222  14.778   6.689  0.0755  0.2432  0.1868
  816loPI   PO411358  16.657  14.884   6.782  0.3069 -0.1129 -0.0625
  816loPI   GL111359  16.547  14.778   7.095 -0.1043 -0.2097 -0.0078
  816loPI   GL211360  16.134  14.852   7.200  0.3845 -0.1990 -0.2242
  816loPI   C1A11361  16.526  14.581   7.457 -0.1756 -0.1507 -0.1020
  816loPI   C2A11362  16.697  14.606   7.828 -0.0559 -0.3617 -0.0587
  816loPI   C3A11363  16.680  14.785   8.263  0.0368  0.0539  0.2891
  816loPI   C4A11364  16.623  14.978   8.627  0.1115  0.3610  0.0684
  816loPI   C5A11365  16.475  15.123   9.070 -0.1192 -0.1993 -0.3405
  816loPI   C6A11366  16.474  15.323   9.488  0.0187  0.1014  0.1924
  816loPI   C1B11367  16.167  14.853   7.626  0.1831  0.1115 -0.1100
  816loPI   C2B11368  16.271  14.831   7.969  0.1135  0.2477  0.0587
  816loPI   C3B11369  16.187  14.728   8.414  0.1241  0.1048  0.0513
  816loPI   C4B11370  16.112  14.617   8.809  0.0203  0.1782 -0.1291
  817loPI    C111371  12.264  14.865   5.799  0.1603 -0.0642  0.0496
  817loPI    C211372  12.620  14.714   5.695  0.1792 -0.0633  0.1132
  817loPI    C311373  12.287  14.586   5.513  0.1990 -0.1559  0.1418
  817loPI   PO411374  12.341  15.067   6.006  0.0958  0.1311  0.2950
  817loPI   GL111375  12.198  15.070   6.396  0.2983 -0.4394 -0.1182
  817loPI   GL211376  12.499  15.113   6.490  0.4842 -0.0603  0.1872
  817loPI   C1A11377  12.179  14.856   6.864  0.1719  0.1199 -0.1585
  817loPI   C2A11378  12.155  14.929   7.261 -0.1022  0.0521  0.1844
  817loPI   C3A11379  12.111  14.959   7.710  0.0827  0.0237 -0.0219
  817loPI   C4A11380  12.193  14.929   8.055  0.2831 -0.2139 -0.1395
  817loPI   C5A11381  12.176  14.833   8.456  0.1110  0.0093 -0.0335
  817loPI   C6A11382  12.043  15.145   8.713 -0.3329 -0.2373 -0.0083
  817loPI   C1B11383  12.688  15.057   6.859  0.2857 -0.0582  0.0515
  817loPI   C2B11384  12.656  15.015   7.266 -0.0525  0.0212  0.0709
  817loPI   C3B11385  12.622  15.045   7.714 -0.0290  0.2161 -0.0835
  817loPI   C4B11386  12.667  15.067   8.087  0.1458  0.2348 -0.1795
  818loPI    C111387   7.001   7.883   5.685  0.0036 -0.1325 -0.2743
  818loPI    C211388   7.224   7.627   5.897 -0.2283 -0.3211 -0.2537
  818loPI    C311389   7.195   7.586   5.500 -0.1228 -0.2174 -0.2725
  818loPI   PO411390   7.038   8.085   5.839  0.0045  0.3074 -0.0654
  818loPI   GL111391   6.951   8.083   6.304  0.1960  0.1425  0.3769
  818loPI   GL211392   7.215   7.901   6.386  0.0336  0.0975  0.2735
  818loPI   C1A11393   7.002   8.144   6.815 -0.0959  0.2497  0.0219
  818loPI   C2A11394   7.191   8.198   7.223 -0.2121  0.0195  0.1624
  818loPI   C3A11395   7.174   8.206   7.644 -0.0841 -0.0236 -0.1076
  818loPI   C4A11396   7.098   8.138   8.115 -0.1742  0.1611  0.1058
  818loPI   C5A11397   6.956   8.093   8.551 -0.1865 -0.1888  0.1137
  818loPI   C6A11398   7.079   8.302   8.909  0.0030  0.2868  0.0991
  818loPI   C1B11399   7.443   7.981   6.860 -0.1273  0.2322  0.0723
  818loPI   C2B11400   7.468   7.824   7.270  0.2193  0.0736 -0.1383
  818loPI   C3B11401   7.496   7.814   7.752 -0.0889 -0.2263 -0.1644
  818loPI   C4B11402   7.666   7.881   8.138 -0.0267  0.0343  0.0942
  819loPI    C111403   8.657  11.780   6.072  0.0675  0.1939  0.0839
  819loPI    C211404   8.259  11.794   6.043  0.0623  0.0470  0.0750
  819loPI    C311405   8.486  11.983   5.774 -0.0006  0.0480  0.0225
  819loPI   PO411406   8.708  11.813   6.275  0.0125 -0.4250 -0.0987
  819loPI   GL111407   8.633  12.175   6.461  0.0889  0.1359 -0.1906
  819loPI   GL211408   8.668  12.499   6.492  0.0467 -0.3971 -0.2750
  819loPI   C1A11409   8.832  12.164   6.875 -0.3224  0.1399 -0.2061
  819loPI   C2A11410   8.913  12.044   7.314  0.2981 -0.1758 -0.0694
  819loPI   C3A11411   9.062  12.029   7.721 -0.2878  0.0424  0.0042
  819loPI   C4A11412   9.181  12.106   8.145  0.0874  0.0779  0.0632
  819loPI   C5A11413   9.055  11.992   8.638  0.2140 -0.2063  0.3179
  819loPI   C6A11414   8.764  11.935   9.060 -0.0906  0.1312 -0.4013
  819loPI   C1B11415   8.795  12.650   6.851 -0.0841 -0.0859  0.0908
  819loPI   C2B11416   8.653  12.976   7.184  0.1272  0.0222 -0.0864
  819loPI   C3B11417   8.731  13.026   7.606  0.0017 -0.2059  0.1545
  819loPI   C4B11418   8.847  13.068   8.049  0.0890 -0.0769  0.1954
  820loPI    C111419   4.647  11.356   6.448 -0.0196  0.1193  0.1160
  820loPI    C211420   4.294  11.170   6.428  0.0082  0.0572  0.1998
  820loPI    C311421   4.582  11.081   6.165 -0.0142  0.0565  0.1756
  820loPI   PO411422   4.662  11.413   6.735  0.3048 -0.0409  0.0667
  820loPI   GL111423   4.485  11.029   6.960 -0.2802 -0.0094  0.1745
  820loPI   GL211424   4.731  10.887   7.034 -0.0642 -0.2777 -0.1503
  820loPI   C1A11425   4.374  11.223   7.368  0.0574  0.2524  0.0403
  820loPI   C2A11426   4.124  11.035   7.718 -0.0238 -0.2441 -0.2430
  820loPI   C3A11427   4.108  11.066   8.156  0.1442  0.0284  0.3254
  820loPI   C4A11428   3.908  11.066   8.599 -0.0872 -0.0010  0.1084
  820loPI   C5A11429   3.991  10.727   8.951 -0.0989 -0.3173  0.2494
  820loPI   C6A11430   3.647  10.472   9.125  0.2184  0.0279  0.0387
  820loPI   C1B11431   4.753  10.818   7.448  0.0003  0.0518 -0.0458
  820loPI   C2B11432   4.624  10.938   7.844 -0.0603  0.2999 -0.1892
  820loPI   C3B11433   4.529  10.856   8.316  0.0930  0.1386 -0.0142
  820loPI   C4B11434   4.455  10.912   8.806  0.2446 -0.1722 -0.2374
  821loPI    C111435  10.793  11.638   6.587  0.0232 -0.1887 -0.1706
  821loPI    C211436  10.841  11.673   6.192  0.0378 -0.2350 -0.1730
  821loPI    C311437  11.153  11.725   6.437  0.0340 -0.2307 -0.1690
  821loPI   PO411438  10.662  11.449   6.582  0.0222 -0.0937 -0.2798
  821loPI   GL111439  10.664  11.230   6.991  0.1986 -0.0633 -0.0642
  821loPI   GL211440  10.711  11.519   7.098  0.2014 -0.0524  0.0864
  821loPI   C1A11441  10.740  11.104   7.358 -0.1225 -0.1220 -0.0034
  821loPI   C2A11442  10.694  11.105   7.788 -0.2499  0.0857  0.1633
  821loPI   C3A11443  10.836  11.243   8.208  0.1483 -0.0986  0.0126
  821loPI   C4A11444  10.854  11.028   8.640 -0.0094  0.1274  0.1545
  821loPI   C5A11445  11.091  10.839   8.878  0.0914 -0.2058  0.2325
  821loPI   C6A11446  11.282  10.558   9.101 -0.0756 -0.0317  0.1549
  821loPI   C1B11447  10.737  11.545   7.516 -0.0237 -0.4661 -0.2663
  821loPI   C2B11448  10.845  11.709   7.911  0.0247 -0.1280 -0.2801
  821loPI   C3B11449  10.885  11.747   8.349  0.0537  0.0086  0.1829
  821loPI   C4B11450  10.862  11.659   8.770  0.1102  0.0162 -0.2747
  822loPI    C111451   4.661  14.342   7.070 -0.0669  0.0762 -0.0105
  822loPI    C211452   4.343  14.490   7.263  0.0055 -0.0674  0.2218
  822loPI    C311453   4.324  14.128   7.094 -0.1148  0.1290 -0.1963
  822loPI   PO411454   4.820  14.321   7.201  0.0139 -0.0337 -0.0527
  822loPI   GL111455   4.859  13.982   7.570 -0.1797 -0.0823 -0.0642
  822loPI   GL211456   4.536  14.154   7.608 -0.0663  0.0032 -0.0791
  822loPI   C1A11457   4.843  13.804   7.923 -0.1263 -0.3670 -0.1819
  822loPI   C2A11458   5.059  13.479   8.275 -0.1247  0.1303  0.1769
  822loPI   C3A11459   5.171  13.266   8.656 -0.1334 -0.2924  0.2900
  822loPI   C4A11460   5.192  12.888   8.948  0.0061  0.0426 -0.2023
  822loPI   C5A11461   5.447  12.570   9.228 -0.0844 -0.0069 -0.1610
  822loPI   C6A11462   5.395  12.066   9.223  0.2670 -0.0012  0.1156
  822loPI   C1B11463   4.470  14.144   8.005 -0.1292 -0.1040  0.2210
  822loPI   C2B11464   4.321  14.200   8.501  0.0513  0.0788 -0.3154
  822loPI   C3B11465   4.089  14.491   8.846  0.2881  0.0299 -0.0991
  822loPI   C4B11466   3.806  14.359   9.235 -0.1041  0.2177  0.0492
  823loPI    C111467   8.705   2.575   5.852  0.1674 -0.0390 -0.0409
  823loPI    C211468   8.708   2.968   5.780  0.0874 -0.0406 -0.0538
  823loPI    C311469   8.924   2.721   5.551 -0.0568 -0.0306 -0.2022
  823loPI   PO411470   8.706   2.595   6.090 -0.4179 -0.1380 -0.0783
  823loPI   GL111471   8.736   2.568   6.446 -0.0606 -0.1335  0.0849
  823loPI   GL211472   9.062   2.697   6.468 -0.1950 -0.1433  0.0677
  823loPI   C1A11473   8.561   2.484   6.845  0.0374 -0.3386  0.0202
  823loPI   C2A11474   8.489   2.390   7.243 -0.2322  0.0638  0.0452
  823loPI   C3A11475   8.556   2.488   7.696  0.0972  0.2158 -0.2931
  823loPI   C4A11476   8.573   2.467   8.097 -0.0088 -0.3482 -0.0026
  823loPI   C5A11477   8.629   2.591   8.398  0.1778  0.2422 -0.1700
  823loPI   C6A11478   8.554   2.331   8.684  0.0872 -0.1934 -0.2696
  823loPI   C1B11479   9.038   2.620   6.898 -0.0254 -0.0102 -0.1026
  823loPI   C2B11480   8.984   2.566   7.328 -0.1124 -0.0987 -0.0307
  823loPI   C3B11481   9.093   2.557   7.692  0.0990 -0.2351  0.0114
  823loPI   C4B11482   9.082   2.514   8.187  0.0516 -0.0246  0.0239
  824loPI    C111483  15.220  16.744   6.210  0.0540  0.1495  0.0023
  824loPI    C211484  15.190  16.985   5.892  0.0528  0.0955 -0.0387
  824loPI    C311485  14.942  16.674   5.932  0.0467  0.1078  0.0200
  824loPI   PO411486  15.182  16.844   6.431 -0.1053 -0.1658  0.1444
  824loPI   GL111487  14.926  16.979   6.728 -0.1087 -0.3599 -0.2915
  824loPI   GL211488  14.659  17.206   6.694  0.2010 -0.0180  0.0456
  824loPI   C1A11489  14.978  17.186   7.129 -0.2567 -0.0554 -0.1040
  824loPI   C2A11490  14.910  17.166   7.528 -0.0424  0.0019  0.3528
  824loPI   C3A11491  14.945  17.189   7.918 -0.2025 -0.1651  0.1936
  824loPI   C4A11492  14.959  17.284   8.325 -0.1139 -0.1186 -0.1186
  824loPI   C5A11493  14.873  17.032   8.658  0.1414  0.3676  0.3663
  824loPI   C6A11494  14.985  16.716   8.919 -0.2448 -0.4440 -0.1290
  824loPI   C1B11495  14.526  16.974   7.029  0.1361  0.1562 -0.0465
  824loPI   C2B11496  14.408  16.972   7.495 -0.1677  0.0701  0.0877
  824loPI   C3B11497  14.439  17.018   7.919  0.0473 -0.1443  0.1281
  824loPI   C4B11498  14.531  17.180   8.363  0.3090  0.1884 -0.0644
  825loPI    C111499  13.858   3.672   6.318 -0.2509  0.2670 -0.2545
  825loPI    C211500  14.118   3.633   6.016 -0.2006  0.1634 -0.1984
  825loPI    C311501  14.165   3.926   6.285 -0.0033  0.0006 -0.0528
  825loPI   PO411502  13.807   3.449   6.377  0.0973 -0.0323  0.1332
  825loPI   GL111503  13.798   3.339   6.740 -0.4766 -0.0496  0.0214
  825loPI   GL211504  13.688   2.990   6.823 -0.1346  0.1489 -0.0394
  825loPI   C1A11505  13.857   3.480   7.202  0.1269  0.0485  0.1608
  825loPI   C2A11506  13.848   3.429   7.633  0.1566 -0.1416  0.0883
  825loPI   C3A11507  13.923   3.370   8.009  0.1485 -0.0402 -0.1087
  825loPI   C4A11508  14.094   3.443   8.459 -0.0045 -0.0610 -0.0179
  825loPI   C5A11509  14.421   3.607   8.708  0.2770  0.2238  0.1989
  825loPI   C6A11510  14.572   3.987   8.694 -0.1867  0.3069 -0.1310
  825loPI   C1B11511  13.794   2.979   7.242  0.0110  0.1139  0.0049
  825loPI   C2B11512  13.792   2.793   7.618  0.0016  0.0553 -0.2123
  825loPI   C3B11513  13.784   2.954   8.143  0.0344 -0.1434  0.0915
  825loPI   C4B11514  13.997   2.969   8.491  0.1913 -0.0005 -0.0664
  826loPI    C111515   9.629   9.871   5.915  0.0151 -0.0926  0.0016
  826loPI    C211516   9.587  10.231   5.747  0.1417 -0.1279 -0.1075
  826loPI    C311517   9.614   9.905   5.517 -0.0195 -0.2130 -0.0078
  826loPI   PO411518   9.630  10.062   6.188  0.1210 -0.0268 -0.0493
  826loPI   GL111519   9.884   9.933   6.534  0.2220 -0.0633  0.0930
  826loPI   GL211520   9.924   9.602   6.522  0.0550 -0.1002 -0.2555
  826loPI   C1A11521   9.866  10.140   6.867  0.2288 -0.0610 -0.0297
  826loPI   C2A11522   9.988  10.012   7.255  0.1821  0.3890 -0.0548
  826loPI   C3A11523   9.975   9.994   7.792  0.0894  0.2018 -0.1412
  826loPI   C4A11524   9.941  10.056   8.263  0.0478 -0.1004  0.0306
  826loPI   C5A11525   9.980  10.202   8.697  0.0658  0.0694 -0.0131
  826loPI   C6A11526  10.207  10.190   9.139 -0.2904  0.0470 -0.2467
  826loPI   C1B11527   9.811   9.533   6.953  0.1302  0.2711 -0.0377
  826loPI   C2B11528   9.824   9.551   7.375 -0.0948  0.1283 -0.0915
  826loPI   C3B11529   9.872   9.491   7.909 -0.1818  0.1367 -0.0635
  826loPI   C4B11530   9.949   9.532   8.271 -0.2746  0.2009 -0.2568
  827loPI    C111531  10.867   1.116   5.643 -0.1318  0.1358 -0.0598
  827loPI    C211532  10.536   1.004   5.448 -0.0315 -0.0107 -0.1480
  827loPI    C311533  10.893   0.972   5.271  0.0632 -0.1633  0.0659
  827loPI   PO411534  10.737   1.331   5.790  0.0977  0.2418 -0.0121
  827loPI   GL111535  10.691   1.302   6.261  0.0242  0.0494  0.0734
  827loPI   GL211536  10.449   1.107   6.178  0.3748 -0.0446 -0.0498
  827loPI   C1A11537  10.969   1.358   6.549 -0.3292  0.0732 -0.0080
  827loPI   C2A11538  10.970   1.238   7.031 -0.3192 -0.0973  0.0773
  827loPI   C3A11539  11.028   1.235   7.370  0.3911 -0.2719 -0.0548
  827loPI   C4A11540  11.021   1.235   7.841  0.3347 -0.0551 -0.2298
  827loPI   C5A11541  10.946   1.377   8.232  0.2777  0.1846  0.2484
  827loPI   C6A11542  10.846   1.650   8.607  0.0220 -0.3348 -0.0013
  827loPI   C1B11543  10.495   1.144   6.690 -0.0592  0.0424  0.1168
  827loPI   C2B11544  10.458   1.080   7.062  0.3225  0.3979 -0.0480
  827loPI   C3B11545  10.514   1.008   7.467 -0.0289 -0.1031  0.2935
  827loPI   C4B11546  10.560   1.103   7.955  0.2037 -0.2766  0.3381
  828loPI    C111547  13.729  15.001   6.100  0.0258  0.1275 -0.0060
  828loPI    C211548  13.616  14.827   5.758 -0.0113 -0.0701  0.1054
  828loPI    C311549  13.379  15.098   5.933 -0.0935 -0.1311  0.0890
  828loPI   PO411550  13.824  14.821   6.322 -0.1131 -0.2416  0.1308
  828loPI   GL111551  13.937  15.106   6.735 -0.0390 -0.0141 -0.0793
  828loPI   GL211552  13.622  15.202   6.752 -0.1223 -0.4256  0.0209
  828loPI   C1A11553  14.010  14.965   7.227 -0.1225  0.2177  0.1291
  828loPI   C2A11554  14.060  15.035   7.738  0.0836  0.0416  0.1926
  828loPI   C3A11555  13.955  15.028   8.178 -0.0945  0.0345 -0.1590
  828loPI   C4A11556  14.000  14.898   8.600  0.0990  0.2926 -0.1545
  828loPI   C5A11557  14.365  14.805   8.910  0.1371 -0.0835 -0.2390
  828loPI   C6A11558  14.716  14.981   9.190  0.0766  0.2622 -0.2542
  828loPI   C1B11559  13.569  15.322   7.228 -0.0154  0.3015 -0.1846
  828loPI   C2B11560  13.677  15.294   7.676 -0.1982  0.0239 -0.1156
  828loPI   C3B11561  13.613  15.398   8.048 -0.2347  0.1135  0.1426
  828loPI   C4B11562  13.622  15.272   8.461  0.0418  0.1968  0.3865
  829loPI    C111563  16.984   0.984   6.610 -0.4169  0.0083 -0.0736
  829loPI    C211564  16.955   0.944   6.213 -0.0681 -0.1747 -0.0841
  829loPI    C311565  17.200   0.706   6.421 -0.1290  0.0251  0.2228
  829loPI   PO411566  16.785   1.190   6.644  0.1160 -0.0705  0.2034
  829loPI   GL111567  16.812   1.613   6.687  0.1978 -0.1180 -0.0721
  829loPI   GL211568  16.545   1.790   6.837  0.1097  0.2757 -0.2700
  829loPI   C1A11569  17.007   1.669   7.076  0.2972 -0.0734 -0.1033
  829loPI   C2A11570  16.924   1.812   7.445  0.0081  0.2210  0.3085
  829loPI   C3A11571  16.889   1.915   7.929  0.2401  0.2550  0.2055
  829loPI   C4A11572  16.840   1.968   8.385 -0.2901 -0.1885 -0.1446
  829loPI   C5A11573  16.605   2.335   8.719 -0.2231  0.2495  0.0585
  829loPI   C6A11574  16.525   2.757   8.843 -0.0783 -0.0038  0.2339
  829loPI   C1B11575  16.450   1.883   7.199  0.2064 -0.1479  0.0926
  829loPI   C2B11576  16.432   1.819   7.631  0.0034  0.3116 -0.1146
  829loPI   C3B11577  16.283   1.788   7.962 -0.1618 -0.2338  0.2804
  829loPI   C4B11578  16.357   1.891   8.454 -0.0986  0.1056  0.1144
  830loPI    C111579  10.277  10.688   6.077 -0.1348  0.0028  0.1276
  830loPI    C211580  10.558  10.842   5.838 -0.0534  0.0079  0.2258
  830loPI    C311581  10.178  10.958   5.799 -0.0205  0.1020  0.1819
  830loPI   PO411582  10.527  10.625   6.335 -0.0594  0.3852  0.0688
  830loPI   GL111583  10.364  10.591   6.704  0.1405 -0.1048 -0.1643
  830loPI   GL211584  10.051  10.620   6.654 -0.3865  0.0153 -0.2215
  830loPI   C1A11585  10.498  10.748   7.085 -0.0872 -0.0371 -0.2869
  830loPI   C2A11586  10.546  10.653   7.581  0.0681 -0.1428  0.0096
  830loPI   C3A11587  10.699  10.633   7.887 -0.1203  0.0408  0.0340
  830loPI   C4A11588  10.640  10.673   8.381 -0.1637  0.0286  0.0380
  830loPI   C5A11589  10.625  10.403   8.843  0.0266 -0.0761 -0.1526
  830loPI   C6A11590  10.850  10.087   9.110 -0.2022  0.0979 -0.0837
  830loPI   C1B11591   9.987  10.551   7.122  0.1575  0.2787 -0.1356
  830loPI   C2B11592  10.027  10.425   7.546  0.2643  0.1809  0.0087
  830loPI   C3B11593  10.019  10.493   7.951 -0.1397 -0.1096  0.1275
  830loPI   C4B11594  10.167  10.534   8.353 -0.0693 -0.0015 -0.1534
  831loPI    C111595  11.593   8.195   5.666 -0.0666 -0.1989  0.0212
  831loPI    C211596  11.989   8.151   5.689 -0.0301  0.0007 -0.1824
  831loPI    C311597  11.753   7.829   5.664  0.1063 -0.1248  0.0934
  831loPI   PO411598  11.464   8.209   5.893 -0.0023  0.0360  0.0082
  831loPI   GL111599  11.616   8.325   6.333 -0.0232  0.2047 -0.2950
  831loPI   GL211600  11.490   8.027   6.585  0.0059  0.0759  0.0214
  831loPI   C1A11601  11.492   8.524   6.756  0.2102  0.0329 -0.0622
  831loPI   C2A11602  11.583   8.552   7.247  0.1386  0.2128 -0.0086
  831loPI   C3A11603  11.570   8.532   7.694  0.0620 -0.2012  0.0240
  831loPI   C4A11604  11.518   8.454   8.131  0.0996 -0.2800 -0.2908
  831loPI   C5A11605  11.367   8.497   8.488 -0.2413  0.5363 -0.2158
  831loPI   C6A11606  11.007   8.416   8.771 -0.3670 -0.2135  0.2756
  831loPI   C1B11607  11.427   8.064   7.044 -0.2520 -0.0385  0.2081
  831loPI   C2B11608  11.446   8.070   7.520  0.0747  0.1984  0.5511
  831loPI   C3B11609  11.339   7.971   7.893  0.2227 -0.1100  0.0150
  831loPI   C4B11610  11.346   8.025   8.333 -0.1275  0.0042 -0.1333
  832loPI    C111611   4.192  16.423   6.486 -0.0364  0.3202  0.1823
  832loPI    C211612   4.117  16.253   6.132  0.1761 -0.0502  0.3099
  832loPI    C311613   3.850  16.503   6.294 -0.0480 -0.0952  0.0192
  832loPI   PO411614   4.436  16.550   6.515 -0.1160  0.0734  0.0136
  832loPI   GL111615   4.603  16.585   6.956  0.0151 -0.0589  0.0764
  832loPI   GL211616   4.864  16.692   7.080  0.2394  0.0096  0.0129
  832loPI   C1A11617   4.543  16.518   7.442 -0.0070  0.2119 -0.0671
  832loPI   C2A11618   4.604  16.512   7.849 -0.0669 -0.3228 -0.0529
  832loPI   C3A11619   4.558  16.507   8.263  0.2635 -0.1096 -0.2637
  832loPI   C4A11620   4.401  16.265   8.501 -0.0423 -0.3254  0.0517
  832loPI   C5A11621   4.148  15.714   8.622 -0.1759  0.0667  0.1895
  832loPI   C6A11622   4.074  15.537   8.976 -0.0069  0.0262 -0.2210
  832loPI   C1B11623   5.116  16.627   7.377 -0.0584  0.1981  0.1462
  832loPI   C2B11624   5.113  16.655   7.816  0.0845  0.0803  0.0510
  832loPI   C3B11625   5.071  16.627   8.244 -0.0251  0.3626  0.0365
  832loPI   C4B11626   4.887  16.493   8.637 -0.0161  0.0007  0.2442
  833loPI    C111627   8.207   1.825   5.998  0.1089  0.1202  0.1440
  833loPI    C211628   7.814   1.751   6.004  0.1786 -0.3279 -0.2415
  833loPI    C311629   7.964   2.011   5.740  0.1398 -0.1278 -0.0687
  833loPI   PO411630   8.271   1.538   6.060  0.2435 -0.2373 -0.0223
  833loPI   GL111631   8.247   1.401   6.555 -0.2621  0.2611 -0.0905
  833loPI   GL211632   8.487   1.526   6.475 -0.2764 -0.2815 -0.0746
  833loPI   C1A11633   8.338   1.447   7.003 -0.0915  0.1017 -0.2071
  833loPI   C2A11634   8.328   1.397   7.481  0.2235 -0.2008  0.1026
  833loPI   C3A11635   8.314   1.437   7.830  0.2443 -0.0015  0.2163
  833loPI   C4A11636   8.301   1.476   8.246  0.1890  0.0848  0.0535
  833loPI   C5A11637   8.579   1.335   8.477  0.1805 -0.1243 -0.1819
  833loPI   C6A11638   8.748   0.920   8.486  0.0644 -0.0143 -0.0837
  833loPI   C1B11639   8.783   1.621   6.798 -0.2110 -0.0030  0.1741
  833loPI   C2B11640   8.795   1.579   7.222  0.1209  0.1144 -0.4192
  833loPI   C3B11641   8.806   1.581   7.634 -0.0581  0.1172  0.0690
  833loPI   C4B11642   8.759   1.521   8.051 -0.1233  0.1574  0.0960
  834loPI    C111643  11.110   4.936   5.846 -0.0757  0.1549 -0.0468
  834loPI    C211644  11.440   4.800   5.664 -0.1996 -0.0686 -0.1084
  834loPI    C311645  11.319   5.176   5.604  0.1034  0.0491  0.0012
  834loPI   PO411646  11.117   4.691   6.066 -0.1690  0.0924 -0.2529
  834loPI   GL111647  11.329   4.652   6.493 -0.0315  0.0660  0.3267
  834loPI   GL211648  11.642   4.721   6.545  0.6610  0.2210  0.0082
  834loPI   C1A11649  11.311   4.707   6.960  0.0491 -0.0814 -0.2600
  834loPI   C2A11650  11.347   4.683   7.395 -0.2270 -0.0245 -0.4004
  834loPI   C3A11651  11.453   4.733   7.779  0.1924 -0.2495 -0.2262
  834loPI   C4A11652  11.473   4.647   8.241 -0.3160  0.0298  0.2007
  834loPI   C5A11653  11.553   4.668   8.653  0.1882 -0.1272 -0.1183
  834loPI   C6A11654  11.385   4.297   9.010  0.1529 -0.1140 -0.2043
  834loPI   C1B11655  11.763   4.625   6.938 -0.1535 -0.1978  0.5439
  834loPI   C2B11656  11.849   4.426   7.326  0.0687 -0.3332  0.0394
  834loPI   C3B11657  11.869   4.296   7.814 -0.0739  0.0511 -0.0948
  834loPI   C4B11658  11.817   4.297   8.266 -0.2060 -0.4368  0.0866
  835loPI    C111659  11.462   1.313   5.668 -0.0037 -0.0961 -0.0258
  835loPI    C211660  11.687   1.237   5.346  0.0262  0.1265 -0.0592
  835loPI    C311661  11.294   1.302   5.304  0.0408  0.2165 -0.0585
  835loPI   PO411662  11.596   1.499   5.861 -0.0861  0.4252 -0.1843
  835loPI   GL111663  11.757   1.428   6.277 -0.4446 -0.5478  0.1223
  835loPI   GL211664  12.040   1.570   6.515 -0.2305  0.1320 -0.3881
  835loPI   C1A11665  11.464   1.471   6.559 -0.2215 -0.1707 -0.1040
  835loPI   C2A11666  11.461   1.358   7.052 -0.0963 -0.3748  0.2165
  835loPI   C3A11667  11.523   1.373   7.523 -0.1629 -0.2963 -0.0748
  835loPI   C4A11668  11.556   1.394   7.922 -0.0280 -0.2518  0.3100
  835loPI   C5A11669  11.601   1.384   8.296  0.2796 -0.2017  0.1236
  835loPI   C6A11670  11.561   1.437   8.687 -0.0636 -0.1713  0.0528
  835loPI   C1B11671  11.887   1.487   6.783 -0.2556 -0.1857  0.2506
  835loPI   C2B11672  11.921   1.504   7.203  0.0084 -0.0051 -0.0413
  835loPI   C3B11673  11.993   1.473   7.681 -0.1411  0.0775 -0.0367
  835loPI   C4B11674  12.055   1.437   8.156  0.1829  0.2061 -0.1373
  836loPI    C111675   1.683  12.888   6.461  0.1501 -0.0903  0.0720
  836loPI    C211676   1.506  12.529   6.447  0.0621 -0.0527  0.1982
  836loPI    C311677   1.367  12.829   6.222  0.1067 -0.0845  0.1278
  836loPI   PO411678   1.738  12.933   6.722  0.0701  0.0478  0.0615
  836loPI   GL111679   1.741  12.803   7.128  0.0438 -0.0151  0.1892
  836loPI   GL211680   1.830  13.140   7.149 -0.2039  0.1093  0.1731
  836loPI   C1A11681   1.712  12.801   7.601 -0.0968 -0.3888  0.0926
  836loPI   C2A11682   1.791  12.967   7.953  0.2412  0.0565  0.2980
  836loPI   C3A11683   1.814  12.822   8.348  0.0323  0.0785  0.0494
  836loPI   C4A11684   1.722  12.772   8.810  0.1541  0.1045  0.0033
  836loPI   C5A11685   1.559  12.537   9.179  0.1604  0.1017 -0.0801
  836loPI   C6A11686   1.139  12.433   9.415 -0.0201 -0.0328  0.1706
  836loPI   C1B11687   1.750  13.280   7.460 -0.2087 -0.3538 -0.0091
  836loPI   C2B11688   1.601  13.531   7.737 -0.1802  0.0458 -0.2283
  836loPI   C3B11689   1.605  13.478   8.200 -0.0325 -0.0865  0.1846
  836loPI   C4B11690   1.455  13.517   8.620 -0.1011  0.0067  0.0848
  837loPI    C111691   5.033   8.013   6.356  0.2113  0.4288 -0.0658
  837loPI    C211692   4.892   7.923   5.993  0.1575 -0.0219  0.0612
  837loPI    C311693   5.285   7.904   6.065  0.1689  0.0750  0.0249
  837loPI   PO411694   4.863   8.118   6.509 -0.0369 -0.3081  0.0018
  837loPI   GL111695   4.849   8.397   6.816 -0.0126  0.0684  0.3144
  837loPI   GL211696   5.030   8.618   6.918  0.2158  0.0110  0.0899
  837loPI   C1A11697   4.611   8.100   7.133  0.2145  0.0605  0.0510
  837loPI   C2A11698   4.594   8.043   7.575  0.1399 -0.0561  0.1711
  837loPI   C3A11699   4.674   8.043   8.060 -0.0947 -0.1624  0.1035
  837loPI   C4A11700   4.803   8.036   8.476  0.4845 -0.0456  0.2372
  837loPI   C5A11701   5.032   7.724   8.652  0.2661 -0.0968  0.0420
  837loPI   C6A11702   5.196   7.402   8.846 -0.0476  0.0769  0.0914
  837loPI   C1B11703   4.845   8.609   7.314  0.2518 -0.1424  0.1932
  837loPI   C2B11704   4.774   8.528   7.731 -0.0315  0.2006  0.0019
  837loPI   C3B11705   4.809   8.601   8.157  0.1864  0.1348 -0.0549
  837loPI   C4B11706   4.468   8.892   8.200  0.2268 -0.1151  0.0075
  838loPI    C111707  11.692   5.409   5.879 -0.0050  0.0171  0.0659
  838loPI    C211708  11.997   5.572   5.677  0.0319 -0.1367 -0.0038
  838loPI    C311709  11.637   5.541   5.506  0.0205 -0.1131  0.0158
  838loPI   PO411710  11.603   5.628   6.113  0.1826  0.2937 -0.2510
  838loPI   GL111711  11.588   5.802   6.585 -0.0606  0.1579  0.5154
  838loPI   GL211712  11.366   5.517   6.526  0.1475 -0.0028 -0.1676
  838loPI   C1A11713  11.712   5.609   6.930 -0.2684  0.1025 -0.1851
  838loPI   C2A11714  11.676   5.521   7.359 -0.2048 -0.0146  0.2634
  838loPI   C3A11715  11.771   5.655   7.794 -0.0990 -0.0397  0.0714
  838loPI   C4A11716  11.817   5.690   8.249 -0.1669 -0.0560 -0.0578
  838loPI   C5A11717  11.660   5.955   8.524  0.1420  0.0201  0.2693
  838loPI   C6A11718  11.305   6.179   8.641 -0.1784  0.0480  0.1118
  838loPI   C1B11719  11.298   5.162   6.703  0.3896  0.0593 -0.1639
  838loPI   C2B11720  11.269   5.174   7.210 -0.1750 -0.0955  0.1769
  838loPI   C3B11721  11.062   5.101   7.501  0.1384  0.2111 -0.1462
  838loPI   C4B11722  11.070   4.984   8.014 -0.2834  0.0511  0.2104
  839loPI    C111723   1.428  11.925   6.473 -0.0783 -0.1755  0.1014
  839loPI    C211724   1.640  12.044   6.155 -0.0221 -0.1015  0.1662
  839loPI    C311725   1.663  11.665   6.280 -0.0593 -0.1356  0.0707
  839loPI   PO411726   1.571  12.099   6.708  0.0742 -0.2036 -0.1186
  839loPI   GL111727   1.638  12.127   7.129 -0.1538 -0.1633  0.1245
  839loPI   GL211728   1.968  12.055   7.034 -0.1190  0.0443  0.0120
  839loPI   C1A11729   1.665  12.289   7.562 -0.0169  0.0607  0.3799
  839loPI   C2A11730   1.719  12.214   7.880  0.1947 -0.1021  0.0386
  839loPI   C3A11731   1.667  12.261   8.275 -0.1000  0.2170  0.0678
  839loPI   C4A11732   1.738  12.290   8.710 -0.1056  0.1678  0.1213
  839loPI   C5A11733   2.034  12.141   8.969 -0.0057 -0.1556  0.0921
  839loPI   C6A11734   2.430  12.247   9.222 -0.1706 -0.0664  0.2111
  839loPI   C1B11735   2.115  12.048   7.436 -0.0074  0.3383  0.0281
  839loPI   C2B11736   2.185  11.996   7.871  0.0474  0.1228 -0.1695
  839loPI   C3B11737   2.028  11.797   8.185  0.0805 -0.1002  0.1544
  839loPI   C4B11738   1.781  11.812   8.609 -0.2033 -0.1527  0.0351
  840loPI    C111739  17.158   7.337   6.069 -0.0053  0.1213 -0.0822
  840loPI    C211740  17.508   7.317   5.876  0.0610 -0.1023  0.0571
  840loPI    C311741  17.265   7.630   5.819  0.2884  0.0604 -0.0314
  840loPI   PO411742  17.234   7.244   6.320  0.0828 -0.2039 -0.0152
  840loPI   GL111743  17.425   7.316   6.702  0.1176  0.0892 -0.1813
  840loPI   GL211744  17.741   7.284   6.816  0.0368 -0.0987 -0.2502
  840loPI   C1A11745  17.250   7.370   7.104 -0.0623  0.1294 -0.2471
  840loPI   C2A11746  17.269   7.454   7.563 -0.0988  0.0730  0.2081
  840loPI   C3A11747  17.431   7.200   7.872  0.0772 -0.4024 -0.4004
  840loPI   C4A11748  17.355   7.369   8.348  0.0443 -0.2488 -0.3211
  840loPI   C5A11749  17.403   7.219   8.742 -0.1636 -0.0127  0.0192
  840loPI   C6A11750  17.176   6.908   8.924  0.0248  0.2522 -0.0637
  840loPI   C1B11751  17.616   7.003   7.250  0.0923  0.0871  0.0464
  840loPI   C2B11752  17.642   6.859   7.623  0.0713 -0.1501  0.1742
  840loPI   C3B11753  17.833   6.836   8.059 -0.2682  0.1071  0.1515
  840loPI   C4B11754  17.866   7.023   8.445  0.1310  0.1812  0.1999
  841loPI    C111755   6.816   0.099   6.398 -0.0769  0.0267  0.0648
  841loPI    C211756   6.806   0.400   6.135 -0.3256  0.0225  0.0675
  841loPI    C311757   6.896   0.031   6.012 -0.4924  0.0111 -0.0233
  841loPI   PO411758   6.883   0.214   6.640 -0.1195 -0.2077  0.1748
  841loPI   GL111759   7.019   0.388   6.985 -0.1877 -0.0453 -0.1209
  841loPI   GL211760   7.193   0.546   6.883  0.1207 -0.1770 -0.0664
  841loPI   C1A11761   7.066   0.043   7.303 -0.2462  0.0702 -0.0501
  841loPI   C2A11762   7.035   0.059   7.746 -0.2883  0.0603 -0.3451
  841loPI   C3A11763   7.059   0.079   8.158  0.0304 -0.0609  0.1656
  841loPI   C4A11764   7.375   0.067   8.310  0.6996  0.1133  0.0506
  841loPI   C5A11765   7.642   0.158   8.624  0.2745 -0.0441  0.1694
  841loPI   C6A11766   7.748  -0.008   9.102 -0.1265  0.2244  0.1035
  841loPI   C1B11767   7.238   0.687   7.324  0.0819  0.3148 -0.2872
  841loPI   C2B11768   7.186   0.583   7.714 -0.0717  0.0479 -0.1947
  841loPI   C3B11769   7.225   0.724   8.154  0.2336  0.2173  0.1129
  841loPI   C4B11770   7.394   0.679   8.573 -0.3006  0.1010 -0.1107
  842loPI    C111771   8.460  14.185   6.036 -0.0871 -0.0386 -0.0379
  842loPI    C211772   8.380  14.022   5.679 -0.0459 -0.0474 -0.0431
  842loPI    C311773   8.719  14.228   5.734 -0.1821  0.1930 -0.0886
  842loPI   PO411774   8.243  14.254   6.129 -0.0416  0.4184  0.0978
  842loPI   GL111775   8.140  14.300   6.682  0.1612 -0.1949  0.0676
  842loPI   GL211776   8.043  14.237   6.997  0.1220 -0.1543 -0.0556
  842loPI   C1A11777   8.204  14.703   6.879  0.4186 -0.1259 -0.1900
  842loPI   C2A11778   8.353  14.666   7.360 -0.1173  0.0598  0.3189
  842loPI   C3A11779   8.389  14.757   7.739  0.4814 -0.0739 -0.0058
  842loPI   C4A11780   8.534  14.858   8.179 -0.0124  0.1527 -0.0228
  842loPI   C5A11781   8.553  15.101   8.563  0.0727 -0.0131 -0.0005
  842loPI   C6A11782   8.845  14.810   8.783  0.1697 -0.0803  0.1571
  842loPI   C1B11783   8.190  14.199   7.409  0.3850  0.1303  0.3774
  842loPI   C2B11784   8.195  14.250   7.836  0.3080  0.1656 -0.2184
  842loPI   C3B11785   8.150  14.580   8.171 -0.0914  0.1307 -0.0538
  842loPI   C4B11786   8.328  14.572   8.562 -0.1227  0.1352 -0.1715
  843loPI    C111787   9.939  15.600   5.807  0.0358  0.0119 -0.1890
  843loPI    C211788   9.930  15.244   5.625 -0.0495  0.0263 -0.2137
  843loPI    C311789  10.132  15.548   5.461  0.1756 -0.0599 -0.1015
  843loPI   PO411790   9.916  15.478   6.071 -0.1058  0.0642 -0.1452
  843loPI   GL111791   9.683  15.426   6.387 -0.4378  0.0751 -0.3109
  843loPI   GL211792   9.361  15.371   6.358 -0.2490  0.1893  0.3909
  843loPI   C1A11793   9.830  15.648   6.802  0.1501 -0.1918  0.0396
  843loPI   C2A11794   9.931  15.672   7.240 -0.0815  0.1419 -0.1056
  843loPI   C3A11795   9.892  15.719   7.712 -0.1661  0.1638 -0.0694
  843loPI   C4A11796   9.904  15.786   8.143  0.1312  0.4989  0.2642
  843loPI   C5A11797  10.252  15.879   8.441  0.0919  0.0027 -0.0369
  843loPI   C6A11798  10.434  16.295   8.662 -0.2719  0.1216 -0.0725
  843loPI   C1B11799   9.254  15.170   6.680 -0.1236 -0.1343 -0.3780
  843loPI   C2B11800   9.313  15.065   7.053  0.0249  0.0563 -0.1581
  843loPI   C3B11801   9.282  15.003   7.463 -0.0686 -0.1927  0.1843
  843loPI   C4B11802   9.423  15.034   7.900  0.0633 -0.1129 -0.2122
  844loPI    C111803   2.340   5.823   6.036  0.0466 -0.4071 -0.0957
  844loPI    C211804   2.108   5.759   5.717 -0.1962 -0.0781  0.0094
  844loPI    C311805   2.436   5.986   5.683 -0.1946 -0.0843 -0.0170
  844loPI   PO411806   2.272   5.643   6.219 -0.0295 -0.0636  0.0010
  844loPI   GL111807   1.985   5.520   6.557  0.1908  0.1035  0.1715
  844loPI   GL211808   1.844   5.830   6.567  0.0376  0.0405  0.1598
  844loPI   C1A11809   2.159   5.403   7.004  0.2507  0.4119 -0.0732
  844loPI   C2A11810   2.040   5.389   7.497 -0.2412  0.3142 -0.1156
  844loPI   C3A11811   2.009   5.265   7.915  0.0172 -0.1223  0.0694
  844loPI   C4A11812   2.176   5.430   8.358  0.1446 -0.2353 -0.4685
  844loPI   C5A11813   2.332   5.619   8.807  0.2143  0.2492  0.0364
  844loPI   C6A11814   2.248   6.004   9.000 -0.1002  0.1204  0.2970
  844loPI   C1B11815   1.692   5.749   6.931  0.2856 -0.1545 -0.3348
  844loPI   C2B11816   1.626   5.744   7.333  0.2975  0.1767 -0.5873
  844loPI   C3B11817   1.684   5.718   7.738 -0.0092 -0.0222 -0.2209
  844loPI   C4B11818   1.765   5.701   8.226 -0.0534  0.0592 -0.1817
  845loPI    C111819  10.365  11.686   6.273 -0.0285 -0.0381 -0.0297
  845loPI    C211820  10.382  12.057   6.424 -0.0050 -0.0961  0.1117
  845loPI    C311821  10.288  12.001   6.039 -0.0248  0.0557  0.0941
  845loPI   PO411822  10.198  11.537   6.447  0.0468  0.0743 -0.0223
  845loPI   GL111823  10.207  11.528   6.903  0.1041 -0.2361 -0.0007
  845loPI   GL211824  10.341  11.840   6.877  0.0012 -0.2339 -0.3319
  845loPI   C1A11825  10.176  11.520   7.334  0.1918  0.1969  0.0788
  845loPI   C2A11826  10.304  11.455   7.817  0.0424  0.2340 -0.2310
  845loPI   C3A11827  10.350  11.580   8.241 -0.1788 -0.0314  0.1804
  845loPI   C4A11828  10.399  11.384   8.709 -0.0134 -0.0655  0.0175
  845loPI   C5A11829  10.387  10.922   8.689  0.0888 -0.1968 -0.0071
  845loPI   C6A11830  10.200  10.653   8.894  0.0284  0.1518 -0.0695
  845loPI   C1B11831  10.467  11.935   7.290  0.0400  0.1089  0.3641
  845loPI   C2B11832  10.467  11.958   7.728  0.2671  0.2596  0.0360
  845loPI   C3B11833  10.490  12.062   8.192  0.0993  0.1995 -0.1628
  845loPI   C4B11834  10.470  11.882   8.580  0.1066 -0.1430 -0.1808
  846loPI    C111835  13.969  11.375   6.174  0.0997  0.0199 -0.0327
  846loPI    C211836  13.679  11.651   6.163 -0.0146 -0.1018 -0.1012
  846loPI    C311837  14.009  11.699   5.942  0.0396  0.0601  0.0127
  846loPI   PO411838  13.905  11.268   6.442 -0.1177 -0.1576  0.0532
  846loPI   GL111839  14.074  11.453   6.809  0.1131 -0.1352  0.1299
  846loPI   GL211840  14.148  11.207   7.056  0.3305  0.1694  0.4694
  846loPI   C1A11841  13.791  11.727   7.046  0.2775  0.1048 -0.1246
  846loPI   C2A11842  13.739  11.573   7.420  0.1599  0.1024 -0.2231
  846loPI   C3A11843  13.732  11.550   7.886  0.2594 -0.2492 -0.2768
  846loPI   C4A11844  13.600  11.425   8.238 -0.0525 -0.0994  0.1036
  846loPI   C5A11845  13.518  11.336   8.634  0.0495  0.0852 -0.5336
  846loPI   C6A11846  13.432  11.434   9.151  0.0538 -0.0969  0.2099
  846loPI   C1B11847  14.127  11.138   7.446  0.1149 -0.0141  0.0236
  846loPI   C2B11848  14.067  11.183   7.900 -0.0335  0.4762  0.3219
  846loPI   C3B11849  13.979  11.017   8.250 -0.0320 -0.0528  0.0325
  846loPI   C4B11850  13.929  11.101   8.705 -0.2941 -0.0126  0.1816
  847loPI    C111851  13.206   3.313   5.982 -0.0161  0.0401  0.1672
  847loPI    C211852  12.936   3.608   5.972  0.2300  0.2730  0.2417
  847loPI    C311853  13.200   3.569   5.675 -0.0313 -0.1001  0.0494
  847loPI   PO411854  13.302   3.355   6.246 -0.0228  0.2939  0.0016
  847loPI   GL111855  13.251   3.245   6.620 -0.0188 -0.2983 -0.2389
  847loPI   GL211856  12.968   3.143   6.772  0.0889  0.1672  0.3386
  847loPI   C1A11857  13.376   3.274   6.994  0.0240  0.2904 -0.2718
  847loPI   C2A11858  13.428   3.243   7.554  0.2023  0.1069 -0.0171
  847loPI   C3A11859  13.400   3.287   7.956  0.0308  0.1851 -0.0383
  847loPI   C4A11860  13.483   3.234   8.432  0.2013 -0.0478 -0.1481
  847loPI   C5A11861  13.321   3.043   8.729 -0.1285  0.1320 -0.0894
  847loPI   C6A11862  13.550   2.719   8.647  0.0483  0.2145  0.2018
  847loPI   C1B11863  12.974   3.109   7.264 -0.5790  0.0833 -0.0402
  847loPI   C2B11864  12.969   3.114   7.764 -0.1972  0.0337 -0.0813
  847loPI   C3B11865  12.874   3.140   8.140 -0.2335 -0.0259 -0.0241
  847loPI   C4B11866  12.858   3.177   8.560 -0.1015  0.0230 -0.0206
  848loPI    C111867   0.185  10.453   6.670  0.1846 -0.1886 -0.0140
  848loPI    C211868  -0.067  10.219   6.873 -0.0010 -0.1011 -0.1418
  848loPI    C311869  -0.166  10.351   6.508  0.1427  0.0977 -0.1105
  848loPI   PO411870   0.230  10.664   6.808  0.0858 -0.0281 -0.1703
  848loPI   GL111871   0.055  10.817   7.201  0.0431  0.0358 -0.1785
  848loPI   GL211872   0.145  10.423   7.271 -0.1517  0.0296 -0.1580
  848loPI   C1A11873   0.128  10.930   7.671  0.2247 -0.2448 -0.1528
  848loPI   C2A11874   0.052  10.820   8.047  0.4073  0.0406 -0.4049
  848loPI   C3A11875   0.317  10.821   8.378 -0.0736  0.3428 -0.2428
  848loPI   C4A11876   0.320  10.857   8.780  0.0400 -0.3231 -0.2157
  848loPI   C5A11877   0.150  11.017   9.094 -0.0121 -0.0227 -0.0390
  848loPI   C6A11878  -0.063  11.265   9.362  0.0923  0.0942  0.4613
  848loPI   C1B11879   0.227  10.424   7.685 -0.2126 -0.1328  0.2704
  848loPI   C2B11880   0.367  10.343   8.171  0.0155  0.1180 -0.0941
  848loPI   C3B11881   0.359  10.272   8.544  0.3917 -0.0178  0.0824
  848loPI   C4B11882   0.596  10.473   8.879 -0.3442 -0.1565  0.0450
  849loPI    C111883   5.684  13.683   6.887 -0.4023 -0.0099 -0.1173
  849loPI    C211884   5.862  13.884   6.590 -0.0033 -0.0682  0.0764
  849loPI    C311885   5.645  13.558   6.509 -0.1656  0.1000 -0.1800
  849loPI   PO411886   5.628  13.935   7.027  0.2997 -0.3902  0.0001
  849loPI   GL111887   5.434  14.080   7.483  0.2281  0.1323  0.1130
  849loPI   GL211888   5.317  13.751   7.611  0.0699 -0.1132  0.0409
  849loPI   C1A11889   5.433  14.369   7.943 -0.2133  0.1467 -0.2138
  849loPI   C2A11890   5.437  14.333   8.387 -0.0528  0.3431  0.1354
  849loPI   C3A11891   5.240  14.277   8.848  0.2539  0.0160  0.0822
  849loPI   C4A11892   5.028  14.022   9.194  0.1499  0.4041 -0.3139
  849loPI   C5A11893   4.889  13.612   9.177 -0.2753  0.2252 -0.0861
  849loPI   C6A11894   4.693  13.297   8.903 -0.0888 -0.2529 -0.1647
  849loPI   C1B11895   5.333  13.892   8.091 -0.0577  0.1871  0.0091
  849loPI   C2B11896   5.267  13.870   8.560  0.3623 -0.0795  0.1268
  849loPI   C3B11897   5.376  13.699   8.978 -0.0222  0.2040  0.0179
  849loPI   C4B11898   5.287  13.388   9.222 -0.2297 -0.0559  0.0382
  850loPI    C111899   1.388  16.920   6.605 -0.0954 -0.0258 -0.2353
  850loPI    C211900   1.095  17.006   6.347 -0.1550  0.2710 -0.0743
  850loPI    C311901   1.477  17.044   6.235 -0.1755  0.0116 -0.2423
  850loPI   PO411902   1.218  17.037   6.822  0.1932 -0.1333  0.0198
  850loPI   GL111903   0.909  16.896   7.114 -0.1363 -0.2572 -0.4064
  850loPI   GL211904   0.683  16.656   7.056 -0.0327 -0.2997 -0.1307
  850loPI   C1A11905   0.955  16.968   7.510  0.2197 -0.0260 -0.0525
  850loPI   C2A11906   0.829  17.055   7.903 -0.1060  0.1579  0.3100
  850loPI   C3A11907   0.912  17.112   8.263  0.1794  0.0386 -0.2985
  850loPI   C4A11908   1.005  17.076   8.607  0.0343 -0.3814  0.0623
  850loPI   C5A11909   0.836  17.121   9.081 -0.0210  0.3340  0.2734
  850loPI   C6A11910   0.693  16.892   9.436  0.0474 -0.0562  0.0908
  850loPI   C1B11911   0.566  16.709   7.524 -0.1658 -0.0292 -0.0015
  850loPI   C2B11912   0.521  16.657   7.904 -0.0993 -0.0892 -0.0382
  850loPI   C3B11913   0.520  16.819   8.303  0.1533  0.1190  0.0632
  850loPI   C4B11914   0.464  17.036   8.730  0.1032  0.2099 -0.1168
  851loPI    C111915   1.918   6.604   6.328  0.2986  0.1515  0.1417
  851loPI    C211916   1.838   6.988   6.247  0.0227  0.0466 -0.0984
  851loPI    C311917   1.866   6.722   5.949 -0.2381 -0.2036  0.0943
  851loPI   PO411918   2.073   6.628   6.536  0.1933 -0.2869 -0.1304
  851loPI   GL111919   2.090   6.389   6.822 -0.2416  0.0659  0.2399
  851loPI   GL211920   1.763   6.273   6.783 -0.1822 -0.3258  0.1817
  851loPI   C1A11921   2.231   6.419   7.201 -0.1152  0.0301  0.1668
  851loPI   C2A11922   2.378   6.367   7.506  0.0028  0.0282  0.1915
  851loPI   C3A11923   2.321   6.334   7.940 -0.3101 -0.0832  0.0217
  851loPI   C4A11924   2.411   6.438   8.305  0.1505  0.2664 -0.0558
  851loPI   C5A11925   2.425   6.435   8.827  0.0294  0.2531  0.0428
  851loPI   C6A11926   2.843   6.504   9.091  0.0837 -0.1715 -0.0604
  851loPI   C1B11927   1.693   6.287   7.112  0.0072 -0.0349 -0.0432
  851loPI   C2B11928   1.815   6.234   7.492 -0.0474 -0.1050  0.3764
  851loPI   C3B11929   1.834   6.196   7.813  0.2248 -0.0652 -0.1671
  851loPI   C4B11930   1.903   6.230   8.259  0.1385 -0.2796 -0.0024
  852loPI    C111931   3.585   3.278   6.037  0.0048  0.1309 -0.0815
  852loPI    C211932   3.863   3.363   5.762  0.2083 -0.0280  0.0715
  852loPI    C311933   3.731   2.988   5.804  0.0890  0.0176  0.1099
  852loPI   PO411934   3.677   3.350   6.396 -0.1553  0.2651 -0.1064
  852loPI   GL111935   3.770   3.389   6.828  0.1378  0.1389 -0.1023
  852loPI   GL211936   4.068   3.548   7.014  0.2080  0.0086  0.0929
  852loPI   C1A11937   3.556   3.419   7.223  0.3323  0.0985 -0.2774
  852loPI   C2A11938   3.455   3.394   7.686 -0.2461  0.0648  0.3444
  852loPI   C3A11939   3.415   3.351   8.035 -0.1461 -0.0677  0.1600
  852loPI   C4A11940   3.278   3.358   8.526  0.0439  0.4644  0.0843
  852loPI   C5A11941   3.174   3.598   8.964 -0.3738 -0.0344  0.2253
  852loPI   C6A11942   3.147   3.947   9.187 -0.1576  0.2505 -0.0359
  852loPI   C1B11943   3.907   3.567   7.517 -0.0498  0.0359  0.1762
  852loPI   C2B11944   3.902   3.416   7.988 -0.1244  0.3340  0.0068
  852loPI   C3B11945   3.795   3.409   8.403  0.1960  0.1709  0.1248
  852loPI   C4B11946   3.698   3.434   8.898 -0.1359 -0.0291  0.0230
  853loPI    C111947   3.161   3.754   6.272 -0.2196  0.0146 -0.0775
  853loPI    C211948   3.136   3.362   6.199  0.4605 -0.0474 -0.0391
  853loPI    C311949   3.194   3.619   5.897 -0.2121  0.0602 -0.0934
  853loPI   PO411950   3.306   3.747   6.431  0.0661  0.1551  0.0878
  853loPI   GL111951   3.365   3.676   6.826  0.1135  0.1127  0.2012
  853loPI   GL211952   3.577   3.924   7.079  0.1293  0.2025  0.0509
  853loPI   C1A11953   3.114   3.688   7.230  0.0075 -0.0459 -0.1886
  853loPI   C2A11954   3.077   3.762   7.706 -0.0426 -0.0401 -0.1408
  853loPI   C3A11955   3.020   3.758   8.136  0.1962  0.3591 -0.0673
  853loPI   C4A11956   2.896   3.749   8.606 -0.3718 -0.1134 -0.0757
  853loPI   C5A11957   2.682   3.865   8.845 -0.4310 -0.1151 -0.2579
  853loPI   C6A11958   2.392   3.542   9.092 -0.1777  0.1758  0.2979
  853loPI   C1B11959   3.554   3.885   7.451  0.0546 -0.1235 -0.2623
  853loPI   C2B11960   3.637   3.814   7.892  0.1163  0.2130 -0.0288
  853loPI   C3B11961   3.468   3.789   8.267 -0.1492 -0.2992 -0.2519
  853loPI   C4B11962   3.464   3.820   8.607 -0.1244  0.1034  0.1218
  854loPI    C111963   6.777  11.156   6.366 -0.3660 -0.0894  0.0105
  854loPI    C211964   6.468  11.341   6.191 -0.2098 -0.1714 -0.3613
  854loPI    C311965   6.814  11.300   5.995  0.0175 -0.1452  0.0235
  854loPI   PO411966   6.935  11.248   6.526 -0.1571  0.2134 -0.1633
  854loPI   GL111967   6.950  11.465   6.902  0.1037 -0.2844  0.1372
  854loPI   GL211968   7.256  11.242   6.920  0.0664 -0.1959  0.0632
  854loPI   C1A11969   7.006  11.352   7.393  0.0373 -0.0157 -0.2536
  854loPI   C2A11970   7.010  11.438   7.776  0.0834 -0.0978 -0.0056
  854loPI   C3A11971   7.019  11.298   8.145 -0.0269  0.0524 -0.0784
  854loPI   C4A11972   7.102  11.239   8.613  0.0482  0.1548 -0.1618
  854loPI   C5A11973   7.175  10.932   8.816  0.1389  0.3637  0.0427
  854loPI   C6A11974   7.460  10.678   9.111 -0.0037  0.0231  0.0186
  854loPI   C1B11975   7.326  11.040   7.290 -0.2689 -0.0456 -0.0656
  854loPI   C2B11976   7.346  10.974   7.651  0.0683  0.0630  0.1745
  854loPI   C3B11977   7.417  11.008   7.963  0.0223 -0.0650 -0.2588
  854loPI   C4B11978   7.554  11.276   8.326 -0.3342  0.0933  0.0738
  855loPI    C111979   9.535  15.108   5.953  0.1240 -0.2682  0.1195
  855loPI    C211980   9.407  15.050   5.578  0.1922 -0.0342  0.0586
  855loPI    C311981   9.416  15.420   5.732  0.2085 -0.1235  0.2755
  855loPI   PO411982   9.408  14.943   6.079  0.1747 -0.1206  0.1090
  855loPI   GL111983   9.224  14.748   6.348  0.0205 -0.1621 -0.0560
  855loPI   GL211984   9.000  14.881   6.375  0.0106 -0.0555  0.2175
  855loPI   C1A11985   9.379  14.658   6.772  0.1331 -0.1946 -0.0296
  855loPI   C2A11986   9.237  14.483   7.233  0.0052 -0.1944  0.1439
  855loPI   C3A11987   9.216  14.485   7.636 -0.1032  0.0620  0.1777
  855loPI   C4A11988   9.143  14.536   8.033 -0.1215 -0.4023 -0.0027
  855loPI   C5A11989   8.821  14.471   8.426  0.3509  0.1211 -0.0819
  855loPI   C6A11990   8.713  14.196   8.759 -0.2263 -0.2193 -0.1261
  855loPI   C1B11991   8.898  14.858   6.922  0.2896  0.2638  0.2235
  855loPI   C2B11992   8.810  14.814   7.437 -0.2732 -0.1691  0.2014
  855loPI   C3B11993   8.882  14.920   7.873  0.2714 -0.0574  0.2986
  855loPI   C4B11994   9.027  14.927   8.282  0.0202  0.1927  0.2988
  856loPI    C111995   6.913  14.983   6.368  0.0560  0.2353 -0.1299
  856loPI    C211996   7.040  15.036   5.992 -0.1427 -0.1219 -0.2520
  856loPI    C311997   7.237  14.789   6.238 -0.0167  0.1063 -0.1200
  856loPI   PO411998   6.819  15.254   6.548  0.2122  0.0476 -0.3211
  856loPI   GL111999   7.004  15.415   6.904 -0.0589  0.1070 -0.3513
  856loPI   GL212000   7.139  15.138   6.881  0.1328  0.0264  0.0083
  856loPI   C1A12001   6.998  15.237   7.384 -0.0851 -0.1635 -0.1782
  856loPI   C2A12002   7.000  15.312   7.796  0.2047 -0.0546 -0.2574
  856loPI   C3A12003   7.244  15.423   8.115 -0.0673  0.1724  0.0032
  856loPI   C4A12004   7.282  15.288   8.471  0.0879  0.1627 -0.0053
  856loPI   C5A12005   7.204  15.128   8.913  0.0174 -0.3245  0.1465
  856loPI   C6A12006   7.558  15.042   9.263  0.0775  0.0344  0.0227
  856loPI   C1B12007   7.350  14.961   7.071 -0.0661  0.0936  0.2182
  856loPI   C2B12008   7.458  14.888   7.534 -0.0126 -0.1600 -0.1868
  856loPI   C3B12009   7.549  14.992   7.955  0.1287  0.1382 -0.1729
  856loPI   C4B12010   7.601  14.869   8.307  0.0167  0.1383 -0.1241
  857loPI    C112011   5.575   4.881   5.899  0.1874  0.1067 -0.2980
  857loPI    C212012   5.189   4.944   5.812  0.0857  0.1525  0.1595
  857loPI    C312013   5.469   5.197   5.677 -0.1095  0.4606  0.3209
  857loPI   PO412014   5.591   4.920   6.182 -0.0799  0.2962 -0.0022
  857loPI   GL112015   5.859   4.954   6.579  0.0968  0.3858 -0.2974
  857loPI   GL212016   6.145   5.068   6.744 -0.0804 -0.3616  0.2593
  857loPI   C1A12017   5.651   4.800   7.006 -0.1467 -0.1295 -0.1926
  857loPI   C2A12018   5.706   4.865   7.434 -0.0508  0.0206  0.0900
  857loPI   C3A12019   5.795   4.839   7.919 -0.0574  0.1467  0.1459
  857loPI   C4A12020   5.867   4.777   8.326  0.0578 -0.0704 -0.2709
  857loPI   C5A12021   5.790   5.000   8.680  0.0794  0.0117 -0.1015
  857loPI   C6A12022   6.098   5.227   8.939 -0.2607  0.3205 -0.0322
  857loPI   C1B12023   6.421   5.150   7.054  0.1984 -0.1646  0.0591
  857loPI   C2B12024   6.481   5.136   7.545 -0.0170  0.0769  0.0077
  857loPI   C3B12025   6.380   4.925   8.017  0.1987 -0.3461  0.0127
  857loPI   C4B12026   6.290   5.095   8.385 -0.1306 -0.4334  0.2415
  858loPI    C112027   8.831  10.350   5.968  0.1091 -0.0763 -0.0007
  858loPI    C212028   8.868  10.643   5.698 -0.0146  0.0241  0.0906
  858loPI    C312029   9.044  10.289   5.634  0.2058  0.1450  0.0194
  858loPI   PO412030   8.852  10.479   6.206  0.1019 -0.0689 -0.3747
  858loPI   GL112031   8.767  10.415   6.644 -0.2810  0.4853 -0.2314
  858loPI   GL212032   8.468  10.506   6.589  0.0268 -0.1448  0.1204
  858loPI   C1A12033   8.949  10.264   6.978 -0.0130 -0.0708  0.0390
  858loPI   C2A12034   9.090  10.135   7.367 -0.1696 -0.2828  0.2512
  858loPI   C3A12035   9.071  10.164   7.806 -0.1334 -0.2627 -0.1259
  858loPI   C4A12036   9.121  10.190   8.223  0.2463 -0.2438 -0.2708
  858loPI   C5A12037   9.131  10.029   8.609  0.2294 -0.0746  0.1176
  858loPI   C6A12038   9.426  10.124   8.887  0.0480  0.0975 -0.2290
  858loPI   C1B12039   8.574  10.612   7.098  0.0554  0.1947  0.0399
  858loPI   C2B12040   8.718  10.590   7.562  0.0606  0.2577 -0.0549
  858loPI   C3B12041   8.713  10.511   7.981  0.0123 -0.3137 -0.0713
  858loPI   C4B12042   8.766  10.553   8.423 -0.1683 -0.0832 -0.1860
  859loPI    C112043  12.429  14.232   6.409 -0.2352 -0.0745 -0.0807
  859loPI    C212044  12.402  14.623   6.487  0.0366 -0.0742  0.0224
  859loPI    C312045  12.445  14.497   6.110  0.3344  0.0198  0.0221
  859loPI   PO412046  12.533  14.109   6.588 -0.1062 -0.0191  0.2179
  859loPI   GL112047  12.604  13.860   6.806  0.3036  0.0399 -0.1457
  859loPI   GL212048  12.554  13.482   6.848  0.3285 -0.3592  0.0557
  859loPI   C1A12049  12.405  13.995   7.254 -0.0276  0.0626 -0.0438
  859loPI   C2A12050  12.351  14.057   7.693  0.1433 -0.0038  0.2298
  859loPI   C3A12051  12.379  13.883   7.985  0.0182 -0.1261 -0.1707
  859loPI   C4A12052  12.384  13.944   8.455  0.4452 -0.1457 -0.0089
  859loPI   C5A12053  12.166  14.210   8.685 -0.3175 -0.0586 -0.1929
  859loPI   C6A12054  12.289  14.333   9.112 -0.2086 -0.3126 -0.1304
  859loPI   C1B12055  12.333  13.494   7.296  0.3108  0.0810  0.0552
  859loPI   C2B12056  12.250  13.470   7.805 -0.0212 -0.1043 -0.1738
  859loPI   C3B12057  12.252  13.419   8.180 -0.0410  0.0987  0.1645
  859loPI   C4B12058  12.298  13.364   8.642  0.2034  0.1359  0.3656
  860loPI    C112059   9.639   2.549   5.469  0.1647 -0.1793 -0.0874
  860loPI    C212060   9.348   2.779   5.318  0.1405 -0.1514  0.0008
  860loPI    C312061   9.694   2.738   5.121  0.0054 -0.3403 -0.2015
  860loPI   PO412062   9.602   2.709   5.719 -0.1098 -0.0690 -0.1248
  860loPI   GL112063   9.653   2.642   6.124 -0.1830 -0.1359  0.0065
  860loPI   GL212064   9.618   2.881   6.317  0.3380  0.1391 -0.0627
  860loPI   C1A12065   9.469   2.401   6.484 -0.4095  0.2579 -0.2251
  860loPI   C2A12066   9.407   2.303   6.877  0.2709 -0.0546 -0.2639
  860loPI   C3A12067   9.387   2.281   7.368 -0.5591  0.3218 -0.3006
  860loPI   C4A12068   9.450   2.276   7.807  0.1558 -0.0637  0.4362
  860loPI   C5A12069   9.517   2.193   8.154 -0.0632  0.1749  0.2319
  860loPI   C6A12070   9.393   2.109   8.532 -0.4459  0.1680 -0.2077
  860loPI   C1B12071   9.552   2.774   6.773  0.1062 -0.0375  0.0746
  860loPI   C2B12072   9.485   2.748   7.223 -0.1186 -0.1043  0.0444
  860loPI   C3B12073   9.537   2.753   7.627  0.0961 -0.1532 -0.2123
  860loPI   C4B12074   9.693   2.658   8.039 -0.6167  0.0479 -0.0371
  861loPI    C112075   4.345   3.830   6.338 -0.1343 -0.0925 -0.0895
  861loPI    C212076   4.145   3.525   6.174  0.1199 -0.2760 -0.0647
  861loPI    C312077   4.509   3.621   6.039  0.0769 -0.0362 -0.0148
  861loPI   PO412078   4.334   3.802   6.619  0.0569  0.0414 -0.0402
  861loPI   GL112079   4.499   3.988   6.917 -0.0525 -0.0643 -0.0550
  861loPI   GL212080   4.620   4.319   7.038 -0.2249  0.0028 -0.1261
  861loPI   C1A12081   4.607   3.993   7.391  0.0254  0.2173  0.1105
  861loPI   C2A12082   4.565   4.101   7.879  0.3840 -0.0155  0.1327
  861loPI   C3A12083   4.690   4.067   8.283 -0.0564 -0.0803  0.0510
  861loPI   C4A12084   4.836   4.162   8.668  0.0502  0.0767  0.0626
  861loPI   C5A12085   5.057   4.366   8.852  0.0958  0.1046  0.0701
  861loPI   C6A12086   5.490   4.162   8.983  0.1928  0.0851  0.1117
  861loPI   C1B12087   4.767   4.622   7.234 -0.0726  0.0853  0.0889
  861loPI   C2B12088   4.739   4.623   7.630  0.3573  0.1105  0.2235
  861loPI   C3B12089   4.827   4.523   7.978  0.1333  0.0588 -0.0225
  861loPI   C4B12090   4.838   4.577   8.360 -0.0206 -0.1614 -0.2270
  862loPI    C112091   9.476  12.302   5.648 -0.1709 -0.1116 -0.0842
  862loPI    C212092   9.783  12.409   5.415  0.0605 -0.2444  0.1531
  862loPI    C312093   9.413  12.540   5.333  0.2047  0.0551 -0.0384
  862loPI   PO412094   9.621  12.306   5.991  0.3734  0.1503 -0.0105
  862loPI   GL112095   9.646  12.253   6.457 -0.2883 -0.2010  0.0352
  862loPI   GL212096   9.960  12.341   6.344 -0.1357  0.0458 -0.0918
  862loPI   C1A12097   9.413  12.256   6.847  0.2608 -0.1101 -0.4345
  862loPI   C2A12098   9.373  12.228   7.306 -0.2771  0.1387 -0.0420
  862loPI   C3A12099   9.554  12.198   7.747  0.0991 -0.0679 -0.1507
  862loPI   C4A12100   9.670  12.280   8.067  0.1350 -0.1866  0.0612
  862loPI   C5A12101   9.771  12.385   8.488 -0.0045 -0.3173 -0.0310
  862loPI   C6A12102  10.093  12.238   8.789 -0.0904  0.2295 -0.0243
  862loPI   C1B12103  10.093  12.240   6.841 -0.0643 -0.0610 -0.0681
  862loPI   C2B12104  10.135  12.282   7.267  0.0745 -0.0384 -0.2340
  862loPI   C3B12105  10.161  12.407   7.734 -0.1667  0.1124 -0.2298
  862loPI   C4B12106  10.168  12.419   8.142 -0.0055 -0.1458  0.0806
  863loPI    C112107  14.636   6.149   5.983  0.0117 -0.0275  0.0937
  863loPI    C212108  14.611   6.346   5.636 -0.1522  0.0375  0.1414
  863loPI    C312109  14.282   6.191   5.802 -0.0856  0.0673  0.3029
  863loPI   PO412110  14.624   6.343   6.155  0.1069  0.1068  0.1704
  863loPI   GL112111  14.825   6.599   6.449 -0.0224 -0.0172 -0.0005
  863loPI   GL212112  14.653   6.363   6.668  0.1025 -0.0292  0.2076
  863loPI   C1A12113  14.752   6.738   6.948 -0.1582  0.2867  0.0859
  863loPI   C2A12114  14.746   6.611   7.358  0.2540  0.0023  0.0489
  863loPI   C3A12115  14.787   6.641   7.802  0.1013  0.0216  0.1839
  863loPI   C4A12116  14.686   6.584   8.121  0.2686 -0.0452  0.1681
  863loPI   C5A12117  14.411   6.372   8.356 -0.3113 -0.0409  0.2029
  863loPI   C6A12118  14.198   6.170   8.527 -0.1000  0.1187  0.0478
  863loPI   C1B12119  14.654   6.218   7.053  0.1127  0.1621  0.0946
  863loPI   C2B12120  14.648   6.106   7.529  0.1892 -0.2812  0.0874
  863loPI   C3B12121  14.616   6.121   7.932  0.1763 -0.0266  0.0979
  863loPI   C4B12122  14.705   5.914   8.327  0.3575 -0.0691  0.0588
  864loPI    C112123  15.974   7.898   6.120 -0.0830  0.0330  0.0828
  864loPI    C212124  16.345   7.887   5.970  0.0048 -0.1281  0.3060
  864loPI    C312125  16.112   8.206   5.906  0.0986 -0.1234 -0.0282
  864loPI   PO412126  15.977   7.725   6.325 -0.1318  0.0740  0.1586
  864loPI   GL112127  15.715   7.567   6.703 -0.0438  0.1492  0.3383
  864loPI   GL212128  15.552   7.298   6.798 -0.2557  0.2040 -0.0365
  864loPI   C1A12129  15.609   7.751   7.102 -0.2650 -0.3615 -0.0022
  864loPI   C2A12130  15.440   7.782   7.431 -0.0434 -0.1799  0.0298
  864loPI   C3A12131  15.443   7.767   7.791 -0.0609 -0.1273  0.0071
  864loPI   C4A12132  15.406   7.834   8.184 -0.0968 -0.1082 -0.0071
  864loPI   C5A12133  15.630   7.768   8.576 -0.0468 -0.0662 -0.2198
  864loPI   C6A12134  15.705   7.749   8.997  0.1279 -0.0550 -0.0271
  864loPI   C1B12135  15.369   7.316   7.248 -0.2161  0.1924  0.0051
  864loPI   C2B12136  15.356   7.232   7.618  0.1422 -0.0177  0.1179
  864loPI   C3B12137  15.377   7.278   7.970  0.1202 -0.1130 -0.3163
  864loPI   C4B12138  15.603   7.317   8.418 -0.2503  0.0246 -0.1357
  865loPI    C112139  10.318   2.964   5.671  0.1693 -0.0126  0.1306
  865loPI    C212140  10.575   2.662   5.619  0.0462 -0.0280 -0.4551
  865loPI    C312141  10.604   2.992   5.393 -0.0769  0.2280 -0.1064
  865loPI   PO412142  10.352   2.933   6.018 -0.0480  0.2690  0.0538
  865loPI   GL112143  10.130   2.918   6.373  0.0365 -0.1454 -0.1145
  865loPI   GL212144  10.127   2.608   6.286 -0.1250  0.0277  0.1488
  865loPI   C1A12145   9.978   2.893   6.855 -0.0758  0.0631  0.0286
  865loPI   C2A12146   9.985   2.848   7.318 -0.0738  0.1295  0.0767
  865loPI   C3A12147  10.049   2.988   7.725  0.4039  0.2886 -0.0994
  865loPI   C4A12148  10.217   2.896   8.172  0.1729  0.2487 -0.1627
  865loPI   C5A12149  10.195   2.502   8.331 -0.0405 -0.2197 -0.0506
  865loPI   C6A12150   9.885   2.280   8.412 -0.0108  0.1623 -0.2557
  865loPI   C1B12151   9.928   2.441   6.630 -0.1142 -0.0308 -0.0262
  865loPI   C2B12152   9.870   2.366   7.109 -0.0280  0.0548  0.0270
  865loPI   C3B12153   9.857   2.377   7.507 -0.3573  0.0920 -0.0392
  865loPI   C4B12154  10.009   2.245   7.928  0.0949 -0.1919 -0.0008
  866loPI    C112155  16.358   1.796   6.387 -0.1113  0.3726  0.1846
  866loPI    C212156  16.687   1.707   6.177 -0.1537 -0.0928  0.3031
  866loPI    C312157  16.680   2.031   6.412  0.0205  0.2300 -0.1233
  866loPI   PO412158  16.240   1.551   6.461  0.2640 -0.0944  0.1665
  866loPI   GL112159  16.371   1.346   6.930 -0.0325 -0.1687 -0.1856
  866loPI   GL212160  15.961   1.383   6.849 -0.1775  0.0350 -0.0394
  866loPI   C1A12161  16.233   1.406   7.304 -0.0135  0.0819 -0.0751
  866loPI   C2A12162  16.220   1.346   7.710  0.1655  0.1353 -0.0255
  866loPI   C3A12163  16.182   1.351   8.160 -0.2006  0.0659  0.1480
  866loPI   C4A12164  16.514   1.074   8.412 -0.0831 -0.1489 -0.0042
  866loPI   C5A12165  16.580   0.952   8.802  0.1426  0.0828 -0.0364
  866loPI   C6A12166  16.608   0.782   9.220  0.1310  0.1273 -0.0973
  866loPI   C1B12167  15.801   1.266   7.249  0.2292 -0.2110  0.1157
  866loPI   C2B12168  15.728   1.285   7.671  0.1092  0.3016  0.1228
  866loPI   C3B12169  15.718   1.240   8.143 -0.0753  0.3848 -0.6272
  866loPI   C4B12170  15.551   1.116   8.544  0.1350  0.3778 -0.0264
  867loPI    C112171   5.226   6.395   6.083 -0.1425  0.1370 -0.0053
  867loPI    C212172   5.451   6.528   5.780  0.1759 -0.0449  0.1459
  867loPI    C312173   5.400   6.135   5.834 -0.1729 -0.0061  0.1215
  867loPI   PO412174   5.291   6.620   6.254 -0.1417 -0.0439 -0.1293
  867loPI   GL112175   5.467   6.665   6.663  0.1155 -0.1282 -0.1851
  867loPI   GL212176   5.255   6.650   6.929  0.2247  0.0337  0.1325
  867loPI   C1A12177   5.732   6.587   7.115 -0.0682 -0.1031  0.0154
  867loPI   C2A12178   5.668   6.596   7.572  0.1459  0.0207 -0.0199
  867loPI   C3A12179   5.676   6.639   8.025  0.1225  0.0575  0.0214
  867loPI   C4A12180   5.615   6.563   8.548 -0.1538  0.3113  0.0815
  867loPI   C5A12181   5.881   6.463   8.751  0.1263  0.1600 -0.1546
  867loPI   C6A12182   6.110   6.575   9.090 -0.2534  0.4379  0.0282
  867loPI   C1B12183   5.199   6.701   7.411 -0.1422 -0.1412  0.0574
  867loPI   C2B12184   5.132   6.709   7.932 -0.1088  0.3741 -0.0177
  867loPI   C3B12185   5.232   6.786   8.243  0.1428 -0.1523  0.0468
  867loPI   C4B12186   5.155   6.618   8.670  0.0375  0.0165 -0.1246
  868loPI    C112187   2.891   2.965   6.284  0.0807  0.2380 -0.1418
  868loPI    C212188   2.565   3.138   6.130 -0.1532 -0.1278 -0.0717
  868loPI    C312189   2.639   2.752   6.058  0.2404 -0.0621 -0.0429
  868loPI   PO412190   2.878   2.925   6.518 -0.2871 -0.2380  0.0434
  868loPI   GL112191   2.928   2.933   6.944  0.2576  0.0657  0.0153
  868loPI   GL212192   2.999   3.203   7.098  0.1294  0.0691 -0.1195
  868loPI   C1A12193   2.941   2.728   7.330  0.1080 -0.3529  0.1544
  868loPI   C2A12194   2.824   2.773   7.731  0.1998 -0.1900 -0.0340
  868loPI   C3A12195   2.881   2.701   8.163  0.0374 -0.0044  0.2933
  868loPI   C4A12196   2.723   2.631   8.607 -0.1718  0.2177 -0.1765
  868loPI   C5A12197   2.829   2.781   9.038 -0.4355  0.0557  0.0740
  868loPI   C6A12198   2.900   3.046   9.428  0.0831  0.0768 -0.0852
  868loPI   C1B12199   2.978   3.192   7.549 -0.3630  0.3315  0.0481
  868loPI   C2B12200   2.967   3.189   8.053 -0.1348 -0.1118  0.1098
  868loPI   C3B12201   2.822   3.243   8.462 -0.0946  0.2297 -0.0171
  868loPI   C4B12202   2.861   3.216   8.867  0.4686  0.1745  0.3086
  869loPI    C112203   9.121  10.000   6.051  0.1276  0.0195 -0.2005
  869loPI    C212204   9.216   9.637   5.912 -0.0933 -0.1109 -0.0185
  869loPI    C312205   8.866   9.804   5.812  0.0234  0.0697 -0.1314
  869loPI   PO412206   9.159  10.023   6.302  0.4969  0.1029  0.0361
  869loPI   GL112207   8.966   9.858   6.715 -0.0366 -0.0151 -0.0968
  869loPI   GL212208   9.336   9.921   6.781  0.1165 -0.0574 -0.0086
  869loPI   C1A12209   8.980   9.703   7.161  0.0703 -0.1669 -0.2429
  869loPI   C2A12210   8.874   9.681   7.560  0.0072 -0.0870  0.6278
  869loPI   C3A12211   8.998   9.701   7.934 -0.0842  0.0060 -0.2610
  869loPI   C4A12212   8.932   9.642   8.320  0.1992  0.0061  0.0630
  869loPI   C5A12213   9.025   9.467   8.717  0.1240  0.1227 -0.3757
  869loPI   C6A12214   9.291   9.090   8.950  0.1545  0.1778 -0.0980
  869loPI   C1B12215   9.439   9.836   7.222  0.1033  0.0879  0.1591
  869loPI   C2B12216   9.477   9.816   7.650  0.0968 -0.1029  0.1653
  869loPI   C3B12217   9.460   9.751   8.136  0.0457 -0.0855 -0.0343
  869loPI   C4B12218   9.613   9.798   8.580  0.3544  0.0773  0.1513
  870loPI    C112219  14.391  11.187   6.520 -0.1445 -0.1024 -0.1686
  870loPI    C212220  14.600  11.145   6.182 -0.0017 -0.0928 -0.0824
  870loPI    C312221  14.243  10.970   6.219  0.0119 -0.1492 -0.2128
  870loPI   PO412222  14.552  11.440   6.616 -0.2624  0.0064  0.1240
  870loPI   GL112223  14.692  11.527   6.984 -0.0401  0.2337  0.0094
  870loPI   GL212224  14.668  11.824   7.226  0.0018  0.2534  0.0965
  870loPI   C1A12225  14.599  11.287   7.329  0.0686  0.2559 -0.1886
  870loPI   C2A12226  14.576  11.267   7.736 -0.2506 -0.3007 -0.0073
  870loPI   C3A12227  14.503  11.292   8.180 -0.1439 -0.2201  0.2437
  870loPI   C4A12228  14.359  11.185   8.565 -0.0317  0.3567 -0.2809
  870loPI   C5A12229  14.401  10.911   8.916  0.0559 -0.0840  0.4092
  870loPI   C6A12230  14.229  10.432   8.989  0.1118  0.1696  0.1513
  870loPI   C1B12231  14.670  11.833   7.638 -0.1659 -0.1137  0.3253
  870loPI   C2B12232  14.558  11.804   8.088 -0.0299  0.1731  0.0671
  870loPI   C3B12233  14.516  11.815   8.564 -0.0615  0.1399  0.0174
  870loPI   C4B12234  14.793  11.803   8.951  0.1908 -0.2703 -0.1245
  871loPI    C112235  13.178  15.553   5.984 -0.1472  0.0842  0.0442
  871loPI    C212236  12.869  15.735   5.806  0.0100  0.0796 -0.2393
  871loPI    C312237  13.117  15.505   5.592 -0.0620 -0.3006  0.0734
  871loPI   PO412238  13.038  15.410   6.190 -0.2189  0.0092  0.0283
  871loPI   GL112239  13.037  15.364   6.578  0.1749 -0.1082  0.1731
  871loPI   GL212240  12.765  15.553   6.663 -0.2402 -0.0379  0.0723
  871loPI   C1A12241  13.145  15.174   6.907 -0.2005  0.0199 -0.1657
  871loPI   C2A12242  13.078  15.190   7.345  0.0174 -0.1297  0.1813
  871loPI   C3A12243  13.092  15.197   7.776  0.5692 -0.1893 -0.1653
  871loPI   C4A12244  13.127  15.119   8.211 -0.1696 -0.2472  0.2069
  871loPI   C5A12245  13.120  14.936   8.632  0.0414  0.0119  0.0153
  871loPI   C6A12246  13.497  14.715   8.823 -0.0670 -0.1635 -0.0803
  871loPI   C1B12247  12.738  15.528   7.124 -0.1902  0.2486 -0.0851
  871loPI   C2B12248  12.748  15.500   7.526 -0.0490  0.0802 -0.0805
  871loPI   C3B12249  12.795  15.598   7.995 -0.2251 -0.0536  0.0764
  871loPI   C4B12250  12.765  15.562   8.391  0.0275 -0.3159 -0.1164
  872loPI    C112251   5.934   2.067   6.064  0.2239 -0.0140 -0.0174
  872loPI    C212252   6.154   1.795   5.870 -0.0401 -0.0229 -0.3114
  872loPI    C312253   5.965   2.082   5.665  0.1422  0.3164 -0.0142
  872loPI   PO412254   6.134   1.935   6.372 -0.0215  0.0122 -0.1598
  872loPI   GL112255   6.176   1.622   6.661 -0.0191 -0.0752  0.4949
  872loPI   GL212256   6.561   1.686   6.656  0.2573  0.0225  0.1098
  872loPI   C1A12257   5.940   1.667   7.126 -0.2383 -0.2351  0.2349
  872loPI   C2A12258   5.808   1.516   7.520 -0.0822  0.0226  0.0236
  872loPI   C3A12259   5.767   1.612   7.891  0.0519 -0.1376  0.2785
  872loPI   C4A12260   5.950   1.700   8.301  0.0897  0.0419  0.0557
  872loPI   C5A12261   6.068   1.607   8.697 -0.6940 -0.1970 -0.3694
  872loPI   C6A12262   6.429   1.581   8.973  0.0980 -0.2513 -0.2075
  872loPI   C1B12263   6.465   1.766   7.086 -0.1175  0.0873  0.1332
  872loPI   C2B12264   6.592   1.865   7.478 -0.0201 -0.2395 -0.0974
  872loPI   C3B12265   6.624   1.878   7.957 -0.4052 -0.1990 -0.0325
  872loPI   C4B12266   6.558   1.792   8.481 -0.0233 -0.1561 -0.0050
  873loPI    C112267   1.848   3.753   6.185  0.1374 -0.0305  0.0170
  873loPI    C212268   1.874   3.423   5.960 -0.1456  0.0761 -0.1768
  873loPI    C312269   1.989   3.777   5.812  0.0616  0.0822 -0.0050
  873loPI   PO412270   1.983   3.746   6.484  0.0590  0.1353  0.0732
  873loPI   GL112271   1.859   3.549   6.868 -0.1635 -0.4057  0.0557
  873loPI   GL212272   2.138   3.744   7.049  0.0603  0.0549  0.2729
  873loPI   C1A12273   1.684   3.302   7.227 -0.1853  0.3726 -0.0635
  873loPI   C2A12274   1.572   3.225   7.676  0.1248  0.0209  0.2346
  873loPI   C3A12275   1.495   3.239   8.204  0.1836  0.1748 -0.0405
  873loPI   C4A12276   1.355   3.163   8.646  0.0565 -0.2421 -0.1599
  873loPI   C5A12277   1.384   3.308   9.073 -0.1836 -0.2169  0.3123
  873loPI   C6A12278   1.190   3.631   9.232  0.0287  0.0947 -0.1000
  873loPI   C1B12279   2.275   3.910   7.473  0.0115  0.1180  0.0561
  873loPI   C2B12280   2.129   4.015   7.873  0.1041  0.0852 -0.1356
  873loPI   C3B12281   2.146   3.920   8.253  0.0185 -0.2199  0.1912
  873loPI   C4B12282   2.075   3.878   8.670 -0.0904 -0.2446  0.1069
  874loPI    C112283  11.487   7.399   5.953 -0.1083 -0.0246 -0.1118
  874loPI    C212284  11.513   7.749   6.145  0.2015 -0.1098  0.0075
  874loPI    C312285  11.278   7.715   5.824  0.0723  0.1728  0.0687
  874loPI   PO412286  11.513   7.248   6.157  0.0430  0.0149 -0.2064
  874loPI   GL112287  11.506   7.173   6.547  0.0719 -0.0310  0.0380
  874loPI   GL212288  11.347   7.531   6.604 -0.2238  0.0928 -0.0865
  874loPI   C1A12289  11.769   7.227   6.947  0.0735 -0.1748  0.0630
  874loPI   C2A12290  11.670   7.195   7.383  0.0394  0.0361 -0.0845
  874loPI   C3A12291  11.613   7.039   7.780 -0.1030 -0.4387 -0.1120
  874loPI   C4A12292  11.555   7.096   8.174 -0.0388 -0.0414 -0.2892
  874loPI   C5A12293  11.443   6.994   8.647 -0.1516  0.0707  0.1767
  874loPI   C6A12294  11.100   7.201   8.847  0.0075 -0.4366  0.0051
  874loPI   C1B12295  11.321   7.560   7.076 -0.1457  0.0797 -0.0171
  874loPI   C2B12296  11.211   7.452   7.481 -0.0661 -0.1117 -0.1439
  874loPI   C3B12297  11.231   7.442   7.946  0.1314  0.0596  0.3623
  874loPI   C4B12298  11.324   7.435   8.445 -0.0677  0.0316 -0.0114
  875loPI    C112299  12.059  10.933   6.203  0.1288  0.2215 -0.2216
  875loPI    C212300  11.711  10.812   6.048  0.1850 -0.2180 -0.0227
  875loPI    C312301  11.904  11.124   5.888 -0.2956  0.0324 -0.1346
  875loPI   PO412302  12.055  10.904   6.440  0.2532  0.2398  0.1735
  875loPI   GL112303  12.251  10.623   6.801  0.2410  0.0015 -0.0279
  875loPI   GL212304  11.954  10.773   6.960  0.4411  0.0525  0.2055
  875loPI   C1A12305  12.405  10.596   7.114 -0.0494 -0.3762  0.0061
  875loPI   C2A12306  12.419  10.505   7.589 -0.0123  0.0149 -0.2157
  875loPI   C3A12307  12.373  10.246   7.881  0.0278  0.0340  0.1630
  875loPI   C4A12308  12.343  10.072   8.303  0.0706 -0.2228 -0.1436
  875loPI   C5A12309  11.934  10.202   8.559 -0.2626 -0.2494  0.1137
  875loPI   C6A12310  11.759  10.451   8.900 -0.0146  0.2888 -0.1919
  875loPI   C1B12311  11.990  10.667   7.390  0.6714 -0.0827  0.0141
  875loPI   C2B12312  11.948  10.579   7.848 -0.2391 -0.0830  0.0847
  875loPI   C3B12313  12.078  10.534   8.230 -0.1458 -0.1213 -0.3526
  875loPI   C4B12314  11.992  10.682   8.509 -0.0043  0.0838  0.3808
  876loPI    C112315  12.998  10.095   5.847  0.1939  0.0668  0.0294
  876loPI    C212316  12.928   9.705   5.792  0.1838  0.0662  0.0460
  876loPI    C312317  13.171   9.902   5.542 -0.1763  0.1551 -0.2427
  876loPI   PO412318  13.055  10.096   6.099 -0.0526  0.2714 -0.0381
  876loPI   GL112319  12.940  10.311   6.474  0.0194  0.1502  0.0602
  876loPI   GL212320  12.742   9.963   6.606 -0.0781  0.1326  0.0799
  876loPI   C1A12321  12.850  10.511   6.915 -0.0789 -0.3338  0.1457
  876loPI   C2A12322  12.859  10.471   7.322 -0.0534  0.0954 -0.2949
  876loPI   C3A12323  12.900  10.402   7.733  0.1483  0.0507  0.0674
  876loPI   C4A12324  12.808  10.239   8.188  0.1830  0.2936 -0.3086
  876loPI   C5A12325  12.742  10.120   8.611  0.2878 -0.2731 -0.3959
  876loPI   C6A12326  12.419   9.795   8.720  0.1331  0.2620 -0.0953
  876loPI   C1B12327  12.963  10.025   6.993 -0.1143 -0.2663 -0.1793
  876loPI   C2B12328  13.077   9.962   7.395  0.1982  0.0420 -0.3864
  876loPI   C3B12329  13.244   9.978   7.784 -0.0810 -0.1188  0.0563
  876loPI   C4B12330  13.215   9.863   8.269 -0.0587 -0.0303  0.2507
  877loPI    C112331   0.087   3.346   6.206  0.0006 -0.0133  0.1413
  877loPI    C212332  -0.242   3.203   6.030  0.0542 -0.0943  0.1060
  877loPI    C312333   0.067   3.324   5.807  0.0793 -0.0930  0.1414
  877loPI   PO412334   0.042   3.204   6.482  0.3010 -0.4910  0.0621
  877loPI   GL112335  -0.033   3.173   6.878  0.1512  0.0999  0.2286
  877loPI   GL212336  -0.424   3.181   6.908  0.2696  0.4584 -0.1240
  877loPI   C1A12337   0.224   3.406   7.153  0.0636 -0.1604 -0.0954
  877loPI   C2A12338   0.209   3.370   7.624  0.0914 -0.2697  0.1303
  877loPI   C3A12339   0.176   3.449   7.932 -0.1118  0.0619 -0.3951
  877loPI   C4A12340   0.224   3.356   8.318 -0.2977  0.0658  0.0924
  877loPI   C5A12341   0.132   3.350   8.762 -0.2890 -0.1430 -0.1174
  877loPI   C6A12342  -0.222   3.386   8.969 -0.1058 -0.1211 -0.1483
  877loPI   C1B12343  -0.214   3.253   7.325 -0.2390 -0.0968  0.0808
  877loPI   C2B12344  -0.264   3.372   7.755  0.1414  0.1198 -0.1869
  877loPI   C3B12345  -0.306   3.266   8.160  0.0742 -0.0795 -0.0153
  877loPI   C4B12346  -0.246   3.287   8.417  0.0927  0.3041 -0.1506
  878loPI    C112347   9.153  10.938   5.986  0.0267 -0.2426 -0.0125
  878loPI    C212348   8.828  11.138   5.866  0.2205  0.2801  0.2993
  878loPI    C312349   9.151  11.123   5.631  0.1240  0.1284  0.1746
  878loPI   PO412350   9.037  10.926   6.277 -0.2252  0.1955 -0.1957
  878loPI   GL112351   8.744  10.968   6.659 -0.1265 -0.2384  0.0840
  878loPI   GL212352   9.018  10.776   6.849 -0.1026 -0.0771 -0.3109
  878loPI   C1A12353   8.642  11.085   6.998  0.4669 -0.0526  0.0688
  878loPI   C2A12354   8.646  11.034   7.411  0.0686  0.3179 -0.1665
  878loPI   C3A12355   8.865  11.001   7.912 -0.2242  0.1283  0.3552
  878loPI   C4A12356   8.916  11.099   8.334 -0.0802  0.1112 -0.0957
  878loPI   C5A12357   8.948  10.960   8.750  0.2263  0.1640  0.0056
  878loPI   C6A12358   9.006  10.835   9.166 -0.3371 -0.2069  0.0778
  878loPI   C1B12359   9.131  10.646   7.273  0.0570  0.1341  0.0128
  878loPI   C2B12360   9.203  10.691   7.711  0.3377  0.2052 -0.0762
  878loPI   C3B12361   9.285  10.687   8.117  0.0955  0.1139  0.2158
  878loPI   C4B12362   9.410  10.887   8.498 -0.2553  0.2588  0.1332
  879loPI    C112363   3.229  10.690   6.712 -0.1227  0.1400  0.0304
  879loPI    C212364   3.227  10.775   6.322  0.1901  0.2415  0.0482
  879loPI    C312365   3.022  10.460   6.458  0.0826  0.2026 -0.1971
  879loPI   PO412366   3.152  10.978   6.824  0.0817  0.0239 -0.0360
  879loPI   GL112367   2.885  11.117   7.252 -0.1303 -0.0790  0.2640
  879loPI   GL212368   3.166  10.796   7.276  0.0188 -0.1293  0.0995
  879loPI   C1A12369   2.751  10.817   7.540  0.0412  0.1211 -0.0220
  879loPI   C2A12370   2.687  10.627   7.923 -0.1047  0.0186 -0.1324
  879loPI   C3A12371   2.669  10.536   8.290  0.1160  0.1134 -0.0365
  879loPI   C4A12372   2.735  10.374   8.632 -0.1560 -0.0743  0.0553
  879loPI   C5A12373   2.723  10.634   9.066  0.2926  0.0322 -0.2999
  879loPI   C6A12374   2.643  10.944   9.224  0.0635 -0.1364 -0.2033
  879loPI   C1B12375   3.263  10.535   7.728  0.2766 -0.0787 -0.0802
  879loPI   C2B12376   3.356  10.492   8.084  0.2339  0.1551 -0.3550
  879loPI   C3B12377   3.140  10.563   8.415 -0.4310 -0.2878 -0.1705
  879loPI   C4B12378   3.065  10.811   8.739  0.2672 -0.3321 -0.2154
  880loPI    C112379   0.972   6.879   6.338 -0.2827  0.1447  0.0746
  880loPI    C212380   0.922   7.253   6.472 -0.2094  0.1730  0.0234
  880loPI    C312381   0.772   7.146   6.117 -0.1350  0.1850 -0.0120
  880loPI   PO412382   1.031   6.737   6.526  0.1296 -0.0518 -0.1300
  880loPI   GL112383   1.122   6.977   6.952  0.1707 -0.2178 -0.1478
  880loPI   GL212384   0.857   6.881   6.974  0.0296 -0.1498 -0.3824
  880loPI   C1A12385   1.378   6.783   7.310 -0.0059 -0.1085  0.1065
  880loPI   C2A12386   1.450   6.659   7.654 -0.0667  0.0364 -0.2381
  880loPI   C3A12387   1.536   6.562   8.028 -0.0974  0.5315  0.1080
  880loPI   C4A12388   1.523   6.665   8.448 -0.0087 -0.2541 -0.1115
  880loPI   C5A12389   1.148   6.925   8.675 -0.0609  0.1240 -0.1161
  880loPI   C6A12390   0.820   6.617   8.804 -0.1631  0.1281  0.0745
  880loPI   C1B12391   0.859   6.655   7.329 -0.2322  0.3414 -0.1173
  880loPI   C2B12392   0.975   6.502   7.697 -0.1115  0.1835 -0.2784
  880loPI   C3B12393   0.992   6.384   8.064 -0.2560  0.2563 -0.4413
  880loPI   C4B12394   1.114   6.349   8.469 -0.2054 -0.3051 -0.0157
  881loPI    C112395   3.797   5.047   6.279 -0.0853  0.1850  0.0401
  881loPI    C212396   3.790   5.275   5.950 -0.2015 -0.0484 -0.1219
  881loPI    C312397   4.139   5.142   6.093 -0.1454  0.1081 -0.1110
  881loPI   PO412398   3.579   5.205   6.509  0.1375 -0.0681  0.0946
  881loPI   GL112399   3.623   5.350   6.925  0.0676 -0.3286 -0.2109
  881loPI   GL212400   3.292   5.477   7.047 -0.1491 -0.1621  0.0666
  881loPI   C1A12401   3.510   5.273   7.426  0.3958 -0.0589  0.1006
  881loPI   C2A12402   3.405   5.258   7.801 -0.0192 -0.2856  0.0550
  881loPI   C3A12403   3.486   5.180   8.238 -0.2068  0.4210  0.0205
  881loPI   C4A12404   3.605   5.023   8.594  0.2461 -0.1365 -0.1301
  881loPI   C5A12405   3.495   4.585   8.775 -0.0049 -0.0328  0.1936
  881loPI   C6A12406   3.627   4.177   8.945 -0.0552 -0.2542  0.0315
  881loPI   C1B12407   3.084   5.624   7.471  0.0952 -0.0737  0.1505
  881loPI   C2B12408   3.029   5.568   7.882  0.3594  0.1634 -0.1240
  881loPI   C3B12409   3.053   5.608   8.313  0.0989  0.2370 -0.1599
  881loPI   C4B12410   3.139   5.556   8.787 -0.0662  0.0571  0.0783
  882loPI    C112411  14.079  15.425   6.116 -0.0072 -0.0236 -0.0355
  882loPI    C212412  13.889  15.776   6.088  0.1648  0.0664 -0.0925
  882loPI    C312413  14.242  15.724   5.906  0.1970 -0.0976  0.0141
  882loPI   PO412414  14.090  15.427   6.432 -0.1005 -0.0811 -0.1075
  882loPI   GL112415  14.384  15.479   6.712  0.0045 -0.1931 -0.2428
  882loPI   GL212416  14.619  15.632   6.794  0.1895  0.0658  0.2257
  882loPI   C1A12417  14.155  15.433   7.017  0.2458 -0.2592 -0.2620
  882loPI   C2A12418  14.106  15.412   7.380 -0.1605 -0.1140 -0.1104
  882loPI   C3A12419  14.211  15.526   7.795  0.0004  0.1732 -0.1945
  882loPI   C4A12420  14.113  15.538   8.225 -0.0944 -0.0397  0.0020
  882loPI   C5A12421  14.310  15.796   8.606  0.2940 -0.1448 -0.4307
  882loPI   C6A12422  14.392  15.796   9.008  0.2328 -0.1568  0.0557
  882loPI   C1B12423  14.677  15.620   7.268 -0.1770 -0.1990 -0.0658
  882loPI   C2B12424  14.744  15.743   7.669  0.2667 -0.2695  0.0694
  882loPI   C3B12425  14.692  15.632   8.015  0.0473 -0.4889  0.0466
  882loPI   C4B12426  14.716  15.602   8.441 -0.1917 -0.1391  0.0286
  883loPI    C112427   5.923   9.371   6.041 -0.1135 -0.0043 -0.3674
  883loPI    C212428   5.905   9.036   6.258 -0.1744  0.0961 -0.2155
  883loPI    C312429   6.179   9.073   5.969  0.0326  0.0352 -0.0300
  883loPI   PO412430   6.038   9.603   6.262  0.1605  0.0670  0.4164
  883loPI   GL112431   6.039   9.511   6.684  0.1726 -0.2540 -0.2695
  883loPI   GL212432   6.167   9.802   6.825 -0.0971 -0.4129 -0.3533
  883loPI   C1A12433   6.064   9.398   7.096  0.0632 -0.1171  0.2353
  883loPI   C2A12434   6.112   9.401   7.527 -0.3774 -0.1660  0.1228
  883loPI   C3A12435   6.106   9.205   7.947 -0.1670  0.3883  0.2474
  883loPI   C4A12436   6.104   9.274   8.393  0.2073 -0.0920 -0.0006
  883loPI   C5A12437   6.166   9.206   8.724 -0.0005 -0.1054  0.0639
  883loPI   C6A12438   5.968   9.492   9.038  0.2616 -0.1444 -0.1866
  883loPI   C1B12439   6.043  10.098   7.246 -0.0181  0.1884  0.0714
  883loPI   C2B12440   5.907  10.194   7.633 -0.0257 -0.0605 -0.0241
  883loPI   C3B12441   5.887  10.471   7.975  0.3125 -0.0591 -0.1401
  883loPI   C4B12442   5.944  10.627   8.440  0.1183  0.1936  0.1203
  884loPI    C112443  13.426  11.196   6.015  0.4236  0.0863  0.1368
  884loPI    C212444  13.247  11.414   5.731  0.2257  0.1151  0.2815
  884loPI    C312445  13.640  11.343   5.711  0.2012  0.0556 -0.0376
  884loPI   PO412446  13.395  11.268   6.301 -0.0912 -0.2994  0.1634
  884loPI   GL112447  13.406  11.039   6.695  0.0931  0.1922  0.3376
  884loPI   GL212448  13.695  10.975   6.802  0.1513  0.2140  0.0330
  884loPI   C1A12449  13.241  10.809   7.133 -0.0867 -0.0486  0.2113
  884loPI   C2A12450  13.133  10.808   7.617  0.1052 -0.0388  0.0569
  884loPI   C3A12451  13.057  10.858   8.041 -0.1510 -0.2869  0.1218
  884loPI   C4A12452  12.951  10.849   8.542 -0.2240  0.0675 -0.1187
  884loPI   C5A12453  12.986  11.066   8.881 -0.0559 -0.2471  0.2418
  884loPI   C6A12454  12.668  11.349   9.122 -0.0262 -0.4681  0.1256
  884loPI   C1B12455  13.667  11.054   7.169  0.1401  0.0264 -0.0106
  884loPI   C2B12456  13.609  10.886   7.504  0.0026  0.2324  0.1849
  884loPI   C3B12457  13.518  11.002   7.934 -0.0005 -0.1538 -0.0346
  884loPI   C4B12458  13.438  10.933   8.383  0.2470  0.0986 -0.2394
  885loPI    C112459   8.740  13.746   5.917 -0.2161  0.0948  0.1223
  885loPI    C212460   8.385  13.695   6.094 -0.2307 -0.1206  0.0333
  885loPI    C312461   8.460  13.521   5.741  0.0831 -0.3621  0.2141
  885loPI   PO412462   8.882  13.633   6.089 -0.3355  0.2497  0.1690
  885loPI   GL112463   9.011  13.603   6.564 -0.3921  0.2315 -0.0063
  885loPI   GL212464   8.630  13.564   6.678  0.1114  0.0493 -0.0585
  885loPI   C1A12465   9.146  13.644   6.954 -0.2172 -0.1009 -0.0280
  885loPI   C2A12466   8.872  13.442   7.286 -0.2525 -0.0213 -0.0340
  885loPI   C3A12467   8.963  13.460   7.663  0.1521 -0.0043  0.3658
  885loPI   C4A12468   8.973  13.558   8.121 -0.0856 -0.0606 -0.1688
  885loPI   C5A12469   8.876  13.364   8.540  0.2104  0.3053  0.3167
  885loPI   C6A12470   8.800  13.475   8.984 -0.1459 -0.0494 -0.1817
  885loPI   C1B12471   8.556  13.880   7.072  0.0947  0.0460 -0.0338
  885loPI   C2B12472   8.470  13.843   7.506 -0.1355 -0.0558  0.1091
  885loPI   C3B12473   8.510  13.812   7.970 -0.1248 -0.0492 -0.1229
  885loPI   C4B12474   8.611  13.775   8.418 -0.3691 -0.0771  0.2445
  886loPI    C112475   5.132  16.975   6.438 -0.0231 -0.1688  0.0230
  886loPI    C212476   4.959  16.617   6.484 -0.2626 -0.1045 -0.3324
  886loPI    C312477   4.976  16.786   6.122  0.1596  0.0917 -0.2280
  886loPI   PO412478   5.313  16.949   6.637 -0.0269 -0.0903 -0.0198
  886loPI   GL112479   5.361  16.940   7.049 -0.1659 -0.0506  0.1981
  886loPI   GL212480   5.589  16.773   7.159  0.2765 -0.2774  0.1439
  886loPI   C1A12481   5.172  17.148   7.525  0.1385  0.1023 -0.0230
  886loPI   C2A12482   5.168  17.139   8.020  0.0066 -0.0060 -0.0053
  886loPI   C3A12483   5.123  17.120   8.385 -0.2176  0.1368 -0.1976
  886loPI   C4A12484   5.129  16.950   8.765  0.1419 -0.0129 -0.1599
  886loPI   C5A12485   4.764  16.943   9.116  0.2719 -0.1745  0.1863
  886loPI   C6A12486   4.273  17.063   9.120 -0.0755 -0.0329  0.5098
  886loPI   C1B12487   5.608  16.840   7.526 -0.2240  0.3371  0.0101
  886loPI   C2B12488   5.651  16.718   7.991  0.2084  0.2293 -0.1249
  886loPI   C3B12489   5.494  16.819   8.420 -0.1502 -0.2310  0.1222
  886loPI   C4B12490   5.641  16.897   8.861  0.0851  0.2453  0.2805
  887loPI    C112491   0.921  11.096   6.650 -0.0044  0.4448  0.0265
  887loPI    C212492   0.550  11.025   6.517  0.1283  0.0538 -0.1482
  887loPI    C312493   0.861  11.008   6.265  0.2910  0.1542  0.0423
  887loPI   PO412494   0.846  11.268   6.839 -0.0232  0.1785 -0.1037
  887loPI   GL112495   1.026  11.407   7.190 -0.3359  0.2844  0.0628
  887loPI   GL212496   1.296  11.336   7.227  0.0001 -0.2508 -0.0117
  887loPI   C1A12497   0.654  11.218   7.471  0.1182  0.1362 -0.3645
  887loPI   C2A12498   0.665  11.215   7.977 -0.0561 -0.2742 -0.0682
  887loPI   C3A12499   0.722  11.211   8.426 -0.0413  0.0891 -0.0817
  887loPI   C4A12500   0.692  11.304   8.850  0.1202  0.0568 -0.0808
  887loPI   C5A12501   0.690  11.133   9.208  0.1661  0.1383 -0.2470
  887loPI   C6A12502   0.619  10.697   9.328  0.2907  0.0424  0.1918
  887loPI   C1B12503   1.114  11.412   7.655  0.1613  0.1539  0.1469
  887loPI   C2B12504   1.093  11.467   8.090 -0.2269  0.0007 -0.0216
  887loPI   C3B12505   1.034  11.548   8.580 -0.2397 -0.1795 -0.0295
  887loPI   C4B12506   0.791  11.766   8.950 -0.1803 -0.1148 -0.1683
  888loPI    C112507   4.071   4.634   6.116 -0.0872  0.0070  0.0783
  888loPI    C212508   3.681   4.602   6.033 -0.0519  0.1156 -0.1361
  888loPI    C312509   3.929   4.772   5.768  0.1413  0.0479 -0.0009
  888loPI   PO412510   4.184   4.749   6.442  0.2409 -0.1672 -0.1211
  888loPI   GL112511   4.106   5.177   6.692 -0.2246 -0.2425  0.1498
  888loPI   GL212512   3.904   4.965   6.783  0.4515 -0.0674 -0.0507
  888loPI   C1A12513   4.089   5.361   7.153 -0.3250  0.0598  0.0626
  888loPI   C2A12514   4.002   5.415   7.583  0.0276 -0.0005  0.1528
  888loPI   C3A12515   3.922   5.316   7.949  0.0901 -0.1412 -0.0135
  888loPI   C4A12516   4.040   5.249   8.379  0.0243  0.0243 -0.0066
  888loPI   C5A12517   4.319   5.093   8.658 -0.0504 -0.0760 -0.1544
  888loPI   C6A12518   4.562   4.665   8.729 -0.1927  0.0716 -0.4213
  888loPI   C1B12519   3.800   4.966   7.215  0.0766  0.0009  0.0114
  888loPI   C2B12520   3.797   4.900   7.721  0.0398  0.0710 -0.1067
  888loPI   C3B12521   3.953   4.809   8.082  0.2644 -0.2641  0.2837
  888loPI   C4B12522   4.006   4.735   8.557  0.1795  0.5646 -0.2214
  889loPI    C112523   0.943   1.435   6.352  0.1503  0.0315 -0.1714
  889loPI    C212524   1.206   1.165   6.217  0.1004  0.0018 -0.2098
  889loPI    C312525   0.854   1.210   6.033  0.1686  0.1982 -0.2953
  889loPI   PO412526   0.882   1.409   6.620 -0.0206 -0.1533  0.0994
  889loPI   GL112527   1.106   1.384   7.038 -0.4402 -0.2982 -0.0427
  889loPI   GL212528   1.245   1.726   7.145 -0.1192 -0.1725 -0.0719
  889loPI   C1A12529   1.075   1.220   7.475 -0.1432  0.0994  0.2564
  889loPI   C2A12530   1.046   1.224   7.781  0.1311 -0.1898  0.1345
  889loPI   C3A12531   0.903   1.298   8.165 -0.1773  0.1668 -0.2983
  889loPI   C4A12532   0.990   1.257   8.637  0.0061 -0.3303 -0.2930
  889loPI   C5A12533   1.064   1.217   9.114 -0.1812  0.1801 -0.0541
  889loPI   C6A12534   1.431   0.974   9.263  0.2476 -0.3420  0.2874
  889loPI   C1B12535   1.168   1.689   7.551  0.1051 -0.0856 -0.1782
  889loPI   C2B12536   1.097   1.737   7.958  0.0396  0.1346 -0.3030
  889loPI   C3B12537   1.051   1.755   8.436  0.2612  0.0597 -0.1821
  889loPI   C4B12538   1.226   1.685   8.914  0.0215 -0.2068  0.1593
  890loPI    C112539   6.204   7.692   6.216 -0.0749  0.1240  0.1520
  890loPI    C212540   6.096   7.928   5.912 -0.1427  0.2840  0.2986
  890loPI    C312541   5.821   7.707   6.100 -0.0371 -0.1209 -0.0101
  890loPI   PO412542   6.438   7.818   6.330 -0.2091  0.2125  0.1229
  890loPI   GL112543   6.538   8.095   6.628 -0.0779  0.0145 -0.0350
  890loPI   GL212544   6.617   8.385   6.546  0.0860  0.0368  0.1710
  890loPI   C1A12545   6.395   7.944   6.957 -0.5669 -0.2211  0.1664
  890loPI   C2A12546   6.438   7.883   7.416  0.5193  0.0409  0.0491
  890loPI   C3A12547   6.683   7.984   7.820 -0.1474 -0.0368 -0.2198
  890loPI   C4A12548   6.581   8.025   8.225  0.1315  0.0476 -0.1269
  890loPI   C5A12549   6.386   8.086   8.667 -0.1030  0.2911  0.2091
  890loPI   C6A12550   6.506   7.879   9.030 -0.0522  0.3406  0.1126
  890loPI   C1B12551   6.557   8.417   6.997 -0.2713 -0.0996  0.0511
  890loPI   C2B12552   6.777   8.461   7.391  0.1349  0.0717  0.0104
  890loPI   C3B12553   6.857   8.534   7.864  0.0888  0.1243  0.2787
  890loPI   C4B12554   6.737   8.543   8.221  0.2316  0.1927 -0.0258
  891loPI    C112555  15.952   2.337   6.113 -0.1004  0.2406  0.0265
  891loPI    C212556  16.294   2.163   6.001 -0.1565  0.1039  0.0659
  891loPI    C312557  15.971   2.138   5.767 -0.2320 -0.0538  0.1852
  891loPI   PO412558  15.932   2.271   6.321 -0.1514  0.1329 -0.1352
  891loPI   GL112559  15.776   2.551   6.669  0.1499 -0.0681  0.0547
  891loPI   GL212560  15.434   2.647   6.710  0.0632  0.1702 -0.3627
  891loPI   C1A12561  15.943   2.346   7.085 -0.2923 -0.1203 -0.0523
  891loPI   C2A12562  16.091   2.209   7.410  0.0485  0.0646  0.0293
  891loPI   C3A12563  15.989   2.187   7.831  0.0968 -0.1492  0.3811
  891loPI   C4A12564  15.934   2.220   8.249  0.2960  0.1735 -0.0385
  891loPI   C5A12565  15.847   2.066   8.695  0.1544  0.2658 -0.1827
  891loPI   C6A12566  16.150   1.796   8.932  0.0672  0.0029 -0.0440
  891loPI   C1B12567  15.587   2.673   7.164  0.1066  0.1869 -0.4509
  891loPI   C2B12568  15.634   2.560   7.540  0.1524 -0.1327 -0.0005
  891loPI   C3B12569  15.665   2.567   7.996  0.2486  0.0622  0.1530
  891loPI   C4B12570  15.595   2.586   8.431  0.1284 -0.1590 -0.0051
  892loPI    C112571   1.004   4.796   6.082 -0.2551 -0.0833  0.0308
  892loPI    C212572   1.157   4.989   5.767  0.1812 -0.2623  0.1263
  892loPI    C312573   0.839   4.750   5.720 -0.0030  0.0203 -0.0994
  892loPI   PO412574   1.257   4.754   6.235 -0.0392  0.1400 -0.2781
  892loPI   GL112575   1.555   4.761   6.581 -0.0108  0.1690 -0.1891
  892loPI   GL212576   1.935   4.808   6.718 -0.1484 -0.1050  0.1189
  892loPI   C1A12577   1.390   4.729   6.967 -0.1157  0.1393 -0.4004
  892loPI   C2A12578   1.361   4.779   7.382 -0.0805 -0.1322 -0.0495
  892loPI   C3A12579   1.437   4.706   7.755 -0.0768 -0.2711 -0.3026
  892loPI   C4A12580   1.459   4.782   8.099 -0.2078  0.2187  0.2064
  892loPI   C5A12581   1.581   4.683   8.621  0.0037 -0.4150 -0.1340
  892loPI   C6A12582   1.880   4.943   8.877  0.0252  0.1903 -0.2402
  892loPI   C1B12583   1.928   4.861   7.172 -0.1308  0.0919 -0.0878
  892loPI   C2B12584   1.885   4.922   7.524 -0.1024  0.2043  0.2372
  892loPI   C3B12585   1.930   4.793   7.972 -0.3113  0.2709 -0.0712
  892loPI   C4B12586   1.993   4.855   8.401 -0.3715  0.0327 -0.0464
  893loPI    C112587   5.261  15.395   6.650  0.0197  0.0917  0.0810
  893loPI    C212588   5.359  15.684   6.392  0.3504 -0.0975 -0.0111
  893loPI    C312589   5.231  15.330   6.257  0.0569 -0.0363  0.0988
  893loPI   PO412590   5.437  15.457   6.824  0.0730 -0.1720 -0.3029
  893loPI   GL112591   5.743  15.697   7.072  0.1065 -0.1352 -0.4259
  893loPI   GL212592   6.044  15.632   7.028  0.0280 -0.1873  0.1648
  893loPI   C1A12593   5.779  15.983   7.416 -0.1704 -0.1054  0.1697
  893loPI   C2A12594   5.863  15.969   7.816 -0.3156 -0.1038 -0.0576
  893loPI   C3A12595   5.891  16.017   8.257 -0.0025  0.0149  0.3733
  893loPI   C4A12596   5.829  16.041   8.695  0.0913 -0.2480 -0.2473
  893loPI   C5A12597   6.099  16.017   9.067  0.0192 -0.0565 -0.0425
  893loPI   C6A12598   6.603  15.972   9.146  0.0302  0.1148  0.0727
  893loPI   C1B12599   6.112  15.475   7.455 -0.1222 -0.1793 -0.1700
  893loPI   C2B12600   6.202  15.570   7.877  0.1383  0.0865 -0.1349
  893loPI   C3B12601   6.290  15.650   8.242 -0.1613  0.0966 -0.1090
  893loPI   C4B12602   6.343  15.785   8.694 -0.0117  0.0374  0.3468
  894loPI    C112603  15.881   1.233   6.111 -0.0156  0.0603  0.0306
  894loPI    C212604  15.612   0.974   5.967  0.0141 -0.0832  0.2286
  894loPI    C312605  15.891   1.129   5.725 -0.1969  0.0067  0.0395
  894loPI   PO412606  15.735   1.339   6.364 -0.1679 -0.1051  0.1942
  894loPI   GL112607  15.614   1.711   6.606 -0.0962  0.0488  0.1905
  894loPI   GL212608  15.856   1.842   6.644 -0.0769 -0.0341  0.0079
  894loPI   C1A12609  15.418   1.643   7.007 -0.1240 -0.3334  0.2028
  894loPI   C2A12610  15.409   1.631   7.418 -0.1065 -0.1313 -0.1631
  894loPI   C3A12611  15.336   1.544   7.854 -0.1319 -0.0943 -0.1339
  894loPI   C4A12612  15.350   1.564   8.307 -0.2575 -0.1328  0.0923
  894loPI   C5A12613  15.497   1.576   8.707 -0.2254 -0.0929  0.1935
  894loPI   C6A12614  15.439   1.844   8.973  0.0908  0.2303 -0.0714
  894loPI   C1B12615  15.881   1.845   7.125 -0.0328 -0.0805  0.1655
  894loPI   C2B12616  15.865   1.732   7.551 -0.2282  0.0070  0.1888
  894loPI   C3B12617  15.816   1.710   7.954  0.0210  0.0567 -0.1804
  894loPI   C4B12618  15.866   1.683   8.344 -0.1947 -0.4139 -0.2319
  895loPI    C112619  16.211   5.837   5.906  0.0688 -0.1376  0.2535
  895loPI    C212620  16.459   6.003   5.640 -0.0681 -0.0188  0.1988
  895loPI    C312621  16.327   5.630   5.584 -0.2099  0.0565  0.0234
  895loPI   PO412622  16.042   5.962   6.015 -0.5173  0.0215 -0.2598
  895loPI   GL112623  15.920   5.972   6.451 -0.0010  0.0057 -0.0807
  895loPI   GL212624  16.081   5.735   6.461  0.1994  0.1863 -0.1894
  895loPI   C1A12625  15.968   6.046   6.905  0.3222  0.1681  0.0270
  895loPI   C2A12626  16.045   6.018   7.386  0.1312  0.0737 -0.0366
  895loPI   C3A12627  16.260   5.872   7.943  0.1340 -0.0033 -0.1201
  895loPI   C4A12628  16.220   5.749   8.407 -0.0536  0.1735 -0.1478
  895loPI   C5A12629  16.082   5.341   8.465  0.3525 -0.4154 -0.2731
  895loPI   C6A12630  16.102   5.000   8.744  0.0041 -0.0272 -0.0289
  895loPI   C1B12631  15.892   5.546   6.778  0.2299 -0.0756 -0.0091
  895loPI   C2B12632  16.027   5.593   7.151 -0.0753 -0.2003 -0.0177
  895loPI   C3B12633  16.126   5.554   7.560 -0.0963  0.3735  0.1829
  895loPI   C4B12634  15.952   5.456   7.991 -0.1462 -0.0533  0.0944
  896loPI    C112635   1.540   5.187   6.118  0.0247 -0.1413  0.0114
  896loPI    C212636   1.834   5.406   5.959  0.1212 -0.2718  0.0085
  896loPI    C312637   1.586   5.201   5.721 -0.0802 -0.0268  0.0025
  896loPI   PO412638   1.686   5.173   6.384  0.0735 -0.1960  0.2280
  896loPI   GL112639   1.272   5.238   6.765  0.3375 -0.2416 -0.0021
  896loPI   GL212640   1.374   5.504   6.671  0.1875 -0.1639 -0.0979
  896loPI   C1A12641   1.133   5.145   7.089 -0.2448  0.1480  0.0825
  896loPI   C2A12642   1.009   5.118   7.509  0.0892 -0.0406 -0.0332
  896loPI   C3A12643   1.082   5.077   7.953 -0.0077  0.0290  0.2110
  896loPI   C4A12644   1.116   5.004   8.324 -0.2588  0.2366 -0.0495
  896loPI   C5A12645   1.011   4.705   8.614  0.1431  0.4294 -0.0758
  896loPI   C6A12646   0.862   4.733   9.088 -0.1981 -0.0058 -0.3091
  896loPI   C1B12647   1.671   5.273   7.084 -0.1032  0.2467  0.1957
  896loPI   C2B12648   1.514   5.246   7.556  0.0009  0.0484 -0.3578
  896loPI   C3B12649   1.487   5.295   7.951 -0.3140 -0.2094 -0.0800
  896loPI   C4B12650   1.660   5.246   8.273  0.1967  0.0985  0.1821
  897loPI    C112651   2.402  14.953   6.339 -0.2516  0.0071  0.0239
  897loPI    C212652   2.267  15.286   6.164 -0.1579 -0.0471 -0.1542
  897loPI    C312653   2.497  15.032   5.959 -0.2245 -0.2196 -0.0178
  897loPI   PO412654   2.187  14.958   6.586 -0.0988  0.1316 -0.1808
  897loPI   GL112655   2.265  14.984   7.020  0.0016  0.1074  0.3341
  897loPI   GL212656   2.389  15.346   7.091 -0.1109 -0.2329 -0.2216
  897loPI   C1A12657   2.044  14.768   7.324  0.0983 -0.3062  0.2514
  897loPI   C2A12658   2.044  14.790   7.759  0.1173 -0.1209  0.1100
  897loPI   C3A12659   2.092  14.789   8.221 -0.0434 -0.1986 -0.1149
  897loPI   C4A12660   1.933  14.908   8.588 -0.0480  0.2989  0.2504
  897loPI   C5A12661   1.782  15.103   8.869  0.1239  0.1026 -0.0923
  897loPI   C6A12662   1.745  15.495   9.083  0.1512 -0.0790 -0.1181
  897loPI   C1B12663   2.359  15.264   7.572 -0.0065  0.1011  0.0899
  897loPI   C2B12664   2.377  15.149   8.004  0.0038  0.0860 -0.4190
  897loPI   C3B12665   2.364  15.115   8.458 -0.5371 -0.4054 -0.2543
  897loPI   C4B12666   2.242  15.191   8.889  0.0250  0.3659 -0.1280
  898loPI    C112667   6.187   8.638   6.135  0.3071  0.1543  0.1013
  898loPI    C212668   6.456   8.684   5.843  0.1007 -0.0319 -0.1230
  898loPI    C312669   6.161   8.417   5.802 -0.1056  0.1532  0.1292
  898loPI   PO412670   6.272   8.741   6.402  0.0331  0.0402 -0.0038
  898loPI   GL112671   6.105   9.008   6.717  0.1248 -0.0484 -0.0029
  898loPI   GL212672   6.491   8.951   6.777  0.0730  0.1598  0.1132
  898loPI   C1A12673   5.845   8.893   7.068  0.1254 -0.0570  0.1032
  898loPI   C2A12674   5.870   8.826   7.414 -0.1628  0.0214 -0.1351
  898loPI   C3A12675   5.910   8.776   7.838 -0.2125 -0.1386 -0.0587
  898loPI   C4A12676   5.832   8.855   8.225 -0.0974  0.3442 -0.0800
  898loPI   C5A12677   5.907   8.808   8.607 -0.0657 -0.0722  0.1074
  898loPI   C6A12678   6.161   8.806   9.004 -0.1289 -0.0223 -0.0972
  898loPI   C1B12679   6.326   8.842   7.186 -0.2537 -0.2460  0.0087
  898loPI   C2B12680   6.340   8.907   7.553 -0.1571  0.1253  0.0070
  898loPI   C3B12681   6.421   8.827   7.964 -0.2759  0.3208 -0.3642
  898loPI   C4B12682   6.436   8.911   8.367  0.3676 -0.1158  0.0285
  899loPI    C112683  13.330  16.034   5.993 -0.3620  0.0030 -0.1228
  899loPI    C212684  13.660  16.101   5.778 -0.2557 -0.0295  0.0286
  899loPI    C312685  13.319  15.998   5.595 -0.1761 -0.0204 -0.1264
  899loPI   PO412686  13.448  15.907   6.251 -0.2138  0.0336 -0.3442
  899loPI   GL112687  13.341  15.737   6.613 -0.0432 -0.0951 -0.0098
  899loPI   GL212688  13.739  15.698   6.682  0.1318  0.0682  0.1327
  899loPI   C1A12689  13.178  15.649   6.948 -0.1932  0.2396 -0.1041
  899loPI   C2A12690  13.193  15.650   7.330 -0.1174  0.0485  0.0971
  899loPI   C3A12691  13.218  15.645   7.770  0.0146 -0.0742  0.0355
  899loPI   C4A12692  13.208  15.684   8.170  0.0815 -0.0656  0.3912
  899loPI   C5A12693  13.219  15.567   8.609 -0.3469  0.3012 -0.0263
  899loPI   C6A12694  12.900  15.633   8.912 -0.1537 -0.0830 -0.1013
  899loPI   C1B12695  13.746  15.767   7.151  0.0157  0.1906  0.0589
  899loPI   C2B12696  13.672  15.782   7.523 -0.2124 -0.0147 -0.0681
  899loPI   C3B12697  13.814  15.832   7.938  0.0573  0.2032 -0.0029
  899loPI   C4B12698  13.692  15.749   8.364  0.2687  0.3890 -0.0436
  900loPI    C112699  13.096  12.767   6.121 -0.3459 -0.1476  0.1202
  900loPI    C212700  12.830  13.020   5.961 -0.1045  0.0146 -0.0305
  900loPI    C312701  12.991  12.730   5.737 -0.0572 -0.0022  0.0248
  900loPI   PO412702  12.938  12.688   6.352  0.2846 -0.1566 -0.1826
  900loPI   GL112703  12.705  12.706   6.718  0.1295  0.0307  0.0487
  900loPI   GL212704  12.405  12.997   6.811 -0.0692 -0.0254 -0.0800
  900loPI   C1A12705  12.683  12.633   7.136 -0.2614 -0.1550 -0.2498
  900loPI   C2A12706  12.668  12.659   7.554 -0.2205  0.0916 -0.2347
  900loPI   C3A12707  12.551  12.598   7.858  0.1768 -0.1510 -0.1190
  900loPI   C4A12708  12.476  12.672   8.221  0.1087 -0.0749  0.1342
  900loPI   C5A12709  12.488  12.478   8.555  0.1400  0.0646  0.2315
  900loPI   C6A12710  12.600  12.531   8.976 -0.0310 -0.0947 -0.3033
  900loPI   C1B12711  12.154  13.063   7.016 -0.3575 -0.1090 -0.0127
  900loPI   C2B12712  12.069  13.059   7.500 -0.3142 -0.2565  0.0962
  900loPI   C3B12713  12.122  12.992   7.921 -0.0636 -0.0743  0.3020
  900loPI   C4B12714  12.071  12.978   8.387  0.3202 -0.3258  0.0543
  901loPI    C112715   9.540   7.057   6.194  0.1177 -0.0119  0.0813
  901loPI    C212716   9.634   7.421   6.329  0.0969  0.0117  0.0321
  901loPI    C312717   9.657   7.341   5.938  0.1354 -0.0501  0.0470
  901loPI   PO412718   9.297   7.018   6.313 -0.3167 -0.1858 -0.0605
  901loPI   GL112719   9.231   6.855   6.739  0.0416 -0.2225 -0.1175
  901loPI   GL212720   9.587   6.729   6.596 -0.1063 -0.0646 -0.1607
  901loPI   C1A12721   9.372   6.964   7.172  0.0218  0.0239 -0.0450
  901loPI   C2A12722   9.359   7.019   7.615  0.4240 -0.2528 -0.0481
  901loPI   C3A12723   9.172   6.934   7.985 -0.0993 -0.0288 -0.2245
  901loPI   C4A12724   9.051   6.816   8.409 -0.1186 -0.1031 -0.3427
  901loPI   C5A12725   8.809   6.391   8.660 -0.0207  0.0984 -0.1068
  901loPI   C6A12726   8.915   5.991   8.894  0.1151 -0.2458 -0.0151
  901loPI   C1B12727   9.719   6.642   6.951  0.0364  0.0506 -0.2568
  901loPI   C2B12728   9.641   6.605   7.368  0.2409 -0.1222  0.2384
  901loPI   C3B12729   9.631   6.536   7.732  0.2729  0.1227 -0.0125
  901loPI   C4B12730   9.556   6.608   8.084  0.0341  0.5704  0.1702
  902loPI    C112731   1.380   7.211   6.476  0.0302 -0.0095 -0.0376
  902loPI    C212732   1.339   7.530   6.239  0.0201 -0.0988 -0.1570
  902loPI    C312733   1.267   7.164   6.095  0.0552 -0.1570 -0.0276
  902loPI   PO412734   1.509   7.207   6.674 -0.2571  0.0002 -0.1740
  902loPI   GL112735   1.932   7.227   6.790  0.2399  0.0364  0.2605
  902loPI   GL212736   1.859   6.899   6.892  0.3442 -0.1614  0.3979
  902loPI   C1A12737   2.020   7.253   7.220 -0.0122  0.1207 -0.0928
  902loPI   C2A12738   2.045   7.131   7.686  0.0266 -0.0528  0.0689
  902loPI   C3A12739   2.254   7.303   8.119  0.1529 -0.1000 -0.2710
  902loPI   C4A12740   2.220   7.181   8.531  0.0973 -0.1500  0.2225
  902loPI   C5A12741   2.170   7.108   8.971 -0.0449 -0.2885 -0.3231
  902loPI   C6A12742   1.956   6.981   9.319  0.0433  0.0815 -0.3862
  902loPI   C1B12743   1.901   6.775   7.307  0.1502  0.2167 -0.0280
  902loPI   C2B12744   2.017   6.670   7.784  0.0765  0.1472 -0.1142
  902loPI   C3B12745   2.019   6.808   8.224 -0.0609  0.1378 -0.1041
  902loPI   C4B12746   2.043   6.694   8.584  0.0732 -0.0244  0.0557
  903loPI    C112747  12.924   7.072   6.035  0.1719  0.1091  0.1793
  903loPI    C212748  13.247   7.084   5.799  0.1226  0.1460  0.1135
  903loPI    C312749  12.987   7.388   5.798  0.0396  0.0754  0.0983
  903loPI   PO412750  12.955   6.949   6.279  0.2861  0.2606 -0.1721
  903loPI   GL112751  13.139   6.821   6.628 -0.0181 -0.0215  0.0608
  903loPI   GL212752  13.180   6.445   6.483 -0.0500 -0.1493 -0.0228
  903loPI   C1A12753  12.945   6.724   7.056 -0.0016  0.2617  0.1764
  903loPI   C2A12754  12.912   6.549   7.467  0.0698 -0.2338 -0.2205
  903loPI   C3A12755  12.910   6.470   7.930 -0.5665 -0.0045  0.0651
  903loPI   C4A12756  13.121   6.452   8.394  0.2757  0.3732  0.0756
  903loPI   C5A12757  13.301   6.859   8.638  0.4964  0.1581  0.2528
  903loPI   C6A12758  13.385   6.827   9.045  0.0799 -0.1439  0.2132
  903loPI   C1B12759  13.309   6.404   6.962  0.0970  0.1679  0.0538
  903loPI   C2B12760  13.308   6.288   7.400  0.0275 -0.0264 -0.1740
  903loPI   C3B12761  13.344   6.133   7.773 -0.0707  0.0906 -0.2357
  903loPI   C4B12762  13.296   6.032   8.216  0.0192 -0.0286 -0.0109
  904loPI    C112763  11.901   4.070   5.987 -0.1172 -0.1748 -0.2415
  904loPI    C212764  12.155   4.352   5.862 -0.1724  0.0253  0.0849
  904loPI    C312765  12.070   4.041   5.625  0.0936  0.1428 -0.1728
  904loPI   PO412766  11.923   4.015   6.250 -0.1318  0.1816  0.0757
  904loPI   GL112767  11.621   3.935   6.518 -0.0486  0.0134 -0.4077
  904loPI   GL212768  11.564   4.278   6.680  0.1538  0.0487 -0.0032
  904loPI   C1A12769  11.688   3.841   7.001 -0.0008  0.0372 -0.2055
  904loPI   C2A12770  11.706   3.932   7.462 -0.2090  0.1016 -0.2300
  904loPI   C3A12771  11.713   3.791   7.888  0.0733  0.0727 -0.0688
  904loPI   C4A12772  11.739   3.661   8.339  0.1765  0.0878 -0.0607
  904loPI   C5A12773  11.379   3.482   8.630 -0.0573  0.0407 -0.0213
  904loPI   C6A12774  10.925   3.387   8.651 -0.0004  0.0039 -0.1135
  904loPI   C1B12775  11.404   4.237   7.082  0.1817 -0.0997  0.0122
  904loPI   C2B12776  11.260   4.105   7.471  0.1899 -0.1327 -0.1540
  904loPI   C3B12777  11.232   4.056   7.876 -0.1155 -0.0740 -0.3391
  904loPI   C4B12778  11.180   4.175   8.357 -0.0690 -0.0426  0.0576
  905loPI    C112779   7.378  13.808   6.187  0.1408 -0.1060  0.0565
  905loPI    C212780   7.466  13.458   6.014  0.1656 -0.0935  0.0441
  905loPI    C312781   7.463  13.794   5.797 -0.0947 -0.1199  0.0039
  905loPI   PO412782   7.287  13.762   6.424 -0.2229  0.0941  0.0729
  905loPI   GL112783   7.297  14.169   6.724  0.1580 -0.1258  0.0594
  905loPI   GL212784   7.064  14.290   6.986  0.0296  0.3002 -0.2024
  905loPI   C1A12785   7.555  14.106   7.061 -0.0564 -0.1038  0.0269
  905loPI   C2A12786   7.628  14.077   7.410  0.2311 -0.0720 -0.3545
  905loPI   C3A12787   7.609  14.082   7.887  0.2264  0.0089  0.2958
  905loPI   C4A12788   7.775  14.251   8.204  0.0826  0.2837 -0.1804
  905loPI   C5A12789   7.771  14.483   8.610  0.2118 -0.1037  0.0840
  905loPI   C6A12790   7.459  14.656   8.764 -0.2837  0.0700  0.0649
  905loPI   C1B12791   7.313  14.406   7.389 -0.1072  0.1763 -0.3067
  905loPI   C2B12792   7.319  14.488   7.801  0.0344  0.3127 -0.1047
  905loPI   C3B12793   7.251  14.369   8.168 -0.0665  0.0181 -0.1218
  905loPI   C4B12794   7.283  14.259   8.480  0.0889  0.2438 -0.0640
  906loPI    C112795  14.271   5.600   5.856  0.1145  0.1804 -0.1120
  906loPI    C212796  14.616   5.749   5.717  0.1635  0.1301 -0.0451
  906loPI    C312797  14.416   5.475   5.505  0.1667  0.1563 -0.0820
  906loPI   PO412798  14.058   5.755   5.967 -0.2394  0.3027 -0.1027
  906loPI   GL112799  13.986   5.798   6.417 -0.0977  0.0773  0.0636
  906loPI   GL212800  14.281   6.062   6.538  0.0520 -0.1320 -0.0054
  906loPI   C1A12801  13.936   5.430   6.712  0.0968 -0.3375  0.1487
  906loPI   C2A12802  13.959   5.415   7.167  0.2058 -0.2173  0.1555
  906loPI   C3A12803  14.001   5.486   7.548 -0.0723 -0.1091 -0.2434
  906loPI   C4A12804  13.969   5.386   7.943 -0.2986  0.0278 -0.1186
  906loPI   C5A12805  13.896   5.429   8.397  0.1004 -0.0336  0.4057
  906loPI   C6A12806  13.553   5.528   8.614  0.3700  0.2177  0.1489
  906loPI   C1B12807  14.042   5.955   6.912 -0.1975  0.0916  0.3609
  906loPI   C2B12808  14.011   5.912   7.255 -0.2898  0.1332  0.2400
  906loPI   C3B12809  14.019   6.032   7.660 -0.1163  0.1384 -0.4147
  906loPI   C4B12810  14.124   5.845   8.073 -0.4248  0.0484  0.0997
  907loPI    C112811  16.180  15.088   6.691 -0.0887  0.0834 -0.1961
  907loPI    C212812  16.042  15.194   6.331  0.1490 -0.0140 -0.3187
  907loPI    C312813  16.383  14.988   6.361  0.1028 -0.0543 -0.0393
  907loPI   PO412814  15.967  15.233   6.843  0.1154  0.2528 -0.0772
  907loPI   GL112815  15.899  15.400   7.181 -0.1361  0.0124  0.0081
  907loPI   GL212816  15.625  15.437   7.375  0.0499 -0.3776 -0.3266
  907loPI   C1A12817  16.001  15.348   7.662  0.1772  0.0532 -0.2104
  907loPI   C2A12818  16.049  15.366   8.041 -0.0405  0.2031  0.2111
  907loPI   C3A12819  16.197  15.225   8.315 -0.0921  0.1086  0.0700
  907loPI   C4A12820  16.095  15.354   8.827 -0.1231  0.0422  0.0196
  907loPI   C5A12821  16.452  15.632   9.063  0.2179  0.1534 -0.1767
  907loPI   C6A12822  16.888  15.711   9.290 -0.3337  0.0702 -0.1280
  907loPI   C1B12823  15.487  15.524   7.700 -0.0758  0.1119  0.0619
  907loPI   C2B12824  15.555  15.429   8.092  0.1433  0.2081 -0.0062
  907loPI   C3B12825  15.640  15.514   8.556  0.1533  0.0952  0.0160
  907loPI   C4B12826  15.637  15.429   8.988  0.1778  0.0054 -0.0435
  908loPI    C112827   5.321   1.721   6.625 -0.0823 -0.0312 -0.1846
  908loPI    C212828   5.709   1.802   6.676  0.0185 -0.4438 -0.2555
  908loPI    C312829   5.505   1.977   6.380  0.0809 -0.0286 -0.0607
  908loPI   PO412830   5.253   1.711   6.862  0.0101  0.3495  0.2433
  908loPI   GL112831   5.432   1.737   7.249 -0.4323  0.1153  0.1603
  908loPI   GL212832   5.547   2.006   7.255 -0.1286 -0.0035  0.0861
  908loPI   C1A12833   5.249   1.634   7.603 -0.0294 -0.2990  0.0885
  908loPI   C2A12834   5.272   1.731   7.939 -0.1744 -0.0283  0.0394
  908loPI   C3A12835   5.469   1.649   8.313 -0.2685 -0.1589 -0.2552
  908loPI   C4A12836   5.519   1.535   8.794 -0.3821 -0.0906 -0.2579
  908loPI   C5A12837   5.429   1.157   8.967  0.0231  0.3179  0.0229
  908loPI   C6A12838   5.355   0.656   8.861 -0.1455 -0.2385 -0.3651
  908loPI   C1B12839   5.597   2.016   7.688  0.1566 -0.2206  0.1169
  908loPI   C2B12840   5.710   2.066   8.139  0.0618 -0.0260 -0.1808
  908loPI   C3B12841   5.684   2.008   8.588 -0.0876 -0.4563  0.2222
  908loPI   C4B12842   5.283   2.048   8.830  0.0212 -0.0110  0.0443
  909loPI    C112843   8.062   9.936   6.235 -0.1762 -0.1482  0.1113
  909loPI    C212844   7.797  10.179   6.059 -0.0517 -0.1547 -0.0880
  909loPI    C312845   7.791   9.786   5.981 -0.2329 -0.2136  0.2101
  909loPI   PO412846   8.150  10.087   6.451  0.1909  0.2193  0.3103
  909loPI   GL112847   7.997  10.003   6.826  0.2874 -0.3050  0.0504
  909loPI   GL212848   8.066  10.307   6.917 -0.0807  0.4519 -0.1456
  909loPI   C1A12849   7.955   9.730   7.203  0.2451 -0.1172 -0.0586
  909loPI   C2A12850   8.033   9.666   7.633  0.0844 -0.3258  0.0105
  909loPI   C3A12851   8.086   9.868   8.034 -0.2296  0.0546  0.0207
  909loPI   C4A12852   8.077   9.984   8.457  0.1472 -0.1838 -0.0175
  909loPI   C5A12853   7.729  10.038   8.802 -0.0287  0.0185  0.0700
  909loPI   C6A12854   7.360  10.174   9.012  0.0734  0.2768  0.1985
  909loPI   C1B12855   8.192  10.448   7.394  0.0689  0.0013 -0.1176
  909loPI   C2B12856   8.183  10.391   7.826  0.1483  0.1752 -0.2399
  909loPI   C3B12857   8.198  10.425   8.272 -0.0314 -0.0052 -0.0994
  909loPI   C4B12858   8.290  10.796   8.650  0.0033 -0.0206  0.0057
  910loPI    C112859   4.551   7.190   6.383 -0.0642  0.1126 -0.0841
  910loPI    C212860   4.267   6.909   6.364  0.0254  0.0165 -0.0169
  910loPI    C312861   4.643   6.821   6.261  0.0714  0.0879  0.0880
  910loPI   PO412862   4.634   7.277   6.616 -0.0195  0.1724 -0.1040
  910loPI   GL112863   4.447   7.366   6.969  0.1911  0.0011  0.1727
  910loPI   GL212864   4.299   7.657   7.054 -0.0152 -0.2018 -0.0481
  910loPI   C1A12865   4.375   6.945   7.214 -0.1098 -0.0005  0.1556
  910loPI   C2A12866   4.311   6.897   7.578 -0.1072  0.0391  0.1035
  910loPI   C3A12867   4.345   6.810   7.991  0.4441 -0.3396 -0.0412
  910loPI   C4A12868   4.365   6.756   8.491 -0.0532 -0.1301  0.3307
  910loPI   C5A12869   4.662   6.475   8.755 -0.0242  0.1980 -0.0548
  910loPI   C6A12870   5.004   6.205   9.050 -0.1638  0.1150 -0.0132
  910loPI   C1B12871   4.409   7.582   7.492 -0.0146  0.0956  0.0678
  910loPI   C2B12872   4.569   7.587   7.932  0.0670  0.2660 -0.0312
  910loPI   C3B12873   4.643   7.511   8.358 -0.3375  0.3237  0.0864
  910loPI   C4B12874   4.575   7.548   8.844  0.1458  0.1952 -0.2053
  911loPI    C112875  15.329   7.250   6.290  0.0498 -0.0064 -0.1984
  911loPI    C212876  15.028   7.277   6.028 -0.1322  0.1577  0.0233
  911loPI    C312877  15.085   6.938   6.234 -0.1249  0.1047 -0.0653
  911loPI   PO412878  15.319   7.516   6.376  0.0118  0.1396 -0.0855
  911loPI   GL112879  15.206   7.733   6.666  0.0176 -0.3254 -0.0783
  911loPI   GL212880  15.197   8.143   6.648 -0.0249 -0.2087 -0.0624
  911loPI   C1A12881  15.051   7.674   7.130 -0.0142  0.3057  0.0397
  911loPI   C2A12882  14.982   7.645   7.545  0.0181 -0.4537 -0.0310
  911loPI   C3A12883  14.988   7.589   7.954  0.1386 -0.2765 -0.1260
  911loPI   C4A12884  15.066   7.479   8.349 -0.3493  0.1445 -0.0096
  911loPI   C5A12885  15.290   7.291   8.780 -0.0774  0.1608 -0.1155
  911loPI   C6A12886  15.709   7.221   8.926  0.3662 -0.1866  0.3039
  911loPI   C1B12887  15.178   8.173   7.137  0.1556 -0.0458  0.1350
  911loPI   C2B12888  15.088   8.167   7.561  0.0498 -0.3667  0.1944
  911loPI   C3B12889  15.114   8.218   7.989  0.0099 -0.0181  0.1663
  911loPI   C4B12890  14.984   8.151   8.430  0.2473 -0.0577 -0.0689
  912loPI    C112891   3.682   2.509   6.368  0.1232 -0.1405  0.0646
  912loPI    C212892   3.878   2.450   6.025 -0.0621 -0.0847 -0.0518
  912loPI    C312893   3.479   2.418   6.036 -0.0558 -0.1016  0.1620
  912loPI   PO412894   3.987   2.494   6.535 -0.5470  0.0908  0.0639
  912loPI   GL112895   4.158   2.748   6.920  0.1388  0.0523  0.1887
  912loPI   GL212896   4.108   3.021   6.975 -0.0298 -0.4771 -0.0640
  912loPI   C1A12897   4.252   2.620   7.330 -0.2590  0.2646 -0.1541
  912loPI   C2A12898   4.225   2.569   7.754 -0.2690 -0.0376 -0.2723
  912loPI   C3A12899   4.266   2.659   8.197  0.2981 -0.0109 -0.0704
  912loPI   C4A12900   4.269   2.717   8.651  0.2275 -0.2746  0.1108
  912loPI   C5A12901   4.125   2.887   9.039  0.0725 -0.1153  0.2048
  912loPI   C6A12902   4.020   3.332   9.262  0.0950 -0.1316 -0.0874
  912loPI   C1B12903   3.876   3.053   7.419 -0.1425 -0.2166  0.0509
  912loPI   C2B12904   3.806   2.956   7.774  0.0211  0.1702 -0.1440
  912loPI   C3B12905   3.833   2.959   8.187  0.0555  0.2133  0.1742
  912loPI   C4B12906   3.801   2.976   8.647  0.4608  0.3219 -0.0084
  913loPI    C112907   4.998   3.633   6.202 -0.0661 -0.0011 -0.0354
  913loPI    C212908   5.006   3.295   5.988  0.3022  0.0346 -0.0856
  913loPI    C312909   5.083   3.646   5.811 -0.0863  0.1501 -0.0354
  913loPI   PO412910   5.075   3.539   6.447  0.3038  0.1205  0.0163
  913loPI   GL112911   5.321   3.631   6.730  0.0124 -0.1527  0.1947
  913loPI   GL212912   5.551   3.850   6.756  0.1795  0.3506 -0.1043
  913loPI   C1A12913   5.043   3.755   7.080 -0.0384  0.1919 -0.0198
  913loPI   C2A12914   5.081   3.700   7.486  0.3168  0.0250  0.0926
  913loPI   C3A12915   5.008   3.775   7.936  0.1682  0.2468 -0.0361
  913loPI   C4A12916   4.991   3.616   8.460 -0.0601 -0.2672  0.2371
  913loPI   C5A12917   4.673   3.658   8.796 -0.2136 -0.2311  0.2061
  913loPI   C6A12918   4.387   3.943   9.054 -0.1922  0.2972  0.3715
  913loPI   C1B12919   5.557   3.920   7.182  0.0341  0.2338 -0.3228
  913loPI   C2B12920   5.589   3.849   7.579  0.1725 -0.2291 -0.1522
  913loPI   C3B12921   5.538   3.777   8.078  0.2297 -0.2108 -0.1485
  913loPI   C4B12922   5.526   3.958   8.505 -0.1037 -0.2303  0.1662
  914loPI    C112923   7.064   7.129   5.993 -0.3883 -0.1740 -0.0061
  914loPI    C212924   6.773   7.291   5.772 -0.1301 -0.0406 -0.2538
  914loPI    C312925   7.042   7.049   5.602 -0.0376 -0.0850 -0.0468
  914loPI   PO412926   6.987   7.015   6.166 -0.0107 -0.1009  0.0748
  914loPI   GL112927   7.134   6.872   6.511 -0.1934  0.2255 -0.1833
  914loPI   GL212928   6.998   7.140   6.665  0.3098  0.3185  0.2589
  914loPI   C1A12929   7.330   6.826   6.823  0.2849  0.2884  0.0133
  914loPI   C2A12930   7.300   6.768   7.260 -0.2938  0.3826  0.3505
  914loPI   C3A12931   7.202   6.774   7.689 -0.0676 -0.0671  0.4203
  914loPI   C4A12932   7.268   6.859   8.087  0.2503  0.3000  0.1806
  914loPI   C5A12933   7.496   7.019   8.464  0.0056 -0.1425 -0.1308
  914loPI   C6A12934   7.757   7.223   8.705  0.0902 -0.0134  0.1706
  914loPI   C1B12935   6.958   7.151   7.167 -0.0259 -0.1814 -0.0419
  914loPI   C2B12936   6.837   7.095   7.613 -0.1409 -0.0876 -0.3029
  914loPI   C3B12937   6.838   7.153   8.025 -0.0279  0.2169  0.1817
  914loPI   C4B12938   6.486   7.082   8.298 -0.1407 -0.2462 -0.0128
  915loPI    C112939   1.820  11.447   6.678 -0.0385  0.2010 -0.2203
  915loPI    C212940   1.907  11.204   6.984 -0.1273  0.0991 -0.2756
  915loPI    C312941   2.154  11.227   6.670 -0.1024  0.1048 -0.2555
  915loPI   PO412942   1.814  11.656   6.752 -0.1982 -0.0103  0.1143
  915loPI   GL112943   1.739  11.620   7.211  0.3446  0.0237  0.0439
  915loPI   GL212944   2.085  11.576   7.252  0.1452 -0.0956  0.1545
  915loPI   C1A12945   1.748  11.739   7.607 -0.5735 -0.1706  0.1927
  915loPI   C2A12946   1.527  11.721   7.925  0.2432 -0.1614 -0.1909
  915loPI   C3A12947   1.398  11.813   8.286  0.0124  0.0435  0.1851
  915loPI   C4A12948   1.312  11.958   8.621 -0.1519 -0.0189  0.0823
  915loPI   C5A12949   1.177  12.105   8.999 -0.2581 -0.1480  0.2620
  915loPI   C6A12950   0.774  12.213   9.148 -0.2113 -0.0095 -0.1095
  915loPI   C1B12951   2.071  11.385   7.635  0.1727  0.0854  0.0229
  915loPI   C2B12952   2.041  11.197   8.108  0.0649 -0.0566 -0.0590
  915loPI   C3B12953   2.035  11.347   8.584  0.1099 -0.0838 -0.0782
  915loPI   C4B12954   2.094  11.620   8.952 -0.1678 -0.2540  0.2039
  916loPI    C112955   0.354   4.938   5.845 -0.1198  0.0691 -0.0272
  916loPI    C212956   0.356   4.657   5.560  0.1893 -0.0127  0.0512
  916loPI    C312957   0.485   5.026   5.478 -0.0886  0.0725 -0.0152
  916loPI   PO412958   0.444   4.700   6.061  0.2008 -0.1080 -0.2415
  916loPI   GL112959   0.398   4.862   6.590 -0.1152  0.1094  0.5734
  916loPI   GL212960   0.448   4.495   6.699  0.0131 -0.0570  0.0039
  916loPI   C1A12961   0.346   5.018   6.983 -0.2400 -0.1763 -0.0141
  916loPI   C2A12962   0.515   5.015   7.383  0.0537  0.1660 -0.0662
  916loPI   C3A12963   0.618   4.900   7.816  0.2280  0.0962  0.1218
  916loPI   C4A12964   0.527   4.892   8.297 -0.0524  0.1433 -0.0543
  916loPI   C5A12965   0.529   4.642   8.677 -0.0030  0.1003  0.2613
  916loPI   C6A12966   0.311   4.177   8.887 -0.1304  0.1047  0.1492
  916loPI   C1B12967   0.423   4.428   7.174 -0.0867 -0.1429 -0.0035
  916loPI   C2B12968   0.359   4.359   7.581  0.3939 -0.3187  0.2387
  916loPI   C3B12969   0.405   4.461   7.934  0.1444 -0.2258  0.0396
  916loPI   C4B12970   0.458   4.322   8.300  0.1182 -0.0197 -0.1447
  917loPI    C112971  13.534  10.275   6.128  0.2117 -0.0985 -0.1408
  917loPI    C212972  13.804  10.442   5.885  0.1009 -0.0692 -0.2443
  917loPI    C312973  13.508  10.220   5.733 -0.2163  0.2942 -0.1760
  917loPI   PO412974  13.753  10.183   6.330  0.2002 -0.0161 -0.0344
  917loPI   GL112975  13.875  10.161   6.799 -0.1288  0.0787  0.1161
  917loPI   GL212976  13.732   9.859   6.887 -0.1642  0.2695 -0.0351
  917loPI   C1A12977  13.993  10.167   7.210  0.2858  0.2918 -0.0388
  917loPI   C2A12978  13.942  10.130   7.588  0.4208  0.2039 -0.0198
  917loPI   C3A12979  13.658  10.057   8.061 -0.0251 -0.3062  0.0583
  917loPI   C4A12980  13.588  10.147   8.427  0.0138  0.0205  0.1255
  917loPI   C5A12981  13.318  10.198   8.675 -0.2241  0.0197  0.1892
  917loPI   C6A12982  13.220  10.405   9.043 -0.0056  0.1549  0.1216
  917loPI   C1B12983  13.572   9.669   7.198 -0.0226 -0.1322  0.3473
  917loPI   C2B12984  13.649   9.704   7.625 -0.1206  0.2867  0.1038
  917loPI   C3B12985  13.604   9.534   8.056  0.0698  0.0339  0.1124
  917loPI   C4B12986  13.547   9.584   8.535  0.1877 -0.0594  0.1803
  918loPI    C112987  12.707  11.191   6.188  0.0350 -0.2105  0.0652
  918loPI    C212988  12.513  11.002   5.894  0.0767 -0.0308 -0.0790
  918loPI    C312989  12.909  11.051   5.873  0.0729  0.0278 -0.0182
  918loPI   PO412990  12.522  11.184   6.380  0.1002  0.0724 -0.0713
  918loPI   GL112991  12.683  11.021   6.798 -0.0055  0.3637  0.4097
  918loPI   GL212992  12.311  11.144   6.875 -0.2449 -0.1003 -0.1619
  918loPI   C1A12993  12.729  10.927   7.194  0.0010  0.0319 -0.1292
  918loPI   C2A12994  12.679  10.940   7.637  0.0671  0.1044  0.1046
  918loPI   C3A12995  12.561  10.732   8.052  0.5488  0.1489 -0.1020
  918loPI   C4A12996  12.533  10.558   8.452  0.1035  0.0191  0.1384
  918loPI   C5A12997  12.303  10.432   8.805  0.2190  0.1189  0.2098
  918loPI   C6A12998  12.241  10.372   9.172 -0.0302 -0.0603 -0.2034
  918loPI   C1B12999  12.229  11.098   7.202  0.2888  0.1317 -0.2203
  918loPI   C2B13000  12.209  11.057   7.694 -0.0905  0.2504 -0.0656
  918loPI   C3B13001  12.167  11.044   8.206  0.1065 -0.3401 -0.0480
  918loPI   C4B13002  12.023  11.212   8.547 -0.1986 -0.1185 -0.0479
  919loPI    C113003   1.139  15.926   6.732 -0.0033  0.1448  0.0738
  919loPI    C213004   0.942  16.101   6.431 -0.0700  0.0529  0.0639
  919loPI    C313005   0.984  15.703   6.439 -0.0901  0.0531  0.1887
  919loPI   PO413006   1.325  16.170   6.782 -0.1013  0.0052  0.0181
  919loPI   GL113007   1.310  16.522   6.943 -0.0867  0.2192 -0.0611
  919loPI   GL213008   1.441  16.764   7.143 -0.2849 -0.0359 -0.0679
  919loPI   C1A13009   1.047  16.454   7.373 -0.2469 -0.3148  0.0736
  919loPI   C2A13010   0.999  16.486   7.788  0.0402  0.1031 -0.1694
  919loPI   C3A13011   0.995  16.594   8.238 -0.2611 -0.0471  0.2135
  919loPI   C4A13012   0.803  16.654   8.688 -0.1215  0.2948 -0.3036
  919loPI   C5A13013   0.588  16.636   9.028 -0.1216  0.1884  0.0941
  919loPI   C6A13014   0.612  16.285   9.227  0.2350 -0.0980  0.1924
  919loPI   C1B13015   1.462  16.828   7.514 -0.0272  0.1344 -0.1377
  919loPI   C2B13016   1.274  16.877   7.938  0.0354  0.0265  0.1468
  919loPI   C3B13017   1.392  16.950   8.263 -0.3074  0.1417 -0.0015
  919loPI   C4B13018   1.349  16.683   8.620 -0.3331  0.1509 -0.0959
  920loPI    C113019  12.345   8.462   5.981 -0.0540  0.1417  0.0083
  920loPI    C213020  12.238   8.740   5.714  0.0948  0.1616 -0.0314
  920loPI    C313021  12.616   8.722   5.844  0.0216  0.1576  0.1850
  920loPI   PO413022  12.195   8.423   6.185  0.0142  0.1068 -0.0099
  920loPI   GL113023  12.003   8.605   6.503  0.2179  0.0645 -0.1327
  920loPI   GL213024  12.082   8.832   6.648  0.1160  0.0332  0.0384
  920loPI   C1A13025  11.958   8.317   6.778  0.1154  0.0273  0.2429
  920loPI   C2A13026  11.910   8.212   7.174 -0.1567  0.0257 -0.0133
  920loPI   C3A13027  11.924   8.240   7.589 -0.2575 -0.0694 -0.1637
  920loPI   C4A13028  11.802   8.115   7.980 -0.2434 -0.1528 -0.0170
  920loPI   C5A13029  11.823   8.148   8.383  0.1164  0.1866  0.1658
  920loPI   C6A13030  11.548   8.141   8.772  0.0845  0.0943  0.0680
  920loPI   C1B13031  11.979   8.770   7.021  0.0318  0.0602  0.3136
  920loPI   C2B13032  12.142   8.687   7.437 -0.2270  0.1331 -0.2293
  920loPI   C3B13033  12.032   8.713   7.859 -0.0742  0.1539 -0.4235
  920loPI   C4B13034  12.020   8.587   8.352 -0.2144  0.2348  0.1591
  921loPI    C113035  10.643   0.085   5.697 -0.1131 -0.0445  0.0579
  921loPI    C213036  10.602  -0.085   5.338 -0.0738 -0.1535  0.1046
  921loPI    C313037  10.945   0.095   5.435 -0.0780 -0.1401  0.0943
  921loPI   PO413038  10.582  -0.114   5.859  0.1346  0.2571 -0.1803
  921loPI   GL113039  10.322  -0.027   6.271 -0.0740  0.1570 -0.1522
  921loPI   GL213040  10.229  -0.252   6.163  0.0319  0.0616 -0.1172
  921loPI   C1A13041  10.108  -0.020   6.636 -0.0849 -0.0365 -0.1593
  921loPI   C2A13042  10.171   0.083   7.071  0.2116 -0.1747 -0.0330
  921loPI   C3A13043  10.251   0.084   7.509  0.1779  0.2573 -0.0051
  921loPI   C4A13044  10.307   0.082   7.862  0.2476  0.0408 -0.0847
  921loPI   C5A13045  10.383   0.106   8.332 -0.0418 -0.1914 -0.0159
  921loPI   C6A13046  10.240   0.055   8.758 -0.4958  0.0353  0.1351
  921loPI   C1B13047  10.532  -0.367   6.519  0.0159 -0.0539 -0.2451
  921loPI   C2B13048  10.593  -0.264   6.930  0.0965 -0.2529 -0.0257
  921loPI   C3B13049  10.624  -0.346   7.386 -0.2738 -0.4280  0.1932
  921loPI   C4B13050  10.712  -0.197   7.871  0.1134 -0.3989 -0.0432
  922loPI    C113051   5.015   4.364   6.331  0.2060 -0.0089 -0.1077
  922loPI    C213052   4.957   4.102   6.035 -0.0228  0.1175 -0.1771
  922loPI    C313053   5.056   4.480   5.950  0.0056  0.1302 -0.0881
  922loPI   PO413054   4.860   4.521   6.543 -0.2731 -0.0351 -0.0682
  922loPI   GL113055   5.042   4.772   6.856  0.0864 -0.1911  0.0918
  922loPI   GL213056   4.912   5.099   6.759 -0.0631 -0.1679  0.0157
  922loPI   C1A13057   5.235   4.795   7.330  0.1314  0.0374  0.0954
  922loPI   C2A13058   5.248   4.757   7.823  0.0895 -0.0500 -0.0983
  922loPI   C3A13059   5.371   4.770   8.207 -0.2672  0.1330 -0.1896
  922loPI   C4A13060   5.373   5.212   8.378 -0.1271 -0.0351  0.1684
  922loPI   C5A13061   5.462   5.654   8.581 -0.1648  0.3081 -0.4737
  922loPI   C6A13062   5.546   6.080   8.764 -0.2298 -0.0134 -0.1195
  922loPI   C1B13063   4.898   5.102   7.199 -0.2321  0.0635 -0.1261
  922loPI   C2B13064   4.853   5.091   7.679  0.3989  0.1560  0.0583
  922loPI   C3B13065   4.870   5.055   8.072 -0.0068 -0.0506  0.1429
  922loPI   C4B13066   4.875   5.063   8.508 -0.1087 -0.1532 -0.1774
  923loPI    C113067   5.122   9.693   6.424 -0.1770 -0.1221 -0.0786
  923loPI    C213068   5.120   9.362   6.648  0.1728 -0.0341  0.0619
  923loPI    C313069   5.115   9.334   6.249  0.2185 -0.2081  0.0731
  923loPI   PO413070   5.249   9.872   6.624  0.0220 -0.1736  0.0532
  923loPI   GL113071   5.574   9.588   6.873  0.3324  0.0654  0.2918
  923loPI   GL213072   5.706   9.852   6.977 -0.1962  0.2527 -0.1916
  923loPI   C1A13073   5.579   9.292   7.210 -0.1176 -0.0052  0.1296
  923loPI   C2A13074   5.664   9.239   7.654  0.0481 -0.1897  0.2104
  923loPI   C3A13075   5.592   9.249   8.018 -0.1346  0.0191 -0.1653
  923loPI   C4A13076   5.691   9.657   8.292 -0.2199  0.0880  0.0995
  923loPI   C5A13077   5.702   9.755   8.645  0.3169  0.1843  0.0638
  923loPI   C6A13078   5.415   9.517   8.980 -0.0502 -0.1043  0.0737
  923loPI   C1B13079   5.729   9.729   7.458  0.2263  0.1305 -0.0569
  923loPI   C2B13080   5.850   9.739   7.860 -0.0011  0.0029  0.2088
  923loPI   C3B13081   6.167   9.715   8.096  0.2020  0.2892 -0.0945
  923loPI   C4B13082   6.183   9.784   8.561  0.0925  0.0238  0.2894
  924loPI    C113083   6.328  14.016   6.504  0.0361 -0.1342 -0.1059
  924loPI    C213084   6.473  14.386   6.549  0.0397 -0.1467 -0.0123
  924loPI    C313085   6.430  14.231   6.182 -0.1281  0.0123 -0.0609
  924loPI   PO413086   6.494  13.890   6.628  0.1066 -0.1618 -0.1410
  924loPI   GL113087   6.525  13.991   7.091  0.2948 -0.1697  0.1723
  924loPI   GL213088   6.551  14.396   7.091 -0.0360 -0.0835 -0.2893
  924loPI   C1A13089   6.413  13.804   7.494  0.0542 -0.1867  0.1160
  924loPI   C2A13090   6.450  13.836   7.983  0.1390  0.0236  0.2257
  924loPI   C3A13091   6.398  13.996   8.370 -0.1914 -0.1828  0.1621
  924loPI   C4A13092   6.273  13.940   8.745 -0.1147 -0.3133 -0.2946
  924loPI   C5A13093   6.177  14.165   9.121 -0.1159 -0.4477 -0.0441
  924loPI   C6A13094   5.866  14.400   9.309 -0.0937  0.2179 -0.0131
  924loPI   C1B13095   6.808  14.262   7.433 -0.4744  0.0121  0.1037
  924loPI   C2B13096   6.802  14.361   7.764 -0.1334  0.0996 -0.0906
  924loPI   C3B13097   6.765  14.374   8.221  0.0968  0.3835 -0.2863
  924loPI   C4B13098   6.717  14.308   8.599  0.2565 -0.0118  0.1589
  925loPI    C113099   1.761   1.127   6.658 -0.3838 -0.0260 -0.3485
  925loPI    C213100   1.855   0.965   6.305  0.0178 -0.1637 -0.1836
  925loPI    C313101   1.569   0.800   6.531 -0.1477 -0.1534 -0.3826
  925loPI   PO413102   1.950   1.125   6.810 -0.0507  0.2123  0.0117
  925loPI   GL113103   1.799   1.533   7.090 -0.2612  0.2180 -0.2078
  925loPI   GL213104   1.569   1.246   7.093 -0.0138  0.0647  0.0077
  925loPI   C1A13105   1.649   1.818   7.339 -0.2986 -0.0165 -0.0519
  925loPI   C2A13106   1.605   1.916   7.767 -0.2867 -0.1116 -0.0406
  925loPI   C3A13107   1.642   1.874   8.211 -0.0421  0.0465  0.0481
  925loPI   C4A13108   1.659   1.668   8.605 -0.0492  0.1519 -0.1425
  925loPI   C5A13109   1.737   1.603   9.043  0.2698 -0.0835  0.0986
  925loPI   C6A13110   1.472   1.475   9.309 -0.1554 -0.1792  0.3487
  925loPI   C1B13111   1.554   1.362   7.478  0.3236 -0.0373  0.0519
  925loPI   C2B13112   1.508   1.400   7.865 -0.1827 -0.0913  0.0840
  925loPI   C3B13113   1.404   1.400   8.324 -0.0877 -0.0022  0.0028
  925loPI   C4B13114   1.495   1.236   8.846 -0.1197 -0.0289  0.0101
  926loPI    C113115   3.350  12.152   6.829 -0.2375 -0.1002 -0.0305
  926loPI    C213116   3.546  12.095   6.485 -0.2358  0.0432 -0.0539
  926loPI    C313117   3.264  11.837   6.599 -0.1657 -0.0601 -0.1131
  926loPI   PO413118   3.651  12.156   7.001  0.0813 -0.2643  0.0718
  926loPI   GL113119   3.813  12.383   7.310  0.3221 -0.4167 -0.0708
  926loPI   GL213120   3.482  12.569   7.353 -0.1802 -0.1762  0.0257
  926loPI   C1A13121   3.770  12.369   7.714 -0.4083  0.1395 -0.3023
  926loPI   C2A13122   3.561  12.281   8.034  0.4221 -0.1214 -0.1925
  926loPI   C3A13123   3.236  12.207   8.374 -0.1380 -0.0055  0.1460
  926loPI   C4A13124   3.164  12.157   8.827  0.1001 -0.0775 -0.0676
  926loPI   C5A13125   3.318  11.771   9.016  0.1266 -0.3989  0.0507
  926loPI   C6A13126   3.597  11.434   9.079 -0.2248 -0.1832 -0.0371
  926loPI   C1B13127   3.183  12.545   7.679  0.1602 -0.1140  0.0664
  926loPI   C2B13128   3.167  12.573   8.069 -0.1148  0.0240  0.1531
  926loPI   C3B13129   3.065  12.629   8.511 -0.2881 -0.0810  0.0655
  926loPI   C4B13130   2.998  12.668   8.901 -0.1574  0.0634 -0.0729
  927loPI    C113131   6.395  12.149   6.618 -0.0906 -0.0289 -0.0454
  927loPI    C213132   6.588  12.032   6.288 -0.0614  0.2087 -0.1147
  927loPI    C313133   6.193  12.093   6.278 -0.1328 -0.2035  0.0076
  927loPI   PO413134   6.506  12.321   6.750  0.0874  0.1674  0.1334
  927loPI   GL113135   6.555  12.494   7.027 -0.0562  0.1549  0.0607
  927loPI   GL213136   6.276  12.611   7.267  0.0762  0.0253  0.1859
  927loPI   C1A13137   6.686  12.349   7.425  0.0030  0.0329  0.3068
  927loPI   C2A13138   6.693  12.334   7.889 -0.1132  0.0343  0.0451
  927loPI   C3A13139   7.002  12.285   8.230 -0.2375  0.0385  0.2593
  927loPI   C4A13140   7.151  12.221   8.595 -0.0685 -0.1650  0.1903
  927loPI   C5A13141   7.405  11.965   8.816  0.0436  0.2072 -0.2460
  927loPI   C6A13142   7.452  11.737   9.242 -0.2442  0.1137  0.1215
  927loPI   C1B13143   6.284  12.524   7.687 -0.0885  0.0098  0.1374
  927loPI   C2B13144   6.345  12.661   8.117 -0.1623 -0.0896 -0.0279
  927loPI   C3B13145   6.474  12.737   8.600 -0.0506  0.0081 -0.1632
  927loPI   C4B13146   6.515  12.819   9.020 -0.0157  0.1611  0.2540
  928loPI    C113147  10.310  16.221   5.461 -0.0557  0.0272 -0.0889
  928loPI    C213148  10.138  16.472   5.201 -0.0193 -0.2170 -0.3540
  928loPI    C313149  10.021  16.090   5.218 -0.3492 -0.1020  0.3186
  928loPI   PO413150  10.236  16.163   5.771 -0.0998 -0.1067  0.2493
  928loPI   GL113151   9.880  16.199   6.223  0.1714  0.1687  0.1381
  928loPI   GL213152  10.007  15.942   6.365 -0.3367  0.0077  0.0683
  928loPI   C1A13153   9.975  16.518   6.378  0.1326  0.3400 -0.1138
  928loPI   C2A13154  10.123  16.678   6.787  0.0534  0.0144 -0.1301
  928loPI   C3A13155  10.148  16.759   7.286 -0.2232  0.0717  0.1656
  928loPI   C4A13156  10.209  16.745   7.732 -0.0287  0.0438  0.0741
  928loPI   C5A13157  10.278  16.830   8.110 -0.1812  0.1738  0.2134
  928loPI   C6A13158  10.649  16.789   8.339 -0.1918  0.3191 -0.0887
  928loPI   C1B13159   9.990  16.192   6.779  0.0130 -0.2316  0.1196
  928loPI   C2B13160  10.040  16.215   7.198 -0.1893  0.2146 -0.1806
  928loPI   C3B13161  10.077  16.284   7.706  0.0788  0.0968  0.0495
  928loPI   C4B13162  10.095  16.271   8.120  0.1809 -0.0388 -0.1996
  929loPI    C113163   8.694   2.045   5.982  0.2397  0.0756 -0.1185
  929loPI    C213164   8.429   2.162   5.706  0.1844 -0.0350 -0.1129
  929loPI    C313165   8.588   1.796   5.688  0.2408 -0.0141 -0.0433
  929loPI   PO413166   8.617   2.114   6.178 -0.1353  0.1109  0.2176
  929loPI   GL113167   8.371   2.024   6.505  0.1640 -0.0985  0.1042
  929loPI   GL213168   8.189   2.270   6.554  0.1514 -0.0714 -0.2453
  929loPI   C1A13169   8.478   1.897   6.987  0.0227  0.0005 -0.0517
  929loPI   C2A13170   8.352   1.865   7.394  0.2250  0.2224 -0.2278
  929loPI   C3A13171   8.473   1.996   7.783 -0.3243 -0.1172 -0.0062
  929loPI   C4A13172   8.549   1.975   8.311  0.0558  0.2888 -0.0553
  929loPI   C5A13173   8.290   1.854   8.647  0.2545 -0.3765 -0.0010
  929loPI   C6A13174   8.226   1.529   8.868  0.3765  0.3168  0.3684
  929loPI   C1B13175   8.107   2.273   7.048  0.1350 -0.0402 -0.0566
  929loPI   C2B13176   8.105   2.247   7.593  0.2403  0.2108  0.1423
  929loPI   C3B13177   8.011   2.291   8.037  0.1608 -0.1326 -0.0958
  929loPI   C4B13178   8.074   2.331   8.490  0.3396 -0.0620  0.0529
  930loPI    C113179   9.529   3.783   5.868  0.1069 -0.1083 -0.1896
  930loPI    C213180   9.710   3.554   5.594  0.1044 -0.0474 -0.2421
  930loPI    C313181   9.684   3.950   5.539  0.0966 -0.0360 -0.1580
  930loPI   PO413182   9.632   3.780   6.064  0.3695  0.0975 -0.1542
  930loPI   GL113183   9.400   3.964   6.452  0.1735 -0.1608 -0.1755
  930loPI   GL213184   9.291   4.212   6.571 -0.0109  0.1000 -0.1135
  930loPI   C1A13185   9.698   3.761   6.704  0.2519 -0.1035  0.1623
  930loPI   C2A13186   9.774   3.730   7.241  0.1688  0.0212  0.0416
  930loPI   C3A13187   9.751   3.749   7.642 -0.5140  0.1662 -0.1944
  930loPI   C4A13188   9.883   3.673   8.003 -0.0921  0.1307  0.1916
  930loPI   C5A13189  10.108   3.821   8.443  0.2247 -0.1478  0.1289
  930loPI   C6A13190  10.205   3.774   8.847 -0.0406 -0.0963  0.0736
  930loPI   C1B13191   9.343   4.044   6.968  0.1868  0.2412 -0.0614
  930loPI   C2B13192   9.364   3.989   7.437  0.1869 -0.0680 -0.0391
  930loPI   C3B13193   9.406   4.100   7.918 -0.1177  0.0204 -0.0603
  930loPI   C4B13194   9.631   3.987   8.300 -0.1315  0.2701  0.0582
  931loPI    C113195  16.969  16.604   6.574 -0.0876 -0.1739  0.2512
  931loPI    C213196  16.630  16.676   6.374 -0.1087 -0.1329  0.3016
  931loPI    C313197  16.980  16.800   6.226 -0.0893 -0.3817  0.1326
  931loPI   PO413198  16.939  16.650   6.829 -0.1723 -0.1891 -0.1710
  931loPI   GL113199  17.149  16.845   7.223 -0.1281 -0.4759 -0.2604
  931loPI   GL213200  16.961  17.111   7.105 -0.1160  0.0584  0.0487
  931loPI   C1A13201  16.765  16.815   7.507 -0.0818 -0.1152  0.1353
  931loPI   C2A13202  16.710  16.880   7.897 -0.2288 -0.2385 -0.0690
  931loPI   C3A13203  16.877  16.925   8.343 -0.1525 -0.1611  0.2457
  931loPI   C4A13204  16.845  16.888   8.766  0.1749  0.3038  0.0631
  931loPI   C5A13205  16.845  17.183   9.054  0.0258  0.2216  0.2595
  931loPI   C6A13206  17.089  17.468   9.171  0.1649  0.0444  0.2918
  931loPI   C1B13207  16.950  17.295   7.549  0.0829  0.1040 -0.0700
  931loPI   C2B13208  16.805  17.368   7.996  0.2261  0.5265 -0.0489
  931loPI   C3B13209  16.969  17.610   8.389  0.1044 -0.2998  0.1238
  931loPI   C4B13210  16.846  17.700   8.782  0.0870  0.0813 -0.2906
  932loPI    C113211  13.071  11.898   6.140 -0.1314  0.0073 -0.1435
  932loPI    C213212  13.396  12.109   6.045 -0.2280  0.0525 -0.3799
  932loPI    C313213  13.043  12.293   6.084 -0.1419  0.0868  0.3734
  932loPI   PO413214  13.180  11.742   6.338  0.1888  0.1018  0.0423
  932loPI   GL113215  13.025  11.914   6.630  0.0762  0.1196 -0.0554
  932loPI   GL213216  13.117  12.264   6.571 -0.0428 -0.2794  0.2420
  932loPI   C1A13217  12.919  11.797   7.043  0.0573 -0.0914 -0.1974
  932loPI   C2A13218  12.856  11.758   7.483 -0.1080  0.0502  0.0468
  932loPI   C3A13219  12.763  11.770   7.913  0.2640 -0.0123 -0.1517
  932loPI   C4A13220  12.358  11.701   8.049  0.2011  0.4949  0.3013
  932loPI   C5A13221  12.208  11.621   8.344  0.1364  0.0598  0.1510
  932loPI   C6A13222  11.838  11.697   8.720  0.4586  0.1906  0.1786
  932loPI   C1B13223  13.095  12.394   6.950  0.0382  0.2299  0.1049
  932loPI   C2B13224  13.050  12.296   7.306 -0.0672 -0.1056 -0.4064
  932loPI   C3B13225  12.929  12.238   7.761 -0.1276 -0.0680  0.3680
  932loPI   C4B13226  12.846  12.251   8.184  0.2018 -0.0128 -0.0581
  933loPI    C113227  11.949  16.234   5.930 -0.1437 -0.1197  0.0048
  933loPI    C213228  11.791  16.294   5.568 -0.0738  0.1056  0.0098
  933loPI    C313229  12.187  16.262   5.610 -0.1021 -0.2797  0.0210
  933loPI   PO413230  11.663  16.184   6.086  0.1074  0.0234  0.0610
  933loPI   GL113231  11.549  16.138   6.468 -0.1116  0.0673 -0.0356
  933loPI   GL213232  11.603  15.785   6.412 -0.0174  0.2217 -0.1231
  933loPI   C1A13233  11.415  16.131   6.775 -0.2599  0.0188  0.0718
  933loPI   C2A13234  11.485  16.074   7.129  0.0568  0.1537  0.2349
  933loPI   C3A13235  11.384  16.137   7.472 -0.1823 -0.1870  0.0415
  933loPI   C4A13236  11.388  16.295   7.911 -0.1599  0.1182 -0.0780
  933loPI   C5A13237  11.548  16.398   8.367  0.1328  0.0824 -0.0839
  933loPI   C6A13238  11.569  16.871   8.465  0.5170  0.2378  0.3448
  933loPI   C1B13239  11.450  15.605   6.893 -0.0856  0.0749 -0.1890
  933loPI   C2B13240  11.382  15.566   7.301 -0.2033 -0.0536  0.2265
  933loPI   C3B13241  11.329  15.727   7.698 -0.1154 -0.1576 -0.1871
  933loPI   C4B13242  11.403  15.763   8.127 -0.1998 -0.0736  0.3278
  934loPI    C113243   2.650   3.736   6.324 -0.0442  0.0491 -0.1394
  934loPI    C213244   2.345   3.588   6.112  0.0394 -0.1660 -0.1116
  934loPI    C313245   2.715   3.589   5.958  0.0279  0.0847 -0.1412
  934loPI   PO413246   2.461   3.909   6.558 -0.1693 -0.1666  0.2377
  934loPI   GL113247   2.587   4.064   6.946  0.0873  0.3018 -0.3162
  934loPI   GL213248   2.704   3.738   6.980 -0.3130  0.0234 -0.1200
  934loPI   C1A13249   2.705   4.062   7.395 -0.3061  0.3605  0.0959
  934loPI   C2A13250   2.649   4.006   7.764 -0.2706 -0.1702 -0.2651
  934loPI   C3A13251   2.628   4.120   8.187  0.0516  0.2524  0.0219
  934loPI   C4A13252   2.410   4.221   8.575 -0.0651  0.1031 -0.1415
  934loPI   C5A13253   2.235   4.576   8.770 -0.0512 -0.2596  0.3716
  934loPI   C6A13254   2.096   4.586   9.249  0.1835  0.3472 -0.0182
  934loPI   C1B13255   2.685   3.556   7.417  0.1722 -0.3982  0.1616
  934loPI   C2B13256   2.608   3.517   7.764  0.1426  0.0803 -0.1896
  934loPI   C3B13257   2.485   3.567   8.182 -0.0680  0.1320 -0.0906
  934loPI   C4B13258   2.417   3.498   8.577 -0.0066  0.1695  0.0315
  935loPI    C113259  16.116  12.896   6.540 -0.2200  0.0707  0.2691
  935loPI    C213260  16.301  13.249   6.519 -0.0379 -0.0305  0.1394
  935loPI    C313261  16.006  13.163   6.264  0.1989 -0.1304 -0.1054
  935loPI   PO413262  16.090  12.841   6.833  0.3203 -0.1721  0.0735
  935loPI   GL113263  16.061  12.850   7.251 -0.1220 -0.1845  0.2542
  935loPI   GL213264  15.850  12.745   7.300  0.0362  0.0414 -0.1168
  935loPI   C1A13265  16.373  12.907   7.557 -0.1386  0.1272 -0.0500
  935loPI   C2A13266  16.322  12.982   8.005  0.2563 -0.1461  0.0294
  935loPI   C3A13267  16.232  13.122   8.502  0.2957  0.2123 -0.1010
  935loPI   C4A13268  15.845  13.198   8.897 -0.0895 -0.0098  0.0179
  935loPI   C5A13269  15.652  13.542   9.031  0.1195  0.1586  0.1017
  935loPI   C6A13270  15.807  13.821   9.091  0.1865  0.1149 -0.3840
  935loPI   C1B13271  15.901  12.637   7.709 -0.1519 -0.1315  0.2053
  935loPI   C2B13272  16.006  12.509   8.066  0.1021  0.2650 -0.0951
  935loPI   C3B13273  16.160  12.542   8.453  0.1664 -0.1349 -0.1205
  935loPI   C4B13274  16.195  12.704   8.879 -0.0267  0.1864  0.1518
  936loPI    C113275   0.452  16.186   6.673 -0.0520  0.0097 -0.0763
  936loPI    C213276   0.535  16.407   6.351  0.1069  0.0788  0.0110
  936loPI    C313277   0.426  16.025   6.308  0.2147  0.0620 -0.1207
  936loPI   PO413278   0.253  16.357   6.772 -0.2385  0.1036  0.0427
  936loPI   GL113279   0.181  16.404   7.102 -0.0707  0.1666 -0.1849
  936loPI   GL213280   0.071  16.019   7.263  0.0516 -0.1817 -0.4538
  936loPI   C1A13281   0.139  16.454   7.490 -0.0782 -0.2027 -0.3298
  936loPI   C2A13282  -0.065  16.573   7.866  0.0911 -0.2560 -0.0597
  936loPI   C3A13283   0.033  16.569   8.234 -0.1067  0.1656 -0.0276
  936loPI   C4A13284   0.126  16.729   8.607 -0.0458 -0.2401 -0.1051
  936loPI   C5A13285   0.112  16.883   9.030  0.0740 -0.1685  0.2033
  936loPI   C6A13286   0.346  17.223   9.223  0.1746  0.5060 -0.1670
  936loPI   C1B13287  -0.007  16.029   7.627 -0.0063  0.0491  0.1123
  936loPI   C2B13288   0.100  16.053   8.038  0.2077  0.1698 -0.1366
  936loPI   C3B13289   0.021  16.173   8.511  0.0828  0.1687  0.4255
  936loPI   C4B13290  -0.126  16.348   8.900  0.2110 -0.2862 -0.2153
  937loPI    C113291  13.664   9.491   5.963  0.1885  0.1913  0.1276
  937loPI    C213292  13.832   9.852   5.925 -0.1395  0.3241 -0.1029
  937loPI    C313293  13.436   9.819   5.971 -0.0925  0.0003  0.1024
  937loPI   PO413294  13.639   9.375   6.197 -0.1838 -0.1161  0.1223
  937loPI   GL113295  13.598   9.429   6.679  0.1795 -0.1930 -0.1633
  937loPI   GL213296  13.254   9.407   6.571  0.2855  0.3276 -0.1130
  937loPI   C1A13297  13.530   9.219   6.987  0.3330 -0.1331  0.0093
  937loPI   C2A13298  13.574   9.171   7.360 -0.3626  0.2357 -0.0096
  937loPI   C3A13299  13.477   9.120   7.727  0.0988 -0.0270  0.0195
  937loPI   C4A13300  13.494   9.067   8.125  0.0734 -0.0806  0.1793
  937loPI   C5A13301  13.902   9.211   8.344  0.1196  0.2913  0.0338
  937loPI   C6A13302  14.255   8.937   8.581  0.0571 -0.0259 -0.4659
  937loPI   C1B13303  13.095   9.547   7.005  0.1308  0.2800 -0.0027
  937loPI   C2B13304  13.214   9.474   7.517 -0.2745  0.2783 -0.0609
  937loPI   C3B13305  13.114   9.478   7.872  0.0183  0.0644 -0.2668
  937loPI   C4B13306  13.126   9.360   8.261  0.2558 -0.0305  0.1547
  938loPI    C113307  15.936  11.775   6.701 -0.0464  0.1548 -0.0210
  938loPI    C213308  16.204  11.873   6.421 -0.1048  0.0836 -0.1024
  938loPI    C313309  15.814  11.882   6.335 -0.1203  0.0064 -0.0403
  938loPI   PO413310  15.969  11.918   6.917  0.1803  0.2622 -0.1651
  938loPI   GL113311  16.126  12.043   7.239 -0.4644 -0.0039  0.3891
  938loPI   GL213312  16.017  12.257   7.434 -0.1057 -0.0099  0.0972
  938loPI   C1A13313  15.985  11.775   7.554  0.2817  0.0671  0.2310
  938loPI   C2A13314  15.811  11.729   7.974 -0.1437  0.2934  0.0931
  938loPI   C3A13315  15.599  11.732   8.333 -0.0076  0.0980 -0.2466
  938loPI   C4A13316  15.506  11.516   8.551  0.1183 -0.0906 -0.0064
  938loPI   C5A13317  15.355  11.455   8.935 -0.0306 -0.1301  0.2720
  938loPI   C6A13318  15.104  11.551   9.225  0.0585 -0.1281  0.0994
  938loPI   C1B13319  15.737  12.160   7.811 -0.1958  0.0438 -0.0472
  938loPI   C2B13320  15.651  12.197   8.185  0.2811 -0.1691  0.2449
  938loPI   C3B13321  15.566  12.260   8.624 -0.1862  0.0163  0.0661
  938loPI   C4B13322  15.787  12.415   8.922 -0.2310 -0.2770  0.2277
  939loPI    C113323  16.420  16.286   6.639  0.0096 -0.0339 -0.1535
  939loPI    C213324  16.614  15.981   6.468  0.0206 -0.1194  0.0087
  939loPI    C313325  16.262  16.102   6.321  0.2108  0.0595 -0.3095
  939loPI   PO413326  16.422  16.254   6.850  0.3232 -0.2355 -0.1069
  939loPI   GL113327  16.151  16.285   7.123  0.0045 -0.2975  0.0531
  939loPI   GL213328  16.238  16.538   7.273 -0.0602  0.3163  0.0162
  939loPI   C1A13329  16.175  16.193   7.605 -0.0189 -0.2047 -0.0659
  939loPI   C2A13330  16.151  16.236   8.053 -0.0955  0.0828  0.0537
  939loPI   C3A13331  16.105  16.326   8.465  0.2785  0.0051  0.2157
  939loPI   C4A13332  16.042  16.355   8.850 -0.1660  0.2085 -0.3824
  939loPI   C5A13333  16.296  16.289   9.193 -0.0047  0.1835  0.1589
  939loPI   C6A13334  16.739  16.211   9.273  0.0852 -0.1164 -0.0513
  939loPI   C1B13335  16.254  16.792   7.602  0.0806  0.2407  0.2562
  939loPI   C2B13336  16.280  16.702   8.025 -0.1828 -0.1898 -0.0159
  939loPI   C3B13337  16.450  16.644   8.437 -0.0225  0.1008 -0.1566
  939loPI   C4B13338  16.791  16.457   8.491 -0.0741  0.0992  0.1182
  940loPI    C113339   5.500   3.487   6.131  0.0635  0.1631 -0.0945
  940loPI    C213340   5.566   3.786   5.874  0.0583  0.1145 -0.1528
  940loPI    C313341   5.592   3.407   5.750  0.1577  0.0891 -0.0569
  940loPI   PO413342   5.666   3.596   6.367 -0.1859 -0.0698 -0.0493
  940loPI   GL113343   5.799   3.423   6.874  0.1817 -0.4051  0.0154
  940loPI   GL213344   6.096   3.373   6.947 -0.0850  0.2041  0.3347
  940loPI   C1A13345   5.498   3.406   7.126 -0.0043 -0.0905 -0.0323
  940loPI   C2A13346   5.424   3.263   7.596 -0.1101  0.0504 -0.2153
  940loPI   C3A13347   5.310   3.255   7.997 -0.0413 -0.0564 -0.0081
  940loPI   C4A13348   5.447   3.436   8.494  0.1294 -0.0366  0.2334
  940loPI   C5A13349   5.624   3.308   8.919 -0.4292  0.2238  0.1424
  940loPI   C6A13350   5.954   2.875   9.022  0.2831 -0.1864  0.1186
  940loPI   C1B13351   5.939   3.478   7.358  0.0296 -0.2142 -0.1671
  940loPI   C2B13352   5.904   3.512   7.857  0.2511 -0.1556  0.3001
  940loPI   C3B13353   5.945   3.586   8.361  0.0241 -0.0858 -0.2337
  940loPI   C4B13354   5.845   3.719   8.801  0.1324 -0.2931 -0.1137
  941loPI    C113355   9.107  15.857   5.779 -0.1258 -0.0844 -0.0668
  941loPI    C213356   8.923  15.550   5.599 -0.1359 -0.1035 -0.0241
  941loPI    C313357   9.182  15.777   5.394 -0.2470 -0.0440 -0.0992
  941loPI   PO413358   9.094  15.741   6.173  0.0608  0.0111 -0.3389
  941loPI   GL113359   9.318  15.785   6.601 -0.0287 -0.0704  0.2827
  941loPI   GL213360   9.490  16.050   6.518  0.0342 -0.0227  0.3364
  941loPI   C1A13361   9.404  15.650   7.069  0.0861 -0.0722 -0.0958
  941loPI   C2A13362   9.453  15.575   7.509 -0.0172  0.1937  0.0180
  941loPI   C3A13363   9.481  15.526   7.973  0.1437 -0.5094  0.0259
  941loPI   C4A13364   9.466  15.205   8.319 -0.2895 -0.0436 -0.0085
  941loPI   C5A13365   9.773  15.120   8.659  0.0318 -0.0040 -0.1922
  941loPI   C6A13366   9.964  15.371   8.987  0.1036 -0.5054  0.0045
  941loPI   C1B13367   9.462  16.136   6.935 -0.1232  0.3285  0.1811
  941loPI   C2B13368   9.616  16.081   7.446  0.1415 -0.0240 -0.1081
  941loPI   C3B13369   9.629  16.086   7.922  0.2065 -0.0638  0.1657
  941loPI   C4B13370   9.592  16.181   8.329  0.5989 -0.0455  0.0400
  942loPI    C113371   4.231  14.559   6.783 -0.1898 -0.1036  0.0306
  942loPI    C213372   4.367  14.701   6.435  0.0208  0.1654  0.2183
  942loPI    C313373   4.473  14.335   6.557 -0.0281  0.0825  0.0162
  942loPI   PO413374   4.009  14.609   6.870  0.4491 -0.1886 -0.2365
  942loPI   GL113375   3.916  14.784   7.270 -0.2113 -0.0250 -0.3632
  942loPI   GL213376   4.192  14.942   7.510 -0.1198 -0.0596 -0.0213
  942loPI   C1A13377   3.966  14.474   7.586  0.0277 -0.0401 -0.2284
  942loPI   C2A13378   3.930  14.473   8.030 -0.0702 -0.2449 -0.2365
  942loPI   C3A13379   3.689  14.477   8.501  0.1161  0.1877  0.1876
  942loPI   C4A13380   3.550  14.278   8.837 -0.1202 -0.0092  0.0739
  942loPI   C5A13381   3.442  13.916   9.048 -0.2057 -0.2868 -0.1331
  942loPI   C6A13382   2.971  13.657   9.163  0.0056  0.0807  0.1395
  942loPI   C1B13383   4.153  14.997   8.013  0.0807  0.4927  0.3090
  942loPI   C2B13384   4.022  14.893   8.461 -0.0877  0.1154 -0.1169
  942loPI   C3B13385   3.860  15.018   8.793  0.2028 -0.3454 -0.2161
  942loPI   C4B13386   3.995  15.137   9.293  0.1237  0.0585  0.0483
  943loPI    C113387   8.969   3.940   5.872  0.0728 -0.2073 -0.2905
  943loPI    C213388   9.236   4.118   5.634  0.0253  0.1728 -0.0678
  943loPI    C313389   8.868   4.271   5.672 -0.0952 -0.1143 -0.0572
  943loPI   PO413390   9.057   3.847   6.081 -0.1897 -0.0414  0.1155
  943loPI   GL113391   8.946   3.681   6.398  0.2393 -0.2095 -0.2155
  943loPI   GL213392   8.885   3.911   6.633  0.1022 -0.1579  0.3014
  943loPI   C1A13393   9.213   3.603   6.767 -0.0074  0.1622  0.3214
  943loPI   C2A13394   9.215   3.548   7.188  0.1685  0.0278 -0.0468
  943loPI   C3A13395   9.207   3.589   7.664 -0.1640  0.1059 -0.2537
  943loPI   C4A13396   9.364   3.592   8.067  0.2295 -0.1877  0.0114
  943loPI   C5A13397   9.157   3.857   8.400 -0.0230  0.2823 -0.2341
  943loPI   C6A13398   9.029   4.135   8.792  0.1843  0.0241 -0.0753
  943loPI   C1B13399   8.813   3.866   7.045 -0.2855 -0.0566 -0.1854
  943loPI   C2B13400   8.808   3.892   7.416 -0.1018 -0.1109  0.1550
  943loPI   C3B13401   8.930   3.969   7.831  0.0232  0.1970  0.3175
  943loPI   C4B13402   8.861   4.195   8.159  0.0736 -0.1440  0.1122
  944loPI    C113403  11.830   6.595   6.007  0.0054 -0.0488 -0.1817
  944loPI    C213404  11.679   6.922   5.832 -0.2138 -0.0269  0.0441
  944loPI    C313405  12.075   6.880   5.868 -0.1788  0.1356 -0.1345
  944loPI   PO413406  11.668   6.586   6.274  0.0791  0.0309  0.1270
  944loPI   GL113407  11.733   6.727   6.709 -0.0269 -0.2235  0.1960
  944loPI   GL213408  12.079   6.841   6.749  0.4709  0.0296  0.0757
  944loPI   C1A13409  11.516   6.657   7.071  0.2313 -0.2362 -0.2405
  944loPI   C2A13410  11.515   6.590   7.570 -0.1357 -0.0207 -0.3672
  944loPI   C3A13411  11.477   6.580   7.949  0.0138  0.2534 -0.0614
  944loPI   C4A13412  11.433   6.642   8.353  0.3795 -0.1484  0.1158
  944loPI   C5A13413  11.689   6.481   8.685  0.1535  0.1779 -0.0913
  944loPI   C6A13414  11.965   6.193   8.975 -0.1716  0.1359 -0.3126
  944loPI   C1B13415  12.036   6.825   7.167  0.0177 -0.2274 -0.1748
  944loPI   C2B13416  11.987   6.767   7.629 -0.1868  0.0126  0.0576
  944loPI   C3B13417  11.937   6.695   8.070  0.3329 -0.1460  0.0996
  944loPI   C4B13418  11.903   6.873   8.439 -0.0766  0.0884  0.3201
  945loPI    C113419  12.531   1.882   6.013  0.2505 -0.0643 -0.1121
  945loPI    C213420  12.684   1.564   5.824 -0.0709 -0.2337 -0.0934
  945loPI    C313421  12.381   1.768   5.660  0.0625 -0.0002 -0.0541
  945loPI   PO413422  12.502   1.747   6.270  0.0188 -0.1653 -0.0026
  945loPI   GL113423  12.585   1.579   6.744  0.0889  0.0730  0.1590
  945loPI   GL213424  12.802   1.409   6.667  0.2275 -0.1668  0.2870
  945loPI   C1A13425  12.678   1.541   7.205 -0.0350 -0.0395 -0.0537
  945loPI   C2A13426  12.640   1.646   7.637  0.1533  0.1422  0.0978
  945loPI   C3A13427  12.576   1.652   8.086  0.1469 -0.1860  0.0375
  945loPI   C4A13428  12.567   1.709   8.534  0.0976  0.2352  0.1010
  945loPI   C5A13429  12.296   1.672   8.986 -0.0136  0.0725  0.3931
  945loPI   C6A13430  11.976   1.336   8.987 -0.0064 -0.3122  0.0522
  945loPI   C1B13431  13.030   1.300   7.024 -0.0886 -0.2233  0.0842
  945loPI   C2B13432  12.963   1.254   7.469 -0.2609 -0.0085  0.0358
  945loPI   C3B13433  12.927   1.370   7.904 -0.1126  0.0093  0.1867
  945loPI   C4B13434  12.842   1.275   8.312  0.0256 -0.0456  0.0305
  946loPI    C113435  14.677  13.188   6.602 -0.1727  0.1179  0.0217
  946loPI    C213436  14.533  13.246   6.233  0.2002  0.0974 -0.1311
  946loPI    C313437  14.912  13.127   6.284  0.0668 -0.1845  0.2503
  946loPI   PO413438  14.689  13.383   6.747 -0.0633  0.3184 -0.0053
  946loPI   GL113439  14.284  13.516   6.984  0.2776  0.0001  0.2738
  946loPI   GL213440  14.245  13.230   7.070  0.0622 -0.3575  0.0260
  946loPI   C1A13441  14.256  13.580   7.437 -0.1366 -0.1491  0.1170
  946loPI   C2A13442  14.132  13.569   7.898 -0.2525 -0.1173 -0.0323
  946loPI   C3A13443  14.048  13.551   8.257  0.4473 -0.0984 -0.1071
  946loPI   C4A13444  13.934  13.614   8.596  0.1525 -0.0705  0.0359
  946loPI   C5A13445  13.955  13.889   8.946  0.3637 -0.0672 -0.1596
  946loPI   C6A13446  13.796  14.328   9.086  0.1169 -0.2074  0.2156
  946loPI   C1B13447  14.169  13.091   7.510 -0.2122  0.3082 -0.2980
  946loPI   C2B13448  14.063  13.033   7.892  0.1403  0.1894 -0.1611
  946loPI   C3B13449  13.922  13.086   8.291  0.0051 -0.2348  0.3185
  946loPI   C4B13450  13.887  13.076   8.724 -0.0256  0.0121 -0.1576
  947loPI    C113451   9.908   6.900   5.820  0.0377 -0.0965 -0.0432
  947loPI    C213452  10.152   7.178   5.668 -0.0293  0.0171  0.0556
  947loPI    C313453   9.980   6.909   5.426  0.0761  0.0294 -0.0335
  947loPI   PO413454   9.985   6.923   6.046  0.0352 -0.1209  0.0826
  947loPI   GL113455  10.011   6.945   6.433  0.2982  0.0519 -0.2683
  947loPI   GL213456  10.257   6.864   6.554  0.0009 -0.4015  0.1366
  947loPI   C1A13457   9.824   7.152   6.801 -0.1193  0.0117  0.4206
  947loPI   C2A13458   9.814   7.158   7.200 -0.0173 -0.0810  0.0044
  947loPI   C3A13459   9.813   7.124   7.571  0.0377  0.1002  0.0661
  947loPI   C4A13460   9.790   7.089   7.933  0.1973  0.0513  0.1992
  947loPI   C5A13461   9.700   7.080   8.298 -0.1298 -0.0403 -0.2183
  947loPI   C6A13462   9.547   6.773   8.594 -0.0798 -0.3294  0.3371
  947loPI   C1B13463  10.194   6.749   6.887 -0.0935  0.1105 -0.1865
  947loPI   C2B13464  10.132   6.746   7.299  0.0990 -0.0796 -0.0000
  947loPI   C3B13465  10.174   6.734   7.680 -0.0557 -0.0949 -0.0284
  947loPI   C4B13466  10.065   6.720   8.134 -0.0204  0.0499 -0.1250
  948loPI    C113467   1.745  14.660   6.668 -0.2741 -0.0945  0.1296
  948loPI    C213468   1.722  14.521   6.294  0.0848  0.0713  0.0413
  948loPI    C313469   1.424  14.741   6.444 -0.0948 -0.0589 -0.1187
  948loPI   PO413470   1.762  14.434   6.780  0.1259 -0.2673  0.0124
  948loPI   GL113471   1.644  14.291   7.134  0.2037 -0.0581  0.0527
  948loPI   GL213472   1.981  14.258   7.189 -0.1254 -0.0914  0.3213
  948loPI   C1A13473   1.679  14.368   7.595  0.1097  0.2897  0.0604
  948loPI   C2A13474   1.796  14.453   8.081  0.2649  0.1178 -0.2356
  948loPI   C3A13475   1.654  14.315   8.460 -0.0128 -0.0501 -0.2328
  948loPI   C4A13476   1.726  14.430   8.903  0.2001  0.1742 -0.1598
  948loPI   C5A13477   1.563  14.657   9.219  0.0487  0.0718 -0.1232
  948loPI   C6A13478   1.572  14.964   9.516  0.0155 -0.1454 -0.1753
  948loPI   C1B13479   2.179  14.324   7.544 -0.1632 -0.1257 -0.0777
  948loPI   C2B13480   2.248  14.343   7.988  0.1160  0.0830  0.3036
  948loPI   C3B13481   2.221  14.293   8.358 -0.1949 -0.1039  0.0125
  948loPI   C4B13482   2.192  14.177   8.754  0.0233  0.1840 -0.2692
  949loPI    C113483   1.448  15.448   6.513 -0.2031 -0.0070  0.0972
  949loPI    C213484   1.734  15.169   6.490  0.1305  0.3167  0.2051
  949loPI    C313485   1.454  15.193   6.205  0.2195  0.0074  0.0870
  949loPI   PO413486   1.434  15.483   6.809 -0.2304  0.0462 -0.0722
  949loPI   GL113487   1.356  15.773   7.156 -0.2916  0.0811 -0.0124
  949loPI   GL213488   1.024  15.782   7.215 -0.0494  0.0057  0.0794
  949loPI   C1A13489   1.644  15.820   7.568 -0.0156 -0.1888  0.1345
  949loPI   C2A13490   1.719  15.850   7.943  0.1928 -0.3657  0.3045
  949loPI   C3A13491   1.610  15.844   8.285  0.0662 -0.1502  0.4496
  949loPI   C4A13492   1.510  15.952   8.754  0.0584  0.1533 -0.0530
  949loPI   C5A13493   1.663  16.212   9.150  0.0685 -0.1541  0.0149
  949loPI   C6A13494   1.987  16.470   9.287 -0.1993  0.2614  0.1917
  949loPI   C1B13495   1.086  15.954   7.593  0.1723 -0.5613  0.1296
  949loPI   C2B13496   1.009  16.020   8.038 -0.4986  0.1519 -0.2168
  949loPI   C3B13497   1.190  16.105   8.436 -0.1906  0.1210  0.2489
  949loPI   C4B13498   1.029  16.189   8.864 -0.1683  0.3753 -0.1254
  950loPI    C113499  16.928  13.355   6.519 -0.0833  0.2476  0.0789
  950loPI    C213500  16.827  13.282   6.139  0.0640  0.0371  0.0784
  950loPI    C313501  16.981  13.637   6.241  0.1319  0.0543 -0.0803
  950loPI   PO413502  16.756  13.361   6.702  0.0876  0.2311  0.0203
  950loPI   GL113503  16.617  13.403   7.131 -0.1697 -0.0574  0.1552
  950loPI   GL213504  16.676  13.176   7.234  0.2910 -0.0242  0.4059
  950loPI   C1A13505  16.453  13.684   7.498  0.0849 -0.1594 -0.0053
  950loPI   C2A13506  16.460  13.789   7.863 -0.1288  0.0990 -0.0699
  950loPI   C3A13507  16.418  13.876   8.315  0.0072  0.2485 -0.0802
  950loPI   C4A13508  16.259  13.757   8.770  0.1377 -0.1103  0.1521
  950loPI   C5A13509  16.566  13.761   9.115 -0.0700 -0.2510 -0.0215
  950loPI   C6A13510  16.874  13.659   9.388 -0.2052 -0.1291  0.0190
  950loPI   C1B13511  16.695  13.266   7.647  0.0313 -0.0971  0.1975
  950loPI   C2B13512  16.635  13.347   8.081  0.0168  0.0064 -0.3513
  950loPI   C3B13513  16.652  13.349   8.562  0.3001 -0.2164  0.2803
  950loPI   C4B13514  16.837  13.345   8.976  0.3010 -0.1668  0.1592
  951loPI    C113515  15.870   4.240   6.099 -0.0050 -0.0891  0.0436
  951loPI    C213516  15.993   3.866   6.167  0.0183 -0.1080 -0.1001
  951loPI    C313517  16.080   4.045   5.820  0.1657  0.0965  0.0402
  951loPI   PO413518  15.917   4.360   6.363  0.1569 -0.2720 -0.0457
  951loPI   GL113519  16.107   4.633   6.681  0.2096  0.2947  0.0981
  951loPI   GL213520  16.379   4.411   6.683  0.0229  0.1971  0.0817
  951loPI   C1A13521  16.089   4.644   7.090 -0.1929  0.0829  0.0906
  951loPI   C2A13522  16.170   4.655   7.598 -0.0306 -0.0990  0.0323
  951loPI   C3A13523  16.170   4.673   8.059 -0.1526 -0.3470  0.4162
  951loPI   C4A13524  16.277   4.519   8.537 -0.0103  0.1174 -0.0851
  951loPI   C5A13525  16.302   4.295   8.930  0.0495  0.0191 -0.0853
  951loPI   C6A13526  16.657   4.049   9.130 -0.1085  0.2638  0.2922
  951loPI   C1B13527  16.501   4.300   7.132 -0.1683 -0.0363 -0.3928
  951loPI   C2B13528  16.517   4.278   7.591  0.1483 -0.1353 -0.0078
  951loPI   C3B13529  16.591   4.157   8.012  0.0692  0.0322  0.1661
  951loPI   C4B13530  16.632   4.107   8.554  0.4836  0.0233 -0.0771
  952loPI    C113531   3.571  14.935   6.538  0.2166 -0.1521 -0.0186
  952loPI    C213532   3.957  14.991   6.450  0.2068 -0.0969 -0.0268
  952loPI    C313533   3.675  15.087   6.183  0.1687  0.2191  0.1217
  952loPI   PO413534   3.559  14.936   6.908 -0.2346 -0.1524 -0.1272
  952loPI   GL113535   3.580  15.140   7.342  0.0221 -0.0179 -0.0264
  952loPI   GL213536   3.731  15.410   7.428 -0.0382  0.0042 -0.1051
  952loPI   C1A13537   3.638  14.943   7.754 -0.1207 -0.0448  0.1266
  952loPI   C2A13538   3.661  14.929   8.174  0.1307  0.2419  0.2687
  952loPI   C3A13539   3.471  14.937   8.510 -0.1719  0.1282  0.2486
  952loPI   C4A13540   3.306  14.968   8.916  0.2081  0.1417  0.4950
  952loPI   C5A13541   3.029  15.010   9.198 -0.0123  0.1448  0.0946
  952loPI   C6A13542   2.633  14.876   9.191 -0.0893  0.0225 -0.0390
  952loPI   C1B13543   3.782  15.378   7.916  0.2873 -0.0291 -0.0668
  952loPI   C2B13544   3.788  15.351   8.365 -0.1909 -0.1103  0.0306
  952loPI   C3B13545   3.640  15.542   8.676  0.0029 -0.3902  0.0507
  952loPI   C4B13546   3.677  15.814   9.047 -0.2475  0.0486  0.2763
  953loPI    C113547   3.852   6.549   6.230 -0.0350 -0.2316  0.1918
  953loPI    C213548   3.932   6.847   5.976 -0.1897 -0.0513  0.3511
  953loPI    C313549   4.200   6.555   6.033 -0.0356  0.0581  0.1963
  953loPI   PO413550   3.845   6.542   6.514  0.0485 -0.2739 -0.0338
  953loPI   GL113551   4.077   6.695   6.809 -0.1523 -0.1808  0.3997
  953loPI   GL213552   4.068   6.926   6.820  0.0220 -0.2189 -0.0377
  953loPI   C1A13553   3.893   6.723   7.261 -0.1135  0.1756 -0.3471
  953loPI   C2A13554   3.870   6.770   7.817  0.1291 -0.4473  0.0190
  953loPI   C3A13555   3.907   6.663   8.213  0.1979 -0.1005 -0.1844
  953loPI   C4A13556   3.901   6.587   8.599  0.0455  0.0921  0.4801
  953loPI   C5A13557   4.189   6.599   8.926 -0.0903  0.0837 -0.0732
  953loPI   C6A13558   4.433   6.916   9.143 -0.1120  0.0323 -0.2502
  953loPI   C1B13559   3.844   7.199   7.115 -0.2954 -0.0716 -0.0620
  953loPI   C2B13560   3.897   7.191   7.485  0.0968 -0.2061 -0.2563
  953loPI   C3B13561   4.083   7.268   7.815 -0.0532  0.0296 -0.0732
  953loPI   C4B13562   4.229   7.319   8.149 -0.4017 -0.0261 -0.0849
  954loPI    C113563  15.591   8.513   6.091 -0.0469  0.0118  0.2590
  954loPI    C213564  15.392   8.616   6.422 -0.1615  0.1444  0.1505
  954loPI    C313565  15.346   8.829   6.087 -0.1120 -0.0395  0.0251
  954loPI   PO413566  15.807   8.358   6.281 -0.0823 -0.0210  0.3402
  954loPI   GL113567  15.952   8.431   6.764  0.4052  0.0564 -0.0872
  954loPI   GL213568  15.789   8.762   6.858 -0.0304 -0.3889  0.1019
  954loPI   C1A13569  15.718   8.295   7.161 -0.1299  0.1872  0.2144
  954loPI   C2A13570  15.592   8.239   7.578 -0.0271  0.0719 -0.0732
  954loPI   C3A13571  15.585   8.361   8.035 -0.1233 -0.0257  0.1559
  954loPI   C4A13572  15.504   8.277   8.407  0.0872 -0.1266 -0.1072
  954loPI   C5A13573  15.360   8.136   8.774  0.0302  0.1599  0.3034
  954loPI   C6A13574  15.121   7.846   8.835  0.0807 -0.1005  0.0908
  954loPI   C1B13575  15.805   8.780   7.243 -0.1233 -0.4971  0.0102
  954loPI   C2B13576  15.766   8.715   7.714  0.0453  0.1020 -0.1234
  954loPI   C3B13577  15.735   8.828   8.137  0.1257 -0.2064 -0.2689
  954loPI   C4B13578  15.573   8.716   8.549  0.0774  0.0525 -0.2471
  955loPI    C113579   2.333   2.004   6.442 -0.2002  0.2905  0.3092
  955loPI    C213580   2.073   2.168   6.186 -0.1668  0.0069  0.0894
  955loPI    C313581   2.462   2.261   6.164 -0.1372 -0.1504 -0.0809
  955loPI   PO413582   2.213   2.118   6.661 -0.1299 -0.2174 -0.0250
  955loPI   GL113583   2.325   2.465   7.035  0.3223  0.0219 -0.0031
  955loPI   GL213584   2.058   2.621   6.880 -0.0299 -0.0927  0.1230
  955loPI   C1A13585   2.460   2.541   7.500  0.1873 -0.2058  0.0212
  955loPI   C2A13586   2.301   2.572   7.869 -0.2168 -0.1750 -0.1630
  955loPI   C3A13587   2.348   2.509   8.305  0.0760 -0.4375 -0.1665
  955loPI   C4A13588   2.150   2.586   8.700 -0.0790  0.0984  0.3885
  955loPI   C5A13589   1.921   2.450   9.055  0.0977  0.2662 -0.1046
  955loPI   C6A13590   1.479   2.449   9.146  0.2484 -0.0552 -0.0311
  955loPI   C1B13591   2.080   2.870   7.291  0.1549 -0.1670  0.4135
  955loPI   C2B13592   1.935   2.861   7.691 -0.0457  0.3087 -0.3136
  955loPI   C3B13593   1.972   2.875   8.143 -0.1041  0.1690 -0.0114
  955loPI   C4B13594   1.838   2.959   8.528  0.2624 -0.2387  0.3064
  956loPI    C113595  11.852  11.691   6.050 -0.0242  0.1786 -0.0642
  956loPI    C213596  11.877  11.928   5.729  0.0063  0.1100 -0.1129
  956loPI    C313597  11.716  11.563   5.696  0.0289  0.0946 -0.0547
  956loPI   PO413598  11.797  11.800   6.252 -0.1932  0.0205 -0.0824
  956loPI   GL113599  11.603  11.645   6.608  0.1937 -0.1601 -0.0388
  956loPI   GL213600  11.813  11.852   6.771  0.0517 -0.0580  0.2917
  956loPI   C1A13601  11.235  11.428   6.848 -0.0675  0.0403 -0.2811
  956loPI   C2A13602  11.167  11.441   7.201 -0.1014  0.0229 -0.0018
  956loPI   C3A13603  11.153  11.330   7.620 -0.1699  0.3048 -0.1966
  956loPI   C4A13604  11.329  11.368   8.001 -0.0185  0.0558  0.0376
  956loPI   C5A13605  11.360  11.321   8.495  0.1727 -0.3019  0.0202
  956loPI   C6A13606  11.201  11.321   8.932  0.1394 -0.1732 -0.1957
  956loPI   C1B13607  11.610  11.745   7.200  0.1237  0.0294 -0.1284
  956loPI   C2B13608  11.513  11.709   7.675  0.1284  0.1576  0.1456
  956loPI   C3B13609  11.361  11.881   8.077 -0.0622  0.1115 -0.1831
  956loPI   C4B13610  11.324  11.903   8.531  0.0619  0.0880  0.1640
  957loPI    C113611  13.373  16.602   6.036 -0.3155  0.1630 -0.0870
  957loPI    C213612  13.729  16.608   5.853 -0.1333 -0.0850  0.2468
  957loPI    C313613  13.426  16.827   5.709  0.1287  0.0686 -0.0867
  957loPI   PO413614  13.499  16.545   6.296 -0.1106 -0.2314  0.2427
  957loPI   GL113615  13.342  16.843   6.476  0.0118  0.1755  0.0673
  957loPI   GL213616  13.026  17.028   6.453  0.0064 -0.2456 -0.3392
  957loPI   C1A13617  13.524  16.767   6.935  0.3260  0.1319  0.0609
  957loPI   C2A13618  13.494  16.677   7.319 -0.1300 -0.2652  0.4684
  957loPI   C3A13619  13.345  16.704   7.707  0.0546 -0.1599  0.0458
  957loPI   C4A13620  13.441  16.800   8.105  0.0643  0.0177  0.3141
  957loPI   C5A13621  13.767  16.609   8.543 -0.0023 -0.1585  0.1654
  957loPI   C6A13622  13.884  16.520   8.909  0.0331  0.0493  0.0226
  957loPI   C1B13623  13.077  17.097   6.978 -0.0877  0.2384  0.0339
  957loPI   C2B13624  13.118  17.081   7.441 -0.0705  0.1366 -0.2234
  957loPI   C3B13625  12.973  17.032   7.784 -0.1485  0.0243 -0.0726
  957loPI   C4B13626  13.103  17.126   8.279  0.0364 -0.0430  0.2369
  958loPI    C113627  12.456   7.798   6.254 -0.1696 -0.0278 -0.1129
  958loPI    C213628  12.421   8.001   5.912  0.1864 -0.0363 -0.1585
  958loPI    C313629  12.737   7.763   5.971  0.2064  0.0819  0.2365
  958loPI   PO413630  12.394   7.987   6.423  0.2540 -0.1658 -0.2263
  958loPI   GL113631  12.510   8.337   6.662 -0.0091  0.0475  0.0973
  958loPI   GL213632  12.747   8.284   6.718  0.2269 -0.1249  0.1168
  958loPI   C1A13633  12.374   8.438   7.036  0.2191  0.0472 -0.2248
  958loPI   C2A13634  12.470   8.284   7.361 -0.4947 -0.1912 -0.1889
  958loPI   C3A13635  12.453   8.272   7.774 -0.0190 -0.3375 -0.0406
  958loPI   C4A13636  12.316   8.340   8.069 -0.1626  0.3416  0.0432
  958loPI   C5A13637  12.344   8.288   8.555  0.0377 -0.0463 -0.2905
  958loPI   C6A13638  12.496   8.169   8.884 -0.1266 -0.0855 -0.3187
  958loPI   C1B13639  12.796   7.986   7.041 -0.2346 -0.0777  0.2952
  958loPI   C2B13640  12.868   7.991   7.482  0.2430  0.3802 -0.2044
  958loPI   C3B13641  12.756   7.842   7.910 -0.1740 -0.1381  0.0870
  958loPI   C4B13642  12.819   7.919   8.398  0.0665 -0.1407  0.2832
  959loPI    C113643   0.127  15.795   6.785  0.0622  0.2321  0.0080
  959loPI    C213644  -0.170  15.688   6.539 -0.0543  0.0882  0.2081
  959loPI    C313645   0.201  15.552   6.476 -0.1068 -0.0424  0.1792
  959loPI   PO413646   0.018  15.647   6.981 -0.0568  0.2320  0.0976
  959loPI   GL113647  -0.211  15.326   7.013  0.1309 -0.0239  0.0394
  959loPI   GL213648  -0.119  15.023   7.088  0.2531  0.2688 -0.1923
  959loPI   C1A13649  -0.117  15.300   7.551  0.2043  0.1151 -0.0735
  959loPI   C2A13650  -0.059  15.272   8.066  0.1055 -0.0389 -0.1490
  959loPI   C3A13651  -0.104  15.220   8.483 -0.3618 -0.2046  0.0448
  959loPI   C4A13652  -0.235  15.347   8.916 -0.1118  0.0272 -0.1319
  959loPI   C5A13653   0.100  15.316   9.253  0.3973  0.1369  0.0792
  959loPI   C6A13654   0.155  15.100   9.598  0.1294  0.0644 -0.0006
  959loPI   C1B13655  -0.114  14.749   7.431  0.1610 -0.0749  0.0413
  959loPI   C2B13656  -0.029  14.862   7.795 -0.0606 -0.1845 -0.0568
  959loPI   C3B13657   0.002  14.816   8.214  0.1540  0.1580 -0.0705
  959loPI   C4B13658  -0.001  14.744   8.683  0.0417  0.3615  0.0824
  960loPI    C113659   7.665   2.373   5.945  0.0191  0.1455 -0.0148
  960loPI    C213660   7.915   2.493   5.656 -0.1033  0.0895 -0.1450
  960loPI    C313661   7.534   2.409   5.569 -0.1072 -0.0572  0.0086
  960loPI   PO413662   7.759   2.239   6.140 -0.1897 -0.2328 -0.1066
  960loPI   GL113663   7.635   2.015   6.515  0.1783  0.0487 -0.1243
  960loPI   GL213664   7.785   1.768   6.486 -0.0043  0.0051 -0.0397
  960loPI   C1A13665   7.500   2.041   6.890 -0.1424 -0.0173 -0.1183
  960loPI   C2A13666   7.610   2.179   7.327 -0.0259  0.3624  0.0570
  960loPI   C3A13667   7.594   2.224   7.730  0.0249 -0.2146 -0.0154
  960loPI   C4A13668   7.486   2.237   8.142 -0.0718  0.0597 -0.0318
  960loPI   C5A13669   7.484   2.153   8.596 -0.1154  0.1662 -0.0153
  960loPI   C6A13670   7.320   2.301   8.921 -0.1308 -0.3510 -0.1349
  960loPI   C1B13671   7.991   1.757   6.816 -0.1222 -0.1224  0.2186
  960loPI   C2B13672   7.828   1.737   7.335 -0.0082  0.2085  0.0785
  960loPI   C3B13673   7.901   1.769   7.833  0.1170 -0.0122 -0.0130
  960loPI   C4B13674   7.893   1.856   8.236  0.0816 -0.1945 -0.0838
  961loPI    C113675   4.295  12.158   6.688 -0.1221 -0.0031  0.2058
  961loPI    C213676   4.209  12.472   6.921 -0.0908  0.0904  0.0930
  961loPI    C313677   3.959  12.366   6.628 -0.0043  0.1331  0.0030
  961loPI   PO413678   4.503  11.992   6.874 -0.0351  0.2295  0.1938
  961loPI   GL113679   4.548  11.718   7.196 -0.2105 -0.0020 -0.2407
  961loPI   GL213680   4.821  11.902   7.466  0.3313 -0.0781  0.1187
  961loPI   C1A13681   4.216  11.737   7.495  0.0334 -0.0484  0.0487
  961loPI   C2A13682   3.829  11.875   7.694 -0.2470  0.1333  0.1263
  961loPI   C3A13683   3.709  11.777   8.178 -0.1974  0.0412  0.1684
  961loPI   C4A13684   3.861  11.609   8.653 -0.1714 -0.4680  0.1454
  961loPI   C5A13685   4.055  11.333   8.978  0.0501 -0.2118  0.0378
  961loPI   C6A13686   4.072  11.043   9.303 -0.3853  0.2127 -0.1184
  961loPI   C1B13687   4.738  11.991   7.945 -0.2564 -0.1133  0.1219
  961loPI   C2B13688   4.958  12.126   8.308 -0.2608 -0.0411  0.1078
  961loPI   C3B13689   5.093  12.004   8.754  0.1056 -0.1349 -0.0134
  961loPI   C4B13690   4.977  11.721   9.127  0.2063 -0.0883 -0.1994
  962loPI    C113691  13.903  12.254   5.854 -0.2104  0.1063 -0.1133
  962loPI    C213692  14.273  12.403   5.820 -0.0189 -0.2840  0.1761
  962loPI    C313693  14.140  12.134   5.555 -0.1295 -0.0832  0.0247
  962loPI   PO413694  13.907  12.159   6.159 -0.2354  0.5143 -0.1894
  962loPI   GL113695  13.741  12.174   6.536 -0.1733 -0.2739  0.2647
  962loPI   GL213696  13.924  12.108   6.733  0.1233  0.1878  0.0872
  962loPI   C1A13697  13.467  12.120   6.919  0.1725  0.0097  0.0082
  962loPI   C2A13698  13.393  11.951   7.339  0.1485  0.2097 -0.0782
  962loPI   C3A13699  13.368  11.856   7.690 -0.5819 -0.1918  0.1863
  962loPI   C4A13700  13.290  11.809   8.144  0.0030  0.1284 -0.3006
  962loPI   C5A13701  13.293  11.829   8.508  0.2498  0.3282  0.1248
  962loPI   C6A13702  13.630  11.797   8.781 -0.2749  0.1084 -0.2659
  962loPI   C1B13703  13.930  12.171   7.155  0.0266 -0.0457 -0.4198
  962loPI   C2B13704  13.893  12.030   7.549 -0.0013  0.2330  0.0186
  962loPI   C3B13705  13.807  12.035   7.953 -0.2605  0.0827  0.2196
  962loPI   C4B13706  13.765  12.070   8.347 -0.3108 -0.1042  0.3641
  963loPI    C113707  17.016   8.330   6.347 -0.1011 -0.1010  0.0185
  963loPI    C213708  17.154   8.219   5.989 -0.0118  0.1262 -0.0190
  963loPI    C313709  17.373   8.461   6.221 -0.1492  0.1254  0.1123
  963loPI   PO413710  16.852   8.063   6.424  0.0328  0.1491 -0.0517
  963loPI   GL113711  16.795   8.074   6.795 -0.0312 -0.3604  0.3794
  963loPI   GL213712  16.555   8.271   6.853 -0.2060 -0.0197  0.0599
  963loPI   C1A13713  16.724   7.705   7.005 -0.1360 -0.0278  0.1045
  963loPI   C2A13714  16.782   7.629   7.433  0.1461  0.3160  0.0975
  963loPI   C3A13715  16.937   7.677   7.916  0.0805 -0.1826  0.0406
  963loPI   C4A13716  16.939   7.684   8.409 -0.3178  0.4428 -0.3199
  963loPI   C5A13717  17.097   7.603   8.791 -0.2836 -0.0508  0.1502
  963loPI   C6A13718  17.645   7.663   8.877  0.1592  0.1720  0.3240
  963loPI   C1B13719  16.790   8.136   7.248 -0.3356  0.2663  0.3373
  963loPI   C2B13720  16.697   8.135   7.646  0.4096 -0.1033  0.1166
  963loPI   C3B13721  16.488   7.955   7.975  0.0583  0.1619 -0.0554
  963loPI   C4B13722  16.383   8.068   8.315 -0.1498  0.0846 -0.1113
  964loPI    C113723  15.080   9.257   5.939 -0.1085  0.0878 -0.1219
  964loPI    C213724  14.687   9.325   5.917 -0.1239 -0.0216 -0.1912
  964loPI    C313725  14.835   8.968   5.811 -0.0094  0.0085 -0.1347
  964loPI   PO413726  15.176   9.305   6.271  0.2073  0.2210  0.0117
  964loPI   GL113727  15.076   9.414   6.679 -0.2039  0.0493 -0.2928
  964loPI   GL213728  14.828   9.461   6.872  0.0175  0.1186 -0.2746
  964loPI   C1A13729  15.069   9.120   7.135  0.0715 -0.0219 -0.0401
  964loPI   C2A13730  14.902   9.001   7.479 -0.0759  0.1363  0.1156
  964loPI   C3A13731  14.893   9.016   7.933  0.1633 -0.1095  0.0781
  964loPI   C4A13732  14.789   9.078   8.302  0.1616  0.2793  0.2068
  964loPI   C5A13733  14.746   9.122   8.682 -0.2752  0.0035  0.1621
  964loPI   C6A13734  14.726   9.478   8.953 -0.0476  0.0917 -0.2715
  964loPI   C1B13735  14.631   9.423   7.276 -0.1293 -0.3061  0.1346
  964loPI   C2B13736  14.596   9.470   7.790  0.1176  0.1560 -0.0771
  964loPI   C3B13737  14.398   9.400   8.169 -0.1241 -0.0265  0.1449
  964loPI   C4B13738  14.276   9.467   8.603 -0.0219  0.0987  0.2872
  965loPI    C113739   3.005  12.985   6.681 -0.2202 -0.0878 -0.0426
  965loPI    C213740   2.782  13.184   6.414 -0.0652 -0.1672 -0.2340
  965loPI    C313741   3.072  12.938   6.289  0.1442 -0.0509  0.0118
  965loPI   PO413742   2.895  12.906   6.812 -0.1822 -0.1612  0.1744
  965loPI   GL113743   2.762  13.050   7.246  0.0061  0.0262 -0.1290
  965loPI   GL213744   2.955  12.788   7.329 -0.0997  0.2188 -0.1106
  965loPI   C1A13745   2.804  13.359   7.636 -0.1638  0.3913  0.0260
  965loPI   C2A13746   2.702  13.257   7.961 -0.0895  0.1518 -0.0989
  965loPI   C3A13747   2.692  13.266   8.449  0.1666 -0.0392  0.0335
  965loPI   C4A13748   2.746  13.279   8.818  0.1401 -0.2625  0.0497
  965loPI   C5A13749   2.914  13.119   9.135  0.3230  0.2401  0.1250
  965loPI   C6A13750   2.954  12.893   9.516 -0.1559  0.0114 -0.1897
  965loPI   C1B13751   2.665  12.675   7.723 -0.0159 -0.0373 -0.1464
  965loPI   C2B13752   2.660  12.605   8.144 -0.3119  0.1575  0.0397
  965loPI   C3B13753   2.570  12.675   8.632  0.0442  0.1755 -0.1051
  965loPI   C4B13754   2.177  12.587   8.722  0.1480 -0.2582 -0.3201
  966loPI    C113755  14.380   7.200   6.240  0.0667 -0.4534 -0.1356
  966loPI    C213756  14.585   7.423   5.978 -0.0557  0.0404  0.1759
  966loPI    C313757  14.222   7.285   5.883 -0.0145  0.0441  0.0111
  966loPI   PO413758  14.598   7.033   6.352  0.1669 -0.0556  0.1973
  966loPI   GL113759  14.745   7.076   6.647 -0.0533 -0.1047  0.1277
  966loPI   GL213760  15.044   7.197   6.769  0.2649  0.0446  0.1538
  966loPI   C1A13761  14.435   7.112   6.978  0.1233 -0.2985 -0.1968
  966loPI   C2A13762  14.410   6.986   7.392 -0.1281 -0.0357 -0.0387
  966loPI   C3A13763  14.294   7.001   7.866  0.1366  0.0517  0.0929
  966loPI   C4A13764  14.214   6.939   8.284  0.2725  0.0531  0.1589
  966loPI   C5A13765  13.892   7.156   8.550  0.1446  0.1896  0.1022
  966loPI   C6A13766  13.507   7.300   8.753  0.0430  0.1116  0.0325
  966loPI   C1B13767  14.853   7.233   7.187 -0.2924  0.2314  0.3176
  966loPI   C2B13768  14.849   7.108   7.600 -0.3539 -0.3283 -0.2942
  966loPI   C3B13769  14.792   7.127   8.035 -0.0341  0.3288 -0.1076
  966loPI   C4B13770  14.711   7.083   8.542 -0.1663 -0.0515  0.2929
  967loPI    C113771   0.522   3.931   6.206 -0.1098  0.1336  0.0647
  967loPI    C213772   0.209   3.955   5.959 -0.0093 -0.0603 -0.0845
  967loPI    C313773   0.452   3.638   5.943  0.3439  0.2077 -0.1496
  967loPI   PO413774   0.549   4.031   6.521  0.2817  0.0796  0.2573
  967loPI   GL113775   0.789   4.109   6.793 -0.1491 -0.2360 -0.4031
  967loPI   GL213776   0.998   3.899   6.691 -0.1592 -0.2608 -0.0012
  967loPI   C1A13777   0.762   4.082   7.244 -0.0663  0.0497  0.0708
  967loPI   C2A13778   0.787   4.067   7.713 -0.2244 -0.0869 -0.2633
  967loPI   C3A13779   0.848   4.033   8.134  0.0291 -0.1331 -0.2804
  967loPI   C4A13780   0.793   4.013   8.483 -0.2661 -0.0874  0.0961
  967loPI   C5A13781   1.095   3.725   8.749  0.1362 -0.0144 -0.0772
  967loPI   C6A13782   1.520   3.812   8.893 -0.2129 -0.0039 -0.1582
  967loPI   C1B13783   1.218   4.111   7.072 -0.0742  0.0549  0.2343
  967loPI   C2B13784   1.286   4.046   7.488  0.3594  0.4857  0.2336
  967loPI   C3B13785   1.264   4.174   7.890  0.2044  0.1340 -0.2982
  967loPI   C4B13786   1.222   4.268   8.359  0.0582 -0.1499  0.0957
  968loPI    C113787   7.907   4.979   5.904  0.0003  0.2543 -0.1126
  968loPI    C213788   7.916   4.594   5.794 -0.1148  0.2472 -0.0977
  968loPI    C313789   8.185   4.851   5.647  0.1395  0.1036  0.1096
  968loPI   PO413790   7.825   4.957   6.170  0.0126 -0.3474 -0.2660
  968loPI   GL113791   8.042   5.179   6.532 -0.1427  0.2769 -0.2791
  968loPI   GL213792   7.649   5.138   6.640 -0.1081 -0.2709 -0.1739
  968loPI   C1A13793   8.182   5.268   6.993 -0.0578  0.0305  0.0109
  968loPI   C2A13794   8.233   5.183   7.446 -0.2287  0.1712  0.0101
  968loPI   C3A13795   8.203   5.397   7.833 -0.0198  0.1084 -0.3773
  968loPI   C4A13796   8.329   5.588   8.202  0.0991 -0.0129 -0.1444
  968loPI   C5A13797   8.147   5.764   8.507  0.1819  0.0006 -0.0068
  968loPI   C6A13798   8.245   5.925   8.814 -0.2026  0.0674 -0.3604
  968loPI   C1B13799   7.698   5.022   7.118  0.0264 -0.2430  0.0002
  968loPI   C2B13800   7.759   5.031   7.446 -0.0126  0.0495 -0.1921
  968loPI   C3B13801   7.737   5.117   7.872  0.2237 -0.2667  0.2343
  968loPI   C4B13802   7.885   5.104   8.268 -0.0523 -0.0778 -0.1208
  969loPI    C113803   0.585   5.176   6.226  0.0204  0.0387  0.0682
  969loPI    C213804   0.647   5.556   6.118  0.0146  0.0437  0.0824
  969loPI    C313805   0.727   5.260   5.862  0.4285  0.0302  0.2193
  969loPI   PO413806   0.297   5.234   6.319  0.2146  0.2295  0.0033
  969loPI   GL113807   0.016   5.253   6.696  0.3784 -0.0739 -0.0675
  969loPI   GL213808  -0.165   5.182   6.843  0.1438 -0.1430  0.2136
  969loPI   C1A13809  -0.132   5.647   6.864  0.0714 -0.2572 -0.5345
  969loPI   C2A13810  -0.194   5.710   7.365  0.0592  0.0287  0.0540
  969loPI   C3A13811  -0.077   5.716   7.824  0.0298 -0.0040 -0.1842
  969loPI   C4A13812  -0.118   5.757   8.267 -0.0830 -0.3763 -0.1084
  969loPI   C5A13813  -0.249   5.886   8.663  0.0458 -0.0485 -0.0802
  969loPI   C6A13814  -0.056   5.948   9.056 -0.1345 -0.1172 -0.0528
  969loPI   C1B13815  -0.307   5.212   7.203 -0.1468  0.2882 -0.1223
  969loPI   C2B13816  -0.233   5.243   7.558 -0.2163 -0.1781  0.1309
  969loPI   C3B13817  -0.270   5.281   7.873  0.1106 -0.1240  0.2268
  969loPI   C4B13818  -0.232   5.138   8.264 -0.2210  0.5543  0.1384
  970loPI    C113819  10.401   9.924   5.896 -0.2390  0.2129 -0.0022
  970loPI    C213820  10.086   9.747   6.069 -0.0178 -0.2516 -0.0593
  970loPI    C313821  10.112   9.763   5.670 -0.0876  0.0107 -0.0550
  970loPI   PO413822  10.579   9.888   6.173  0.0700  0.0066 -0.0188
  970loPI   GL113823  10.400   9.803   6.539  0.1350 -0.0965 -0.1646
  970loPI   GL213824  10.515  10.089   6.664  0.1597 -0.0375 -0.2853
  970loPI   C1A13825  10.281   9.742   6.902  0.2125  0.1169  0.1007
  970loPI   C2A13826  10.374   9.638   7.367  0.0994  0.1604 -0.0242
  970loPI   C3A13827  10.384   9.589   7.779 -0.3885 -0.3430  0.1726
  970loPI   C4A13828  10.463   9.637   8.240 -0.4411  0.2483  0.1412
  970loPI   C5A13829  10.662   9.524   8.590  0.1380  0.0796 -0.1914
  970loPI   C6A13830  10.814   9.121   8.743  0.1710 -0.1990  0.0581
  970loPI   C1B13831  10.401  10.244   7.145 -0.4380  0.0993 -0.0075
  970loPI   C2B13832  10.420  10.129   7.591  0.0054 -0.0752 -0.0498
  970loPI   C3B13833  10.397  10.097   8.038  0.2682  0.1804 -0.1547
  970loPI   C4B13834  10.582  10.146   8.392 -0.0197  0.0077 -0.0319
  971loPI    C113835  15.414  15.991   6.347 -0.0125  0.1372  0.0614
  971loPI    C213836  15.761  16.122   6.197 -0.0350 -0.0094 -0.1227
  971loPI    C313837  15.604  15.778   6.066 -0.2067  0.0122  0.0230
  971loPI   PO413838  15.409  15.987   6.562 -0.1347 -0.1575  0.0265
  971loPI   GL113839  15.081  15.910   6.934 -0.0325  0.1451 -0.0097
  971loPI   GL213840  15.367  15.989   7.028 -0.1280  0.4503  0.1853
  971loPI   C1A13841  14.853  16.088   7.194  0.1246 -0.1120  0.1966
  971loPI   C2A13842  14.868  16.255   7.529 -0.2048  0.2313  0.4584
  971loPI   C3A13843  14.744  16.183   7.896 -0.0144 -0.1327 -0.3721
  971loPI   C4A13844  14.737  16.099   8.348 -0.3625  0.1967  0.1576
  971loPI   C5A13845  14.814  15.967   8.739  0.1741 -0.0114  0.2572
  971loPI   C6A13846  14.871  16.278   9.042 -0.0879  0.1137  0.0269
  971loPI   C1B13847  15.197  15.886   7.431 -0.4249 -0.1031 -0.2387
  971loPI   C2B13848  15.165  15.802   7.861 -0.2266  0.1507 -0.1865
  971loPI   C3B13849  15.210  15.853   8.366  0.4034 -0.2751  0.0429
  971loPI   C4B13850  15.302  15.764   8.806  0.2632  0.2218 -0.0617
  972loPI    C113851  16.217   6.919   6.287 -0.2717  0.1466 -0.1928
  972loPI    C213852  16.087   6.858   5.914 -0.0132 -0.1490 -0.2386
  972loPI    C313853  16.475   6.819   5.999 -0.0528  0.0331  0.0396
  972loPI   PO413854  16.257   7.146   6.371  0.4021 -0.1734 -0.2389
  972loPI   GL113855  16.192   7.352   6.737  0.2759 -0.2669  0.1631
  972loPI   GL213856  16.460   7.332   6.798 -0.1060  0.4626 -0.1109
  972loPI   C1A13857  15.928   7.382   7.100  0.2559 -0.0323  0.1554
  972loPI   C2A13858  15.809   7.518   7.515  0.1277 -0.0298 -0.5248
  972loPI   C3A13859  15.865   7.491   7.934  0.1555 -0.0884 -0.0295
  972loPI   C4A13860  16.116   7.459   8.295  0.0369 -0.0342 -0.0808
  972loPI   C5A13861  16.099   7.625   8.645 -0.0488  0.2948  0.0154
  972loPI   C6A13862  16.217   7.273   8.957  0.1465 -0.2865 -0.0378
  972loPI   C1B13863  16.373   7.410   7.290  0.1961 -0.0761 -0.0445
  972loPI   C2B13864  16.300   7.507   7.735  0.0787 -0.1424 -0.1986
  972loPI   C3B13865  16.554   7.454   8.095 -0.1875 -0.2236  0.0925
  972loPI   C4B13866  16.557   7.398   8.585 -0.0739  0.0083 -0.0795
  973loPI    C113867   6.759  16.786   6.341 -0.2412  0.0231 -0.0705
  973loPI    C213868   6.886  16.544   6.049  0.1611  0.0252  0.0960
  973loPI    C313869   6.595  16.809   5.977  0.0873 -0.1403 -0.2333
  973loPI   PO413870   6.686  16.640   6.570  0.0383  0.0469  0.1511
  973loPI   GL113871   6.566  16.738   6.978  0.2828 -0.0747  0.1838
  973loPI   GL213872   6.433  16.524   7.117 -0.1732  0.0727 -0.1385
  973loPI   C1A13873   6.925  16.643   7.202  0.1061 -0.1202  0.0527
  973loPI   C2A13874   7.062  16.743   7.507  0.0295 -0.0640 -0.1122
  973loPI   C3A13875   7.061  16.738   7.897  0.2618  0.1723 -0.1234
  973loPI   C4A13876   7.134  16.722   8.349 -0.0784 -0.0967 -0.0909
  973loPI   C5A13877   6.942  16.600   8.776 -0.0558 -0.0069  0.0514
  973loPI   C6A13878   6.745  16.878   8.993 -0.0210 -0.3093  0.0304
  973loPI   C1B13879   6.402  16.612   7.506 -0.1445  0.0091 -0.2558
  973loPI   C2B13880   6.660  16.480   7.684 -0.2888 -0.0197  0.0420
  973loPI   C3B13881   6.506  16.622   8.121  0.2105  0.0089 -0.2832
  973loPI   C4B13882   6.431  16.773   8.523 -0.0441  0.1922 -0.1391
  974loPI    C113883  14.462  16.285   6.264 -0.1904 -0.1265  0.1075
  974loPI    C213884  14.607  16.120   6.598 -0.1090 -0.0865  0.0922
  974loPI    C313885  14.411  15.894   6.332 -0.0151 -0.1549  0.0804
  974loPI   PO413886  14.273  16.510   6.376  0.0628 -0.4284 -0.0716
  974loPI   GL113887  14.337  16.676   6.734 -0.3496  0.0306 -0.0350
  974loPI   GL213888  13.943  16.599   6.696 -0.0065  0.1913 -0.0778
  974loPI   C1A13889  14.510  16.400   7.057 -0.0492  0.0028  0.0188
  974loPI   C2A13890  14.396  16.512   7.403  0.2608  0.1177 -0.1357
  974loPI   C3A13891  14.266  16.550   7.839  0.4224  0.0496 -0.0632
  974loPI   C4A13892  14.282  16.491   8.285  0.0799  0.2039 -0.1489
  974loPI   C5A13893  14.295  16.807   8.700  0.0381 -0.2449 -0.1009
  974loPI   C6A13894  14.397  17.138   8.845 -0.0577 -0.0370  0.2266
  974loPI   C1B13895  13.908  16.434   7.149 -0.1536 -0.1014  0.1271
  974loPI   C2B13896  13.886  16.301   7.590 -0.0522  0.0998  0.1093
  974loPI   C3B13897  13.846  16.408   8.039  0.1121 -0.3578  0.2394
  974loPI   C4B13898  13.946  16.154   8.308 -0.0369 -0.4550  0.0123
  975loPI    C113899   4.262  15.617   6.820  0.3072  0.0634 -0.2242
  975loPI    C213900   4.299  15.794   6.463 -0.1370  0.2216 -0.1980
  975loPI    C313901   4.173  16.005   6.779  0.3540  0.1086  0.0824
  975loPI   PO413902   4.519  15.537   6.872 -0.2559 -0.3711 -0.3682
  975loPI   GL113903   4.816  15.338   7.074  0.0322 -0.0428  0.0509
  975loPI   GL213904   5.067  15.269   7.144 -0.0074  0.2391  0.1263
  975loPI   C1A13905   4.825  15.666   7.403 -0.0328 -0.2625 -0.0606
  975loPI   C2A13906   4.918  15.604   7.766 -0.0126 -0.0309  0.1233
  975loPI   C3A13907   4.939  15.618   8.220  0.0274  0.3125 -0.0904
  975loPI   C4A13908   5.046  15.438   8.546 -0.0587  0.1369 -0.0767
  975loPI   C5A13909   5.002  15.577   8.931  0.6358 -0.0158 -0.2209
  975loPI   C6A13910   4.960  15.841   9.324 -0.1538 -0.1289 -0.0191
  975loPI   C1B13911   5.142  15.215   7.569  0.0249  0.1336  0.2279
  975loPI   C2B13912   5.262  15.335   8.005 -0.0981  0.1563  0.0579
  975loPI   C3B13913   5.557  15.133   8.218  0.0144 -0.0473  0.0046
  975loPI   C4B13914   5.496  15.296   8.696 -0.2239  0.2941 -0.2030
  976loPI    C113915  10.992   7.344   6.027 -0.0007  0.1602 -0.1397
  976loPI    C213916  11.039   6.959   5.932  0.0209  0.0807  0.1815
  976loPI    C313917  11.124   7.243   5.663 -0.0264 -0.1375 -0.0682
  976loPI   PO413918  10.966   7.296   6.342 -0.2042  0.4144  0.2502
  976loPI   GL113919  11.000   7.203   6.797 -0.1613 -0.1440  0.0838
  976loPI   GL213920  10.667   7.126   6.692 -0.1002  0.3290  0.3156
  976loPI   C1A13921  11.153   7.070   7.155 -0.0793 -0.0147 -0.0590
  976loPI   C2A13922  11.175   6.959   7.531 -0.0158 -0.0085 -0.0262
  976loPI   C3A13923  11.123   6.920   7.903  0.0178 -0.2782 -0.0888
  976loPI   C4A13924  11.029   6.991   8.347 -0.2198 -0.1315 -0.1002
  976loPI   C5A13925  10.964   6.791   8.693  0.1351  0.0929  0.1534
  976loPI   C6A13926  10.931   6.398   8.791  0.3036  0.0069 -0.1719
  976loPI   C1B13927  10.681   6.965   7.148  0.0822  0.0749 -0.0476
  976loPI   C2B13928  10.641   6.783   7.596  0.1082 -0.2660  0.0674
  976loPI   C3B13929  10.607   6.902   7.975 -0.0866 -0.0252  0.0382
  976loPI   C4B13930  10.579   6.766   8.397  0.1515 -0.2912 -0.3574
  977loPI    C113931  11.984   5.955   6.153  0.0945  0.1827  0.0284
  977loPI    C213932  12.258   5.926   5.863 -0.0768 -0.3348 -0.0908
  977loPI    C313933  11.894   6.069   5.780 -0.0478 -0.2524 -0.0761
  977loPI   PO413934  12.087   5.848   6.361 -0.1157  0.1111 -0.0650
  977loPI   GL113935  12.005   5.933   6.787  0.0278 -0.0777  0.0546
  977loPI   GL213936  11.904   6.279   6.608 -0.1788  0.1346 -0.0381
  977loPI   C1A13937  11.984   5.898   7.281 -0.1080 -0.1542 -0.3287
  977loPI   C2A13938  12.206   5.939   7.655 -0.0599 -0.0501  0.1108
  977loPI   C3A13939  12.246   5.760   8.001  0.0176  0.0657 -0.0562
  977loPI   C4A13940  12.305   5.818   8.369 -0.0529 -0.1775 -0.3049
  977loPI   C5A13941  12.046   5.673   8.716  0.0903  0.0012  0.1253
  977loPI   C6A13942  11.916   5.447   9.094 -0.2536  0.2867 -0.3897
  977loPI   C1B13943  11.959   6.348   7.043  0.0897 -0.1203  0.1361
  977loPI   C2B13944  11.884   6.289   7.526  0.0342  0.0498  0.3582
  977loPI   C3B13945  11.809   6.153   8.038 -0.0313 -0.0077 -0.1605
  977loPI   C4B13946  12.095   6.297   8.442  0.3299  0.2245  0.0632
  978loPI    C113947  14.613  15.314   6.313 -0.0023 -0.1850 -0.0021
  978loPI    C213948  14.749  15.553   6.022  0.0213 -0.0991  0.0789
  978loPI    C313949  14.506  15.248   5.934  0.0017 -0.0530 -0.0268
  978loPI   PO413950  14.841  15.291   6.425  0.0831  0.0591  0.2069
  978loPI   GL113951  14.880  15.136   6.866 -0.1169 -0.2427  0.1008
  978loPI   GL213952  15.017  14.914   6.996 -0.0014 -0.0436 -0.0382
  978loPI   C1A13953  14.549  15.159   7.203 -0.0898  0.0612  0.2595
  978loPI   C2A13954  14.554  15.237   7.625  0.1215  0.0598 -0.1539
  978loPI   C3A13955  14.519  15.180   8.077  0.1777  0.0076 -0.0420
  978loPI   C4A13956  14.321  15.251   8.532 -0.1694 -0.0110 -0.0838
  978loPI   C5A13957  14.341  15.254   8.995  0.2600  0.1293 -0.1444
  978loPI   C6A13958  13.904  15.043   9.045 -0.0764  0.1487 -0.3068
  978loPI   C1B13959  14.890  14.772   7.355 -0.2979  0.0446  0.0258
  978loPI   C2B13960  14.794  14.738   7.752  0.0118  0.2039 -0.0357
  978loPI   C3B13961  14.892  14.779   8.281 -0.0596 -0.1645 -0.3078
  978loPI   C4B13962  14.797  14.895   8.690 -0.2102 -0.2410  0.0315
  979loPI    C113963  10.906   6.155   5.942 -0.0482 -0.0307 -0.0472
  979loPI    C213964  10.733   6.046   5.597  0.0468  0.0108 -0.1083
  979loPI    C313965  10.525   6.255   5.868 -0.0050  0.0433 -0.1729
  979loPI   PO413966  10.974   5.930   6.118  0.1455 -0.0926  0.3667
  979loPI   GL113967  11.088   5.903   6.604  0.0811 -0.0164  0.0685
  979loPI   GL213968  10.887   5.966   6.691  0.1194  0.1517 -0.0661
  979loPI   C1A13969  11.198   5.695   6.966 -0.3336 -0.0884  0.3764
  979loPI   C2A13970  11.138   5.623   7.297  0.0801 -0.1246  0.1268
  979loPI   C3A13971  11.251   5.643   7.727  0.3283 -0.3578 -0.2553
  979loPI   C4A13972  11.147   5.649   8.121  0.2276  0.2941 -0.1842
  979loPI   C5A13973  11.309   5.623   8.453  0.2560  0.1282 -0.0340
  979loPI   C6A13974  11.607   5.382   8.687 -0.0312  0.0547  0.4981
  979loPI   C1B13975  10.855   6.057   7.104 -0.2621 -0.0311  0.1287
  979loPI   C2B13976  10.798   5.958   7.518 -0.1903 -0.1785  0.2944
  979loPI   C3B13977  10.813   6.026   7.905  0.1099 -0.0008 -0.1994
  979loPI   C4B13978  10.874   6.012   8.376  0.1418  0.1150 -0.0989
  980loPI    C113979   7.655   5.407   5.925  0.2883 -0.2060  0.0016
  980loPI    C213980   7.320   5.197   5.864  0.2309 -0.1358  0.0723
  980loPI    C313981   7.460   5.439   5.577  0.0304  0.0986  0.1687
  980loPI   PO413982   7.645   5.539   6.209 -0.0348 -0.0141 -0.3163
  980loPI   GL113983   7.963   5.751   6.397 -0.2042  0.1373  0.1161
  980loPI   GL213984   8.007   6.074   6.450 -0.0640 -0.1889 -0.0984
  980loPI   C1A13985   7.817   5.672   6.789 -0.3100  0.2196 -0.0115
  980loPI   C2A13986   7.798   5.511   7.188 -0.0499  0.1881 -0.2190
  980loPI   C3A13987   7.822   5.549   7.635 -0.1910  0.1422  0.2438
  980loPI   C4A13988   7.823   5.768   8.009 -0.0658 -0.3012  0.1915
  980loPI   C5A13989   7.708   5.957   8.346  0.0563 -0.2638  0.1144
  980loPI   C6A13990   7.862   6.181   8.633  0.1926  0.0252  0.1237
  980loPI   C1B13991   8.014   6.182   6.781 -0.1216 -0.2492  0.0236
  980loPI   C2B13992   7.985   6.097   7.143  0.1574  0.3274  0.3327
  980loPI   C3B13993   7.954   6.131   7.658 -0.2943  0.0639  0.4551
  980loPI   C4B13994   8.034   6.257   8.139  0.0122  0.0169 -0.0432
  981loPI    C113995   3.076  14.856   6.712  0.2000  0.0689 -0.0099
  981loPI    C213996   2.682  14.923   6.720  0.2178  0.1505  0.2705
  981loPI    C313997   2.913  15.117   6.457  0.0297 -0.1438 -0.1229
  981loPI   PO413998   3.075  14.642   6.906 -0.4040 -0.1667 -0.0652
  981loPI   GL113999   2.638  14.490   6.999  0.3892  0.1924 -0.1291
  981loPI   GL214000   2.649  14.264   7.272 -0.0456  0.2007  0.0614
  981loPI   C1A14001   2.537  14.660   7.440 -0.2182  0.0549 -0.0164
  981loPI   C2A14002   2.567  14.730   7.859 -0.3329  0.2338  0.0626
  981loPI   C3A14003   2.601  14.661   8.316  0.5758  0.1096 -0.1444
  981loPI   C4A14004   2.453  14.718   8.683 -0.0244 -0.1441  0.0228
  981loPI   C5A14005   2.215  14.685   9.006 -0.0171  0.0848 -0.0203
  981loPI   C6A14006   1.989  14.839   9.339  0.1210  0.0213  0.1049
  981loPI   C1B14007   2.746  14.241   7.742 -0.1103 -0.0487  0.0621
  981loPI   C2B14008   2.689  14.197   8.150 -0.0695  0.1919  0.0034
  981loPI   C3B14009   2.668  14.180   8.589 -0.0604 -0.0271  0.0098
  981loPI   C4B14010   3.004  14.084   8.852  0.1453  0.1187  0.0114
  982loPI    C114011  10.422  15.301   5.878  0.1054 -0.0690  0.0520
  982loPI    C214012  10.752  15.279   5.652  0.0366 -0.3565 -0.0252
  982loPI    C314013  10.407  15.128   5.518 -0.2069  0.2179 -0.0785
  982loPI   PO414014  10.360  15.312   6.018 -0.2646  0.3513  0.1397
  982loPI   GL114015  10.432  15.444   6.442  0.1999 -0.0264  0.4830
  982loPI   GL214016  10.183  15.517   6.490 -0.1169 -0.1546  0.2712
  982loPI   C1A14017  10.435  15.227   6.832  0.2399  0.2356 -0.2636
  982loPI   C2A14018  10.300  15.248   7.251 -0.0304  0.0666  0.2078
  982loPI   C3A14019  10.310  15.406   7.591 -0.1658 -0.0900 -0.0647
  982loPI   C4A14020  10.282  15.524   7.994 -0.1563 -0.0859 -0.2530
  982loPI   C5A14021  10.228  15.420   8.495  0.1721 -0.0668 -0.0110
  982loPI   C6A14022  10.476  15.316   8.861  0.1072 -0.0899 -0.0760
  982loPI   C1B14023  10.383  15.859   6.816 -0.0747  0.0361 -0.0996
  982loPI   C2B14024  10.353  15.898   7.404 -0.0761  0.1912 -0.1357
  982loPI   C3B14025  10.411  15.978   7.870 -0.0652 -0.0386  0.2150
  982loPI   C4B14026  10.673  16.054   8.207  0.0484  0.0855  0.2706
  983loPI    C114027   9.342  11.887   5.989 -0.1379  0.1838 -0.1621
  983loPI    C214028   8.992  12.009   5.837 -0.2207  0.0092 -0.1143
  983loPI    C314029   9.141  11.651   5.736 -0.1841 -0.0283  0.0681
  983loPI   PO414030   9.335  11.858   6.309  0.0023  0.0268  0.4431
  983loPI   GL114031   9.140  11.915   6.667 -0.2488  0.2072 -0.1649
  983loPI   GL214032   8.868  11.667   6.687 -0.0408  0.1567 -0.0900
  983loPI   C1A14033   9.338  11.778   7.024 -0.0429  0.3497 -0.0058
  983loPI   C2A14034   9.373  11.748   7.425  0.0596  0.2063  0.0020
  983loPI   C3A14035   9.488  11.739   7.861 -0.0648 -0.3593 -0.2281
  983loPI   C4A14036   9.587  11.726   8.241  0.0429 -0.2532 -0.3813
  983loPI   C5A14037   9.500  11.533   8.590 -0.0089 -0.2908  0.0843
  983loPI   C6A14038   9.351  11.207   8.874 -0.0674 -0.2111 -0.1154
  983loPI   C1B14039   8.745  11.532   7.092 -0.1522 -0.1139  0.3872
  983loPI   C2B14040   8.770  11.581   7.337 -0.0413 -0.1112  0.0181
  983loPI   C3B14041   8.904  11.534   7.783 -0.1683 -0.1744 -0.0950
  983loPI   C4B14042   9.044  11.585   8.291 -0.0462 -0.1391  0.0359
  984loPI    C114043  16.118  16.546   6.313 -0.0372 -0.3948 -0.1008
  984loPI    C214044  15.804  16.593   6.070 -0.1472 -0.0867  0.0956
  984loPI    C314045  16.120  16.837   6.039 -0.0546 -0.2054  0.0979
  984loPI   PO414046  16.052  16.578   6.570 -0.2901  0.0127  0.0999
  984loPI   GL114047  15.935  16.739   6.909  0.3826  0.0641  0.2350
  984loPI   GL214048  15.712  16.536   7.054  0.0899  0.0731 -0.1123
  984loPI   C1A14049  15.954  16.976   7.252  0.2216 -0.2178 -0.0712
  984loPI   C2A14050  15.872  17.176   7.561  0.2895  0.0630  0.0304
  984loPI   C3A14051  15.864  17.047   8.003 -0.2299 -0.0855 -0.2495
  984loPI   C4A14052  15.958  16.834   8.438 -0.0519 -0.1429  0.1662
  984loPI   C5A14053  15.961  16.994   8.840  0.7746  0.1347 -0.2569
  984loPI   C6A14054  15.930  16.725   9.169 -0.1534 -0.1075  0.1697
  984loPI   C1B14055  15.798  16.529   7.481  0.2231  0.2021 -0.0507
  984loPI   C2B14056  15.855  16.575   7.839  0.2836 -0.0326  0.1583
  984loPI   C3B14057  15.641  16.541   8.198 -0.2281 -0.0091  0.1160
  984loPI   C4B14058  15.572  16.665   8.670  0.2186  0.0242  0.0947
  985loPI    C114059  11.930  13.746   6.062  0.0249  0.1174  0.0573
  985loPI    C214060  11.673  13.761   5.756  0.0727  0.1165  0.0169
  985loPI    C314061  12.040  13.612   5.702  0.1556  0.3146  0.0218
  985loPI   PO414062  11.797  13.594   6.303  0.1304  0.4036  0.2021
  985loPI   GL114063  11.609  13.701   6.652  0.1982  0.1126 -0.0468
  985loPI   GL214064  11.885  13.413   6.761 -0.1720  0.2257  0.0308
  985loPI   C1A14065  11.360  13.495   6.937 -0.0636  0.0800 -0.0678
  985loPI   C2A14066  11.325  13.558   7.399  0.1075 -0.2819  0.0218
  985loPI   C3A14067  11.399  13.764   7.822  0.1701  0.1050 -0.0061
  985loPI   C4A14068  11.425  13.970   8.229  0.0582  0.1753 -0.0478
  985loPI   C5A14069  11.552  14.126   8.567  0.0766 -0.2107  0.0093
  985loPI   C6A14070  11.340  14.480   8.829  0.0096  0.0498 -0.2406
  985loPI   C1B14071  11.772  13.378   7.196  0.1734  0.1571 -0.0613
  985loPI   C2B14072  11.684  13.354   7.607 -0.3222  0.0053 -0.0404
  985loPI   C3B14073  11.743  13.391   7.988  0.2162  0.2188 -0.1782
  985loPI   C4B14074  11.802  13.351   8.512 -0.5854 -0.0357  0.2479
  986loPI    C114075  15.215   0.599   6.027 -0.0410  0.2232 -0.1768
  986loPI    C214076  14.835   0.650   5.912 -0.1730  0.0101  0.1508
  986loPI    C314077  15.010   0.292   5.872 -0.1013  0.0315  0.2664
  986loPI   PO414078  15.221   0.746   6.307  0.0066 -0.0952 -0.0809
  986loPI   GL114079  15.162   0.779   6.719 -0.0740  0.0462  0.0786
  986loPI   GL214080  14.989   0.958   6.741  0.2546 -0.0533  0.5426
  986loPI   C1A14081  15.141   0.507   7.028  0.2312 -0.1284 -0.0328
  986loPI   C2A14082  15.099   0.427   7.496  0.1478  0.0648  0.2837
  986loPI   C3A14083  15.079   0.483   7.953 -0.1534 -0.0595 -0.0362
  986loPI   C4A14084  15.148   0.570   8.313  0.1327  0.1663  0.1946
  986loPI   C5A14085  15.008   0.851   8.662  0.2144 -0.1664 -0.3812
  986loPI   C6A14086  15.132   0.724   9.077 -0.5319 -0.0357  0.1682
  986loPI   C1B14087  14.816   0.911   7.111  0.1911  0.2634  0.2168
  986loPI   C2B14088  14.777   0.788   7.410 -0.0824 -0.0734  0.2642
  986loPI   C3B14089  14.744   0.914   7.797 -0.1310  0.0270  0.0295
  986loPI   C4B14090  14.784   0.918   8.165 -0.1660  0.0099 -0.0164
  987loPI    C114091   4.388   0.233   6.355  0.1455 -0.0190 -0.0672
  987loPI    C214092   4.786   0.216   6.323  0.1427  0.2322 -0.2721
  987loPI    C314093   4.559  -0.060   6.144  0.2253  0.0491 -0.0975
  987loPI   PO414094   4.419   0.293   6.699  0.0717 -0.1212 -0.0237
  987loPI   GL114095   4.524   0.319   7.069 -0.1262  0.0339  0.0750
  987loPI   GL214096   4.543  -0.053   7.161  0.2031  0.0185  0.0089
  987loPI   C1A14097   4.784   0.297   7.359  0.0635  0.2140  0.2701
  987loPI   C2A14098   4.828   0.289   7.791  0.1322  0.0773  0.2269
  987loPI   C3A14099   4.780   0.316   8.220 -0.1280 -0.3575  0.0626
  987loPI   C4A14100   4.782   0.211   8.619 -0.1640  0.0108  0.2027
  987loPI   C5A14101   4.777   0.319   9.064 -0.0049  0.0473  0.1213
  987loPI   C6A14102   5.027   0.562   9.332  0.0637  0.1281  0.4808
  987loPI   C1B14103   4.654  -0.192   7.637  0.0308 -0.0627  0.2892
  987loPI   C2B14104   4.690  -0.176   8.122 -0.0664  0.0397 -0.0992
  987loPI   C3B14105   4.561  -0.269   8.563  0.1353 -0.1394 -0.0978
  987loPI   C4B14106   4.467  -0.604   8.912 -0.0362  0.0791 -0.4386
  988loPI    C114107   3.709  11.651   6.598  0.1660 -0.0332  0.0371
  988loPI    C214108   3.807  11.348   6.356 -0.0376 -0.0439 -0.0340
  988loPI    C314109   3.575  11.645   6.222  0.0518  0.0769  0.0752
  988loPI   PO414110   3.556  11.507   6.862 -0.1329 -0.1598  0.2347
  988loPI   GL114111   3.584  11.142   7.070  0.0737 -0.4742  0.1082
  988loPI   GL214112   3.404  11.250   7.314  0.1180 -0.0052  0.1518
  988loPI   C1A14113   3.851  11.390   7.406 -0.1804 -0.0445 -0.2264
  988loPI   C2A14114   4.111  11.485   7.879  0.2066  0.1175 -0.1426
  988loPI   C3A14115   4.162  11.678   8.202  0.0287 -0.2726 -0.1479
  988loPI   C4A14116   4.539  11.874   8.424  0.3208 -0.2011 -0.0414
  988loPI   C5A14117   4.762  11.690   8.672 -0.0496  0.0718 -0.1041
  988loPI   C6A14118   4.885  11.264   8.521 -0.1416  0.1281  0.2606
  988loPI   C1B14119   3.270  11.127   7.689  0.1426  0.1257  0.0366
  988loPI   C2B14120   3.048  11.072   8.054 -0.0460  0.0358 -0.0704
  988loPI   C3B14121   3.003  11.299   8.419 -0.2067  0.1350 -0.2265
  988loPI   C4B14122   3.042  11.305   8.860 -0.0145 -0.2331 -0.0692
  989loPI    C114123   8.006  16.381   6.228  0.1608 -0.0072  0.0584
  989loPI    C214124   7.938  16.004   6.115 -0.0877  0.0325  0.0699
  989loPI    C314125   8.141  16.251   5.875  0.1229 -0.1223  0.0859
  989loPI   PO414126   8.099  16.337   6.480  0.0465  0.2652  0.0056
  989loPI   GL114127   7.968  16.632   6.837 -0.0377  0.0102  0.1371
  989loPI   GL214128   7.769  16.414   6.901 -0.4702  0.2378  0.0056
  989loPI   C1A14129   8.194  16.616   7.083 -0.0788 -0.0122 -0.0514
  989loPI   C2A14130   8.344  16.653   7.457  0.0381  0.0673 -0.0272
  989loPI   C3A14131   8.404  16.629   7.851  0.3045  0.0228  0.4491
  989loPI   C4A14132   8.407  16.591   8.304  0.0128 -0.2107 -0.0339
  989loPI   C5A14133   8.483  16.891   8.632 -0.2274 -0.0945  0.1778
  989loPI   C6A14134   8.502  17.292   8.744 -0.1804 -0.0658  0.2358
  989loPI   C1B14135   7.849  16.535   7.387  0.2194 -0.0612  0.0204
  989loPI   C2B14136   7.917  16.511   7.753  0.2987  0.0237  0.4523
  989loPI   C3B14137   7.981  16.552   8.139  0.1784  0.0106  0.2135
  989loPI   C4B14138   7.966  16.330   8.519 -0.0717 -0.3058 -0.0621
  990loPI    C114139  16.258   3.038   5.927 -0.0576  0.0681 -0.0417
  990loPI    C214140  16.258   2.650   5.830  0.1777 -0.0086  0.2508
  990loPI    C314141  16.515   2.901   5.654  0.1619 -0.0232  0.2069
  990loPI   PO414142  16.417   3.040   6.195 -0.0209 -0.2022 -0.0391
  990loPI   GL114143  16.338   3.062   6.553  0.2180 -0.0900 -0.3663
  990loPI   GL214144  16.216   3.315   6.721  0.0004 -0.0424 -0.3487
  990loPI   C1A14145  16.407   2.826   6.943  0.5038  0.0473  0.2139
  990loPI   C2A14146  16.294   2.713   7.317 -0.0141 -0.2527 -0.0844
  990loPI   C3A14147  16.177   2.732   7.770 -0.0809  0.1176  0.2725
  990loPI   C4A14148  16.175   2.673   8.221  0.2143 -0.0693 -0.3000
  990loPI   C5A14149  16.108   2.643   8.672  0.0714 -0.0593  0.2903
  990loPI   C6A14150  16.040   2.411   9.002 -0.0256 -0.2233  0.0458
  990loPI   C1B14151  16.319   3.291   7.192  0.0808  0.0100  0.0067
  990loPI   C2B14152  16.371   3.220   7.612 -0.0465 -0.0482 -0.0896
  990loPI   C3B14153  16.331   3.193   8.106  0.1122 -0.1342 -0.0987
  990loPI   C4B14154  16.384   3.085   8.507 -0.0140  0.2901  0.2128
  991loPI    C114155   7.833  12.274   5.954  0.0874  0.0426  0.1548
  991loPI    C214156   7.970  12.649   5.933 -0.0079  0.0699  0.0067
  991loPI    C314157   7.612  12.558   5.780  0.0159 -0.0821  0.0401
  991loPI   PO414158   7.938  12.172   6.177  0.0491  0.0583  0.0814
  991loPI   GL114159   8.149  12.036   6.604  0.1247  0.3032  0.3677
  991loPI   GL214160   8.159  12.362   6.554  0.3903 -0.1154  0.2497
  991loPI   C1A14161   8.426  11.968   7.010 -0.0750  0.4324 -0.1680
  991loPI   C2A14162   8.465  11.937   7.392  0.0172  0.3217  0.1038
  991loPI   C3A14163   8.509  11.874   7.732 -0.1587 -0.2038  0.1712
  991loPI   C4A14164   8.669  11.950   8.148  0.3305  0.1188 -0.2633
  991loPI   C5A14165   8.574  11.851   8.572  0.0140 -0.3800  0.0626
  991loPI   C6A14166   8.317  11.698   8.924 -0.0129 -0.1505  0.0150
  991loPI   C1B14167   8.337  12.389   6.844 -0.0779 -0.1294 -0.0392
  991loPI   C2B14168   8.488  12.407   7.282  0.0349 -0.1291 -0.2335
  991loPI   C3B14169   8.702  12.419   7.681 -0.1663  0.0089  0.0481
  991loPI   C4B14170   8.754  12.576   8.133 -0.4292  0.3675  0.0193
  992loPI    C114171   2.849   5.656   6.288  0.3749  0.1082 -0.0587
  992loPI    C214172   2.784   5.719   5.898 -0.1740  0.0788  0.0209
  992loPI    C314173   2.710   5.360   6.058  0.2856  0.0179  0.1101
  992loPI   PO414174   2.737   5.852   6.455 -0.3926  0.0385 -0.2865
  992loPI   GL114175   2.533   6.089   6.714 -0.2292 -0.0257  0.0953
  992loPI   GL214176   2.258   5.891   6.793 -0.0289 -0.0847  0.1204
  992loPI   C1A14177   2.631   6.050   7.137  0.1422 -0.3475 -0.2378
  992loPI   C2A14178   2.658   5.972   7.562  0.0669  0.2817 -0.0155
  992loPI   C3A14179   2.657   5.947   7.959  0.1020  0.3858  0.1718
  992loPI   C4A14180   2.727   6.040   8.325 -0.3246  0.1236 -0.0812
  992loPI   C5A14181   2.775   6.007   8.738  0.0609  0.1384  0.2135
  992loPI   C6A14182   2.696   5.927   9.137 -0.4910 -0.0152 -0.2167
  992loPI   C1B14183   2.106   5.914   7.138  0.0231  0.0140 -0.1244
  992loPI   C2B14184   2.187   5.909   7.519  0.0215  0.3995 -0.2113
  992loPI   C3B14185   2.145   5.849   7.998 -0.2512  0.0165 -0.2216
  992loPI   C4B14186   2.277   5.968   8.394  0.2321 -0.0420 -0.2489
  993loPI    C114187  16.812  12.622   6.461  0.0670  0.2389 -0.1810
  993loPI    C214188  16.569  12.832   6.223 -0.1021  0.1462 -0.0922
  993loPI    C314189  16.438  12.496   6.396  0.0461  0.1689  0.0665
  993loPI   PO414190  17.059  12.897   6.513 -0.0206  0.3583  0.1139
  993loPI   GL114191  17.082  12.989   6.853  0.0898  0.3204  0.1223
  993loPI   GL214192  16.948  12.792   7.013 -0.4011  0.0612  0.1910
  993loPI   C1A14193  17.179  13.124   7.299 -0.0976 -0.1698 -0.2639
  993loPI   C2A14194  17.229  13.189   7.793  0.1008 -0.0914  0.0014
  993loPI   C3A14195  17.294  13.384   8.147  0.3065  0.0853 -0.0418
  993loPI   C4A14196  17.230  13.416   8.626  0.1172 -0.0641  0.2251
  993loPI   C5A14197  17.462  13.241   8.950  0.4853  0.4093 -0.2172
  993loPI   C6A14198  17.732  13.253   9.208 -0.2812 -0.2245  0.0430
  993loPI   C1B14199  16.895  12.813   7.481 -0.0953  0.2649 -0.0781
  993loPI   C2B14200  16.812  12.885   7.905  0.1905  0.0891  0.0491
  993loPI   C3B14201  16.969  13.030   8.286 -0.1282  0.1944 -0.0510
  993loPI   C4B14202  17.093  12.942   8.773 -0.3022 -0.2378  0.2784
  994loPI    C114203  14.399   9.723   6.060  0.0398 -0.0051 -0.1205
  994loPI    C214204  14.650   9.836   5.769 -0.1119  0.0164 -0.2448
  994loPI    C314205  14.334   9.606   5.683 -0.2047  0.0920 -0.1106
  994loPI   PO414206  14.367   9.793   6.215  0.1207 -0.1222 -0.1881
  994loPI   GL114207  14.628   9.894   6.672 -0.0894 -0.3120 -0.1098
  994loPI   GL214208  14.283   9.867   6.782 -0.1150 -0.0096 -0.0467
  994loPI   C1A14209  14.800   9.985   7.112  0.0202  0.0012 -0.0294
  994loPI   C2A14210  14.789   9.920   7.567  0.1774  0.1221  0.0108
  994loPI   C3A14211  14.669   9.939   7.958 -0.0572 -0.0332  0.0265
  994loPI   C4A14212  14.562   9.873   8.408 -0.1492 -0.4020  0.0791
  994loPI   C5A14213  14.480   9.958   8.791  0.2031 -0.1347 -0.2054
  994loPI   C6A14214  14.052   9.978   8.780  0.1329  0.2007  0.0468
  994loPI   C1B14215  14.340   9.849   7.172 -0.2477 -0.2834 -0.0346
  994loPI   C2B14216  14.291   9.796   7.487 -0.0767  0.0115 -0.0592
  994loPI   C3B14217  14.108   9.763   7.916  0.0031 -0.2838 -0.1056
  994loPI   C4B14218  13.957   9.756   8.349  0.1555 -0.0338 -0.1138
  995loPI    C114219   2.775  16.856   6.976 -0.0825  0.2561  0.0085
  995loPI    C214220   2.846  16.681   6.624  0.0222 -0.0031  0.1558
  995loPI    C314221   2.657  17.033   6.638 -0.1383 -0.0742 -0.1482
  995loPI   PO414222   2.704  16.662   7.108 -0.2310  0.2141 -0.0080
  995loPI   GL114223   2.750  16.670   7.528 -0.1656  0.2470 -0.1184
  995loPI   GL214224   3.066  16.631   7.411  0.1609  0.0487 -0.1351
  995loPI   C1A14225   2.895  16.920   7.925  0.0816  0.0476  0.3106
  995loPI   C2A14226   2.965  17.050   8.346  0.0295  0.2362 -0.3144
  995loPI   C3A14227   2.989  17.188   8.856 -0.3448 -0.0915 -0.0139
  995loPI   C4A14228   2.970  17.340   9.202 -0.0600  0.1821 -0.3426
  995loPI   C5A14229   2.608  17.365   9.296  0.1288 -0.0400 -0.1545
  995loPI   C6A14230   2.214  17.538   9.161 -0.1371  0.1885  0.3665
  995loPI   C1B14231   3.011  16.379   7.761  0.1332 -0.0188 -0.0631
  995loPI   C2B14232   2.973  16.115   8.103 -0.3994 -0.0696  0.0949
  995loPI   C3B14233   2.954  16.065   8.577 -0.0249  0.2091  0.0714
  995loPI   C4B14234   3.220  15.932   8.912  0.2580  0.2405  0.0592
  996loPI    C114235  16.303  10.880   6.587  0.2582 -0.0743  0.0926
  996loPI    C214236  16.536  10.608   6.408 -0.1514 -0.2084 -0.2529
  996loPI    C314237  16.455  10.955   6.224  0.1493  0.0403  0.0699
  996loPI   PO414238  16.322  10.833   6.811 -0.2412 -0.1181 -0.1182
  996loPI   GL114239  16.536  10.936   7.178 -0.1098  0.3424 -0.0255
  996loPI   GL214240  16.843  11.209   7.285  0.3158  0.3179  0.0763
  996loPI   C1A14241  16.482  10.958   7.521 -0.3756 -0.0306 -0.0951
  996loPI   C2A14242  16.403  11.005   7.895  0.1046  0.2811 -0.1049
  996loPI   C3A14243  16.454  11.093   8.362  0.0527 -0.0541  0.2438
  996loPI   C4A14244  16.434  11.159   8.771 -0.1596  0.0799 -0.1629
  996loPI   C5A14245  16.295  11.380   9.113 -0.1343 -0.0048 -0.1362
  996loPI   C6A14246  16.222  11.289   9.575  0.2314  0.0251 -0.1407
  996loPI   C1B14247  16.891  11.168   7.683  0.0602 -0.4494  0.0546
  996loPI   C2B14248  16.848  11.181   8.070  0.6644 -0.1106 -0.1442
  996loPI   C3B14249  16.962  11.062   8.419 -0.0987  0.2022 -0.0379
  996loPI   C4B14250  16.899  11.049   8.855 -0.0497  0.3732 -0.0292
  997loPI    C114251   0.685   6.557   5.952  0.1340  0.0714 -0.0952
  997loPI    C214252   1.051   6.424   6.043  0.1045  0.0087 -0.0667
  997loPI    C314253   1.006   6.770   5.847  0.1777  0.0285 -0.0492
  997loPI   PO414254   0.530   6.486   6.255 -0.1098  0.0135  0.1262
  997loPI   GL114255   0.442   6.450   6.742 -0.2246  0.0244  0.0669
  997loPI   GL214256   0.667   6.273   6.894 -0.2980  0.1874  0.3784
  997loPI   C1A14257   0.429   6.488   7.223 -0.2028  0.0494 -0.2599
  997loPI   C2A14258   0.282   6.402   7.540  0.0184 -0.2199 -0.1497
  997loPI   C3A14259   0.502   6.331   7.882  0.0970 -0.0825  0.0411
  997loPI   C4A14260   0.565   6.290   8.351  0.2561  0.1024  0.1301
  997loPI   C5A14261   0.606   6.174   8.798 -0.4595 -0.1822 -0.2148
  997loPI   C6A14262   0.293   6.340   9.193  0.1770  0.1268  0.1976
  997loPI   C1B14263   0.708   6.101   7.399 -0.2168  0.0870  0.2035
  997loPI   C2B14264   0.851   6.029   7.726  0.1029  0.0264 -0.0626
  997loPI   C3B14265   0.809   5.918   8.127  0.0447  0.1394  0.3101
  997loPI   C4B14266   0.951   5.857   8.498  0.2142  0.2701 -0.0611
  998loPI    C114267   8.288   6.752   5.533  0.1645 -0.1602 -0.0602
  998loPI    C214268   8.593   6.947   5.363  0.0367  0.1205  0.0262
  998loPI    C314269   8.220   7.009   5.234 -0.0095 -0.0416  0.0794
  998loPI   PO414270   8.511   6.687   5.792  0.0804 -0.1289  0.0618
  998loPI   GL114271   8.612   6.798   6.252 -0.1792  0.0821  0.1109
  998loPI   GL214272   8.663   7.085   6.269  0.2301  0.0967  0.1658
  998loPI   C1A14273   8.424   6.486   6.560 -0.0942  0.0568  0.4050
  998loPI   C2A14274   8.412   6.339   7.016 -0.0116  0.0058 -0.1521
  998loPI   C3A14275   8.465   6.242   7.463 -0.0800 -0.1480 -0.0733
  998loPI   C4A14276   8.596   6.285   7.846  0.1339 -0.3499 -0.0247
  998loPI   C5A14277   8.513   6.424   8.197  0.2346  0.3195  0.1377
  998loPI   C6A14278   8.326   6.321   8.540  0.3416  0.1296 -0.0809
  998loPI   C1B14279   8.775   6.833   6.687  0.0149  0.1426 -0.1840
  998loPI   C2B14280   8.655   6.751   7.075  0.3451  0.0174  0.3012
  998loPI   C3B14281   8.616   6.715   7.535 -0.1594 -0.1457  0.2642
  998loPI   C4B14282   8.739   6.821   7.935  0.0336 -0.1369 -0.1328
  999loPI    C114283   7.132  13.124   6.425 -0.0285 -0.0918  0.1597
  999loPI    C214284   6.766  13.014   6.307  0.0289 -0.0026 -0.1091
  999loPI    C314285   7.078  12.771   6.244  0.0530  0.0255 -0.0976
  999loPI   PO414286   7.046  13.259   6.667  0.3129 -0.0940 -0.1382
  999loPI   GL114287   7.274  13.260   7.049 -0.1253  0.0440 -0.1537
  999loPI   GL214288   7.307  12.994   6.990  0.1826  0.1442 -0.0632
  999loPI   C1A14289   7.196  13.258   7.470 -0.0130 -0.1077  0.1652
  999loPI   C2A14290   7.204  13.196   7.883 -0.2565 -0.0730 -0.1348
  999loPI   C3A14291   7.489  13.063   8.171  0.1847  0.4188 -0.0320
  999loPI   C4A14292   7.557  13.074   8.651 -0.0975 -0.0413  0.0383
  999loPI   C5A14293   7.768  13.196   9.065  0.0462  0.1706 -0.1253
  999loPI   C6A14294   7.807  13.105   9.478 -0.0682 -0.0722 -0.3101
  999loPI   C1B14295   7.278  12.806   7.395 -0.1111 -0.0439 -0.0935
  999loPI   C2B14296   7.376  12.652   7.906 -0.2416  0.0691  0.0358
  999loPI   C3B14297   7.393  12.603   8.380 -0.3560  0.1183 -0.1559
  999loPI   C4B14298   7.561  12.612   8.843 -0.0663  0.0566  0.2397
 1000loPI    C114299  13.485   4.292   5.908 -0.0312  0.0788 -0.5274
 1000loPI    C214300  13.763   4.021   6.005 -0.2255 -0.0295 -0.2621
 1000loPI    C314301  13.869   4.358   5.816  0.1463  0.1151  0.1835
 1000loPI   PO414302  13.367   4.307   6.275 -0.2575  0.0831 -0.0064
 1000loPI   GL114303  13.425   4.093   6.651  0.3227  0.0429  0.1306
 1000loPI   GL214304  13.568   4.355   6.805  0.0167  0.5022  0.0153
 1000loPI   C1A14305  13.484   3.853   7.016 -0.5075 -0.2013  0.1250
 1000loPI   C2A14306  13.596   3.920   7.423  0.1220 -0.1566 -0.1316
 1000loPI   C3A14307  13.563   3.796   7.918 -0.1060  0.1664  0.0622
 1000loPI   C4A14308  13.607   3.736   8.333  0.0603 -0.1982 -0.2093
 1000loPI   C5A14309  13.724   3.885   8.775 -0.0374 -0.0068 -0.0901
 1000loPI   C6A14310  13.418   3.594   9.039  0.1168  0.0386  0.0068
 1000loPI   C1B14311  13.718   4.435   7.212  0.0063  0.3074 -0.1086
 1000loPI   C2B14312  13.758   4.381   7.661  0.2555  0.0900 -0.1074
 1000loPI   C3B14313  13.747   4.237   8.009 -0.0923 -0.0373 -0.0138
 1000loPI   C4B14314  13.715   4.307   8.411  0.1008 -0.1474 -0.0326
 1001loPI    C114315  13.195   8.118   6.049 -0.1065 -0.0374  0.1546
 1001loPI    C214316  13.137   7.904   5.717 -0.0626  0.0155  0.1127
 1001loPI    C314317  13.496   8.064   5.791 -0.0438 -0.0820  0.2364
 1001loPI   PO414318  13.112   7.965   6.234  0.5302 -0.2386 -0.1219
 1001loPI   GL114319  12.894   7.777   6.633  0.2545 -0.0457 -0.0304
 1001loPI   GL214320  12.612   7.620   6.701 -0.1475 -0.4268  0.1747
 1001loPI   C1A14321  13.288   7.599   6.826  0.0185  0.0373  0.0865
 1001loPI   C2A14322  13.211   7.722   7.247  0.1915 -0.1378  0.0917
 1001loPI   C3A14323  13.186   7.640   7.679 -0.1530 -0.0593 -0.0352
 1001loPI   C4A14324  13.123   7.492   8.053  0.1018  0.2062 -0.0633
 1001loPI   C5A14325  13.131   7.513   8.505 -0.0040  0.3045 -0.3134
 1001loPI   C6A14326  13.029   7.297   8.762 -0.0273  0.2779  0.1633
 1001loPI   C1B14327  12.683   7.544   7.003  0.1482  0.2608 -0.1388
 1001loPI   C2B14328  12.767   7.494   7.440 -0.2030 -0.1823 -0.0029
 1001loPI   C3B14329  12.609   7.361   7.822 -0.3330  0.1110  0.2338
 1001loPI   C4B14330  12.724   7.328   8.363  0.0647  0.3866 -0.1017
 1002loPI    C114331   2.521  15.804   6.787 -0.1173 -0.2441  0.1035
 1002loPI    C214332   2.593  15.437   6.645  0.1738 -0.0836 -0.1773
 1002loPI    C314333   2.414  15.710   6.413 -0.0601 -0.0505  0.0371
 1002loPI   PO414334   2.401  15.855   6.952 -0.1204  0.3662 -0.0649
 1002loPI   GL114335   1.981  16.082   7.081 -0.0353 -0.0292 -0.1883
 1002loPI   GL214336   1.867  15.852   7.151  0.0361 -0.0099  0.0399
 1002loPI   C1A14337   1.986  16.179   7.564  0.1486  0.0062 -0.1365
 1002loPI   C2A14338   2.027  16.246   8.079  0.1959  0.1559 -0.2514
 1002loPI   C3A14339   2.094  16.121   8.481  0.0315 -0.0799 -0.3804
 1002loPI   C4A14340   2.062  16.062   8.951 -0.0130  0.2706  0.2279
 1002loPI   C5A14341   2.042  15.887   9.380 -0.2825 -0.0148  0.0400
 1002loPI   C6A14342   2.357  15.836   9.631 -0.2624 -0.2113 -0.1113
 1002loPI   C1B14343   2.115  15.689   7.504 -0.1215 -0.3368  0.1427
 1002loPI   C2B14344   2.213  15.741   7.938 -0.1423 -0.1952 -0.0280
 1002loPI   C3B14345   2.182  15.634   8.337  0.1830 -0.0772 -0.0435
 1002loPI   C4B14346   1.985  15.629   8.666 -0.0639  0.3571 -0.3065
 1003loPI    C114347   6.249  10.134   6.447 -0.0780 -0.0723 -0.0655
 1003loPI    C214348   6.291  10.390   6.143  0.1514  0.0592  0.0734
 1003loPI    C314349   6.302   9.996   6.075  0.0510  0.0861 -0.1071
 1003loPI   PO414350   6.087  10.252   6.627  0.3815 -0.1180 -0.2632
 1003loPI   GL114351   6.118  10.481   6.917 -0.1770 -0.2374 -0.0602
 1003loPI   GL214352   6.279  10.685   7.031  0.3010 -0.2918 -0.0008
 1003loPI   C1A14353   5.869  10.575   7.282 -0.1521  0.0071 -0.3069
 1003loPI   C2A14354   5.776  10.844   7.649 -0.0822 -0.1252  0.2132
 1003loPI   C3A14355   5.717  10.984   8.041  0.1766 -0.1079  0.1693
 1003loPI   C4A14356   5.470  11.124   8.373 -0.0348 -0.2073  0.1530
 1003loPI   C5A14357   5.596  10.925   8.677  0.1578  0.1668 -0.2052
 1003loPI   C6A14358   5.682  11.052   9.204  0.0837  0.0857 -0.3242
 1003loPI   C1B14359   6.381  10.440   7.364  0.0062  0.0880  0.0489
 1003loPI   C2B14360   6.330  10.422   7.619  0.0080  0.0389 -0.2582
 1003loPI   C3B14361   6.309  10.196   7.972  0.1096  0.1286  0.2088
 1003loPI   C4B14362   6.316  10.256   8.350 -0.2889  0.2110 -0.0499
 1004loPI    C114363   3.254   0.927   6.651 -0.0279  0.0346 -0.0040
 1004loPI    C214364   3.491   0.664   6.464 -0.0692 -0.0502  0.0622
 1004loPI    C314365   3.117   0.724   6.334 -0.0359  0.0300  0.0024
 1004loPI   PO414366   3.455   0.983   6.882  0.2149  0.1148 -0.0670
 1004loPI   GL114367   3.511   1.278   7.130 -0.1059 -0.2131 -0.1139
 1004loPI   GL214368   3.259   1.439   7.198  0.0608  0.1052  0.0013
 1004loPI   C1A14369   3.753   1.464   7.494 -0.0613  0.2328  0.0611
 1004loPI   C2A14370   3.667   1.511   7.836 -0.2471 -0.2512 -0.1840
 1004loPI   C3A14371   3.803   1.523   8.190  0.0134  0.3282  0.0708
 1004loPI   C4A14372   3.964   1.549   8.515 -0.0682  0.0757  0.1664
 1004loPI   C5A14373   4.116   1.693   8.885  0.0991 -0.1948  0.0530
 1004loPI   C6A14374   4.460   1.901   9.073 -0.1619 -0.2124 -0.0028
 1004loPI   C1B14375   3.226   1.411   7.647 -0.1195  0.0938  0.2028
 1004loPI   C2B14376   2.935   1.283   7.949  0.5728  0.1073 -0.3355
 1004loPI   C3B14377   2.875   1.322   8.337 -0.4080  0.2569 -0.1425
 1004loPI   C4B14378   2.945   1.442   8.745 -0.0688 -0.2265  0.0887
 1005loPI    C114379   7.502  16.600   6.190  0.0495 -0.0147  0.1133
 1005loPI    C214380   7.743  16.708   5.890 -0.4014  0.4054 -0.1136
 1005loPI    C314381   7.598  16.335   5.907  0.1592  0.1803 -0.0341
 1005loPI   PO414382   7.626  16.648   6.429 -0.0988 -0.2194  0.0141
 1005loPI   GL114383   7.344  16.664   6.775 -0.0305 -0.2669  0.1847
 1005loPI   GL214384   7.192  16.409   6.869  0.1023  0.3338 -0.0665
 1005loPI   C1A14385   7.418  16.810   7.141  0.0636 -0.2696 -0.3970
 1005loPI   C2A14386   7.560  16.887   7.550 -0.0340 -0.0848  0.1754
 1005loPI   C3A14387   7.563  16.938   8.036 -0.2200  0.3006  0.1048
 1005loPI   C4A14388   7.604  16.744   8.465 -0.2173  0.0177 -0.1057
 1005loPI   C5A14389   7.541  16.694   8.844 -0.1573  0.1674  0.1877
 1005loPI   C6A14390   7.506  16.314   9.040 -0.0233  0.0631  0.0743
 1005loPI   C1B14391   7.348  16.352   7.211  0.1058  0.0807 -0.0867
 1005loPI   C2B14392   7.477  16.324   7.651 -0.0833  0.0041 -0.1184
 1005loPI   C3B14393   7.480  16.369   8.145 -0.0072  0.1848  0.1911
 1005loPI   C4B14394   7.396  16.308   8.548  0.1969  0.1075 -0.0835
 1006loPI    C114395  14.307   4.370   6.064 -0.0270  0.1466 -0.1833
 1006loPI    C214396  14.605   4.403   5.798 -0.1463 -0.0791 -0.3484
 1006loPI    C314397  14.348   4.097   5.774 -0.2898  0.0189 -0.1031
 1006loPI   PO414398  14.401   4.422   6.329 -0.2200  0.1329 -0.0931
 1006loPI   GL114399  14.305   4.788   6.564 -0.1150 -0.1293 -0.2162
 1006loPI   GL214400  14.570   4.855   6.600  0.2806 -0.0206  0.6060
 1006loPI   C1A14401  14.179   5.004   6.905  0.1287  0.0210  0.1921
 1006loPI   C2A14402  14.341   5.138   7.285  0.0663 -0.0219  0.3319
 1006loPI   C3A14403  14.352   5.059   7.729  0.0560  0.0136 -0.2900
 1006loPI   C4A14404  14.404   4.978   8.044  0.0045 -0.2251 -0.0500
 1006loPI   C5A14405  14.389   4.863   8.520  0.1929 -0.1612  0.0159
 1006loPI   C6A14406  14.185   4.829   9.016  0.1397 -0.0304  0.2035
 1006loPI   C1B14407  14.746   5.099   6.840  0.0299  0.0967  0.1033
 1006loPI   C2B14408  14.841   5.164   7.183 -0.1517 -0.2493 -0.1165
 1006loPI   C3B14409  14.819   5.244   7.580 -0.1867 -0.1064  0.0498
 1006loPI   C4B14410  14.852   5.251   8.094  0.1088 -0.2333  0.0467
 1007loPI    C114411   2.402   2.915   6.508 -0.0820 -0.0124  0.2250
 1007loPI    C214412   2.142   2.638   6.384 -0.0092  0.0321 -0.0316
 1007loPI    C314413   2.077   3.024   6.303  0.0841  0.0532 -0.0080
 1007loPI   PO414414   2.467   2.960   6.795  0.1038  0.0831  0.5223
 1007loPI   GL114415   2.356   3.306   7.130 -0.0329 -0.2668  0.2836
 1007loPI   GL214416   2.561   3.077   7.248  0.4295 -0.0975 -0.0115
 1007loPI   C1A14417   2.098   3.348   7.483 -0.1125  0.1968 -0.2201
 1007loPI   C2A14418   2.105   3.340   7.870 -0.2424 -0.4934  0.2178
 1007loPI   C3A14419   2.002   3.446   8.318 -0.0108 -0.1094  0.1392
 1007loPI   C4A14420   1.850   3.447   8.712 -0.0045  0.2136  0.0799
 1007loPI   C5A14421   1.883   3.615   9.100  0.0788  0.1094  0.0229
 1007loPI   C6A14422   1.728   3.664   9.411 -0.0511 -0.0421  0.1629
 1007loPI   C1B14423   2.453   3.057   7.627 -0.2690  0.1714  0.0089
 1007loPI   C2B14424   2.450   3.065   8.047 -0.0591  0.1116 -0.0470
 1007loPI   C3B14425   2.365   3.020   8.396  0.2368  0.1770 -0.3507
 1007loPI   C4B14426   2.404   3.049   8.726 -0.2076  0.2946  0.0293
 1008loPI    C114427   0.580  13.584   6.387 -0.0190 -0.0202  0.0984
 1008loPI    C214428   0.517  13.979   6.389 -0.0742 -0.0288  0.0881
 1008loPI    C314429   0.338  13.749   6.115  0.0740 -0.0424  0.0014
 1008loPI   PO414430   0.490  13.398   6.642 -0.1569  0.1756  0.2725
 1008loPI   GL114431   0.268  13.457   7.007  0.1295 -0.0690  0.0872
 1008loPI   GL214432  -0.078  13.518   7.035 -0.2552 -0.1167 -0.0857
 1008loPI   C1A14433   0.504  13.614   7.372  0.4708  0.4023  0.2344
 1008loPI   C2A14434   0.478  13.634   7.814 -0.0824 -0.1372 -0.0070
 1008loPI   C3A14435   0.553  13.673   8.278 -0.2490  0.1007 -0.0595
 1008loPI   C4A14436   0.523  13.685   8.675 -0.3500 -0.1357  0.1978
 1008loPI   C5A14437   0.550  13.740   8.996  0.0350 -0.2063  0.0002
 1008loPI   C6A14438   0.628  13.740   9.422  0.1229 -0.1133 -0.2048
 1008loPI   C1B14439  -0.063  13.597   7.370 -0.1089 -0.1343 -0.1948
 1008loPI   C2B14440  -0.089  13.649   7.734  0.0922  0.0070 -0.1596
 1008loPI   C3B14441  -0.188  13.723   8.283 -0.4994  0.0720 -0.4392
 1008loPI   C4B14442  -0.346  13.833   8.676 -0.0240  0.1984  0.2193
 1009loPI    C114443   3.385   5.840   6.481  0.0179  0.0080  0.1906
 1009loPI    C214444   3.226   6.006   6.154  0.1374 -0.2807 -0.0177
 1009loPI    C314445   3.515   6.197   6.355 -0.2438  0.1024  0.1824
 1009loPI   PO414446   3.229   5.753   6.610 -0.1197 -0.1282  0.0021
 1009loPI   GL114447   3.035   5.912   6.893 -0.1306 -0.1211 -0.0103
 1009loPI   GL214448   2.837   5.608   6.869  0.0466 -0.0743 -0.0506
 1009loPI   C1A14449   3.134   6.048   7.281 -0.1292 -0.2670  0.1805
 1009loPI   C2A14450   3.270   6.028   7.653  0.1236 -0.0532  0.0180
 1009loPI   C3A14451   3.159   6.055   8.077  0.1508 -0.2040  0.1309
 1009loPI   C4A14452   3.209   6.107   8.538 -0.0628 -0.2290 -0.1258
 1009loPI   C5A14453   3.312   6.446   8.807  0.1401 -0.1756  0.1849
 1009loPI   C6A14454   3.533   6.766   8.893 -0.1236  0.2024 -0.0834
 1009loPI   C1B14455   2.592   5.574   7.171 -0.1239 -0.0049  0.0367
 1009loPI   C2B14456   2.480   5.484   7.673 -0.3252  0.1426  0.3419
 1009loPI   C3B14457   2.542   5.419   8.074 -0.2055 -0.0701  0.1406
 1009loPI   C4B14458   2.703   5.417   8.539  0.0443 -0.2640  0.1289
 1010loPI    C114459  13.969  12.692   6.216  0.1375  0.0410  0.2598
 1010loPI    C214460  14.141  13.012   6.049  0.2788 -0.1348  0.0644
 1010loPI    C314461  13.922  12.763   5.825 -0.0661 -0.0237  0.2714
 1010loPI   PO414462  13.960  12.688   6.488 -0.0487  0.0221 -0.0066
 1010loPI   GL114463  13.670  12.585   6.833  0.3359 -0.0969 -0.0830
 1010loPI   GL214464  13.325  12.761   6.739 -0.0443 -0.1602 -0.1558
 1010loPI   C1A14465  13.572  12.497   7.279  0.1455  0.0453  0.1216
 1010loPI   C2A14466  13.482  12.342   7.691 -0.0656  0.0572 -0.1673
 1010loPI   C3A14467  13.416  12.357   8.071  0.0392 -0.0552 -0.3483
 1010loPI   C4A14468  13.304  12.284   8.523 -0.1623  0.3240  0.0208
 1010loPI   C5A14469  12.924  12.287   8.708  0.5687  0.0255  0.0726
 1010loPI   C6A14470  12.607  11.998   8.771  0.4779  0.0409 -0.3331
 1010loPI   C1B14471  13.251  12.876   7.237 -0.0218 -0.0415  0.0100
 1010loPI   C2B14472  13.143  12.813   7.698 -0.0356  0.0337  0.1831
 1010loPI   C3B14473  12.983  12.732   8.080 -0.0547 -0.2498 -0.2825
 1010loPI   C4B14474  12.947  12.767   8.558  0.0661  0.2640  0.2509
 1011loPI    C114475   5.738  16.688   6.494 -0.1072 -0.1945  0.2188
 1011loPI    C214476   5.410  16.522   6.335 -0.0122 -0.0609 -0.1257
 1011loPI    C314477   5.759  16.503   6.139  0.1334  0.0115  0.1228
 1011loPI   PO414478   5.707  16.583   6.725  0.0384 -0.1169  0.0118
 1011loPI   GL114479   5.848  16.250   6.986 -0.2839  0.2322  0.1706
 1011loPI   GL214480   5.926  16.448   7.142  0.0455 -0.1031  0.0106
 1011loPI   C1A14481   5.421  16.270   7.288  0.1261  0.2212  0.1472
 1011loPI   C2A14482   5.432  16.283   7.737  0.2615  0.3155  0.0785
 1011loPI   C3A14483   5.461  16.194   8.259 -0.0072 -0.3575 -0.3366
 1011loPI   C4A14484   5.415  16.371   8.638  0.2243  0.0553  0.0634
 1011loPI   C5A14485   5.601  16.379   9.061 -0.0442  0.3552  0.0591
 1011loPI   C6A14486   5.632  16.001   9.340 -0.0969  0.0877  0.0842
 1011loPI   C1B14487   5.901  16.449   7.506 -0.3906 -0.1022  0.0895
 1011loPI   C2B14488   6.054  16.431   7.993 -0.3521 -0.0438 -0.0275
 1011loPI   C3B14489   5.926  16.537   8.433  0.0345  0.0446  0.1252
 1011loPI   C4B14490   6.050  16.573   8.809  0.1406 -0.0916  0.2532
 1012loPI    C114491   2.970   8.952   6.242 -0.2041  0.2096  0.0443
 1012loPI    C214492   3.163   9.303   6.241  0.0764  0.0601  0.2750
 1012loPI    C314493   2.906   9.216   5.947  0.2028  0.3492  0.0738
 1012loPI   PO414494   2.956   8.906   6.559 -0.2629  0.2664  0.2224
 1012loPI   GL114495   3.093   8.649   6.947 -0.0181  0.0596 -0.0643
 1012loPI   GL214496   3.386   8.825   7.063  0.2865 -0.0032 -0.1922
 1012loPI   C1A14497   3.078   8.483   7.284 -0.1430 -0.0717 -0.0180
 1012loPI   C2A14498   3.044   8.509   7.727 -0.1204 -0.1898  0.3013
 1012loPI   C3A14499   2.945   8.532   8.151  0.1217  0.0088  0.0556
 1012loPI   C4A14500   2.964   8.357   8.517 -0.1291  0.0024  0.0998
 1012loPI   C5A14501   3.073   8.428   8.918 -0.2832 -0.1586 -0.3550
 1012loPI   C6A14502   3.389   8.328   9.279 -0.0831  0.1212  0.0336
 1012loPI   C1B14503   3.417   8.854   7.462  0.1685  0.4329 -0.1003
 1012loPI   C2B14504   3.480   8.662   7.866 -0.0248 -0.1907 -0.0464
 1012loPI   C3B14505   3.392   8.478   8.278 -0.1480  0.0727 -0.1193
 1012loPI   C4B14506   3.569   8.379   8.753 -0.3581 -0.0190 -0.2225
 1013POPI    C114507   7.409  11.985   6.200 -0.1225 -0.1574  0.0150
 1013POPI    C214508   7.384  12.382   6.241 -0.1950 -0.1653  0.0487
 1013POPI    C314509   7.062  12.172   6.133 -0.0753 -0.1767 -0.2962
 1013POPI   PO414510   7.510  11.826   6.372 -0.0697 -0.1370 -0.3330
 1013POPI   GL114511   7.476  11.725   6.771  0.0839 -0.1222 -0.2198
 1013POPI   GL214512   7.323  11.929   6.893  0.0271  0.2059 -0.0036
 1013POPI   C1A14513   7.488  11.553   7.184 -0.1287  0.1273  0.0709
 1013POPI   D2A14514   7.466  11.583   7.604  0.0520  0.1540  0.0103
 1013POPI   C3A14515   7.583  11.641   7.962  0.0280  0.2933 -0.0789
 1013POPI   C4A14516   7.702  11.791   8.311 -0.1343  0.0846  0.0595
 1013POPI   C1B14517   7.576  12.032   7.300  0.2485  0.0719 -0.0531
 1013POPI   C2B14518   7.738  12.103   7.719 -0.1244  0.1731  0.1085
 1013POPI   C3B14519   7.675  12.253   8.159 -0.0619  0.2854  0.3793
 1013POPI   C4B14520   7.765  12.226   8.554 -0.1269  0.0038  0.0325
 1014POPI    C114521   5.139  10.506   6.488  0.1531 -0.1500  0.0055
 1014POPI    C214522   5.061  10.896   6.529  0.0465 -0.1815  0.1082
 1014POPI    C314523   5.430  10.758   6.598  0.1018 -0.0889  0.0020
 1014POPI   PO414524   4.995  10.324   6.655  0.1381 -0.2690 -0.1839
 1014POPI   GL114525   5.036  10.099   7.070  0.0060  0.2973 -0.3109
 1014POPI   GL214526   5.328  10.053   7.144 -0.2573 -0.2667 -0.0225
 1014POPI   C1A14527   4.955  10.372   7.453 -0.3796 -0.1254 -0.1624
 1014POPI   D2A14528   4.909  10.488   7.909 -0.0709 -0.1730 -0.3485
 1014POPI   C3A14529   4.956  10.378   8.293  0.0393  0.3712 -0.0734
 1014POPI   C4A14530   4.857  10.355   8.804 -0.1540 -0.1201 -0.2024
 1014POPI   C1B14531   5.524  10.212   7.395 -0.1059  0.2885  0.0391
 1014POPI   C2B14532   5.460  10.421   7.759  0.0705 -0.2746  0.3085
 1014POPI   C3B14533   5.454  10.596   8.186  0.1099  0.0269  0.2684
 1014POPI   C4B14534   5.445  10.375   8.525  0.1548 -0.0170  0.0031
 1015POPI    C114535   5.927   5.421   6.425 -0.0245 -0.1645  0.1944
 1015POPI    C214536   5.649   5.666   6.274  0.0701 -0.0752  0.1638
 1015POPI    C314537   5.773   5.349   6.063  0.1831  0.0345  0.0634
 1015POPI   PO414538   6.231   5.562   6.475 -0.0674  0.2630 -0.2237
 1015POPI   GL114539   6.607   5.489   6.785  0.0553 -0.0098  0.0461
 1015POPI   GL214540   6.868   5.302   6.816  0.2004 -0.1520 -0.1166
 1015POPI   C1A14541   6.428   5.563   7.284  0.2201 -0.1784  0.3027
 1015POPI   D2A14542   6.406   5.557   7.740  0.1009  0.0574  0.0705
 1015POPI   C3A14543   6.385   5.472   8.092 -0.1199  0.1309 -0.2522
 1015POPI   C4A14544   6.338   5.635   8.554 -0.0017  0.3129  0.0764
 1015POPI   C1B14545   6.878   5.238   7.200 -0.1038 -0.0420 -0.1008
 1015POPI   C2B14546   6.900   5.341   7.551  0.0346 -0.1622  0.1917
 1015POPI   C3B14547   6.864   5.181   8.046 -0.0451  0.1750  0.2097
 1015POPI   C4B14548   7.092   5.074   8.433  0.1296  0.0876  0.0486
 1016POPI    C114549   4.066  13.757   6.907 -0.1519  0.0061 -0.0514
 1016POPI    C214550   3.937  13.698   6.533 -0.0665 -0.0411 -0.0737
 1016POPI    C314551   4.001  14.070   6.667 -0.3356 -0.0109 -0.0249
 1016POPI   PO414552   3.883  13.597   7.104  0.2431 -0.0758  0.2175
 1016POPI   GL114553   3.985  13.556   7.468 -0.0678  0.0307  0.3083
 1016POPI   GL214554   4.041  13.911   7.451  0.1745 -0.1086 -0.1581
 1016POPI   C1A14555   4.116  13.471   7.905 -0.2289 -0.0706  0.0376
 1016POPI   D2A14556   4.308  13.692   8.376 -0.5085 -0.0505  0.2308
 1016POPI   C3A14557   4.716  13.799   8.638  0.0602 -0.0379 -0.1148
 1016POPI   C4A14558   4.581  13.908   8.976  0.2580 -0.0946  0.0280
 1016POPI   C1B14559   3.964  14.024   7.858 -0.2931  0.1587 -0.0396
 1016POPI   C2B14560   3.867  14.076   8.245 -0.1923  0.1709  0.1274
 1016POPI   C3B14561   3.692  13.900   8.583  0.3323 -0.1376 -0.0566
 1016POPI   C4B14562   3.747  13.582   8.799 -0.0275 -0.0661  0.1862
 1017POPI    C114563  16.719  11.279   6.755 -0.4484  0.0110 -0.0501
 1017POPI    C214564  16.607  11.494   6.436  0.2532  0.0647 -0.2766
 1017POPI    C314565  16.859  11.186   6.392  0.0990 -0.1382  0.1892
 1017POPI   PO414566  16.476  11.337   6.885 -0.0881  0.0221  0.0780
 1017POPI   GL114567  16.168  11.514   7.160  0.1546  0.1571  0.2462
 1017POPI   GL214568  16.456  11.596   7.328 -0.1820  0.2492 -0.1253
 1017POPI   C1A14569  16.046  11.225   7.545  0.3242  0.1606 -0.1422
 1017POPI   D2A14570  15.983  11.266   7.959  0.1028 -0.0433 -0.0058
 1017POPI   C3A14571  15.959  11.300   8.315  0.2815 -0.3452  0.2207
 1017POPI   C4A14572  16.102  11.477   8.533 -0.3006 -0.2049  0.0888
 1017POPI   C1B14573  16.497  11.432   7.702  0.2158 -0.0904 -0.0563
 1017POPI   C2B14574  16.374  11.529   8.093  0.4495 -0.3107 -0.3058
 1017POPI   C3B14575  16.671  11.554   8.517  0.1785  0.1563  0.0291
 1017POPI   C4B14576  16.755  11.558   8.931  0.1387  0.2481  0.0066
 1018POPI    C114577  12.867  14.128   6.140  0.0013  0.0185  0.0013
 1018POPI    C214578  12.899  13.810   6.381 -0.0193 -0.1820 -0.2551
 1018POPI    C314579  12.576  13.854   6.149 -0.1407  0.1669 -0.0292
 1018POPI   PO414580  12.926  14.324   6.334 -0.1123 -0.1517  0.2256
 1018POPI   GL114581  12.877  14.498   6.700  0.3649  0.1637  0.3233
 1018POPI   GL214582  13.010  14.806   6.613  0.1998  0.3799  0.2214
 1018POPI   C1A14583  12.574  14.573   7.094  0.0697 -0.0444  0.2513
 1018POPI   D2A14584  12.378  14.479   7.385  0.0616  0.4125  0.1665
 1018POPI   C3A14585  12.552  14.476   7.825 -0.0036 -0.0159 -0.0906
 1018POPI   C4A14586  12.574  14.577   8.302  0.1121 -0.1382 -0.0225
 1018POPI   C1B14587  13.059  14.697   7.123 -0.1647 -0.0823  0.1953
 1018POPI   C2B14588  13.105  14.727   7.595  0.1007 -0.0788  0.3709
 1018POPI   C3B14589  13.038  14.627   8.075  0.1193  0.2638  0.1800
 1018POPI   C4B14590  13.030  14.471   8.533  0.1585 -0.1023 -0.1035
 1019POPI    C114591   2.383   8.196   6.481  0.0209 -0.1046 -0.0060
 1019POPI    C214592   2.377   7.797   6.459 -0.1007 -0.1038  0.0050
 1019POPI    C314593   2.710   7.997   6.365 -0.0298 -0.2094  0.0290
 1019POPI   PO414594   2.289   8.280   6.765  0.1338  0.0612 -0.1996
 1019POPI   GL114595   2.594   8.284   7.160  0.0650  0.0615  0.0452
 1019POPI   GL214596   2.351   8.015   7.236 -0.0691  0.1521  0.3213
 1019POPI   C1A14597   2.741   8.179   7.493  0.1240  0.0397  0.0214
 1019POPI   D2A14598   2.841   8.100   7.872  0.2109  0.3093  0.1986
 1019POPI   C3A14599   2.855   7.869   8.297 -0.0217 -0.0349 -0.0700
 1019POPI   C4A14600   2.662   7.962   8.613  0.0074  0.1699 -0.2137
 1019POPI   C1B14601   2.367   7.908   7.651 -0.0719 -0.0311 -0.0541
 1019POPI   C2B14602   2.390   7.833   8.104  0.0938  0.1157  0.1827
 1019POPI   C3B14603   2.258   7.715   8.549  0.1506 -0.0287 -0.0344
 1019POPI   C4B14604   2.056   7.671   9.019  0.1614  0.2535 -0.0721
 1020POPI    C114605  13.910   0.103   6.176  0.0416 -0.1767  0.0830
 1020POPI    C214606  13.562  -0.089   6.132 -0.0242  0.0203 -0.2954
 1020POPI    C314607  13.804  -0.039   5.817  0.2557  0.0601 -0.0775
 1020POPI   PO414608  13.846   0.324   6.323  0.2397 -0.0208  0.5036
 1020POPI   GL114609  14.000   0.461   6.735 -0.0799  0.0512  0.1049
 1020POPI   GL214610  13.945   0.766   6.691 -0.0447  0.0253  0.2487
 1020POPI   C1A14611  14.100   0.230   7.198 -0.0401  0.1885 -0.2540
 1020POPI   D2A14612  14.051   0.111   7.649 -0.0996  0.0375  0.3392
 1020POPI   C3A14613  14.184   0.242   8.075 -0.2919 -0.2199  0.0034
 1020POPI   C4A14614  14.063   0.223   8.557  0.2022  0.0570 -0.1621
 1020POPI   C1B14615  13.913   1.053   6.864  0.2717 -0.3102 -0.2613
 1020POPI   C2B14616  13.790   1.069   7.197  0.2573 -0.0826  0.1765
 1020POPI   C3B14617  13.785   1.106   7.591  0.0323 -0.2506  0.0920
 1020POPI   C4B14618  13.751   0.995   7.953 -0.1111  0.2308  0.0326
 1021POPI    C114619   6.987  15.774   6.442  0.0180  0.0353  0.0317
 1021POPI    C214620   7.014  15.597   6.084  0.1347 -0.0609  0.0875
 1021POPI    C314621   6.855  15.963   6.115 -0.1657 -0.1791 -0.0204
 1021POPI   PO414622   7.191  15.755   6.550 -0.0568  0.0581  0.2199
 1021POPI   GL114623   7.452  15.822   6.884  0.2073  0.2348  0.1116
 1021POPI   GL214624   7.681  15.918   6.991 -0.1805  0.0618 -0.0713
 1021POPI   C1A14625   7.143  15.797   7.270  0.0563  0.1402  0.1679
 1021POPI   D2A14626   7.250  15.726   7.735 -0.1031  0.0828  0.2000
 1021POPI   C3A14627   7.330  15.914   8.096 -0.1932 -0.1867 -0.0007
 1021POPI   C4A14628   7.414  15.835   8.538 -0.3570 -0.0335 -0.0006
 1021POPI   C1B14629   7.638  15.877   7.409  0.0069 -0.1678 -0.0375
 1021POPI   C2B14630   7.804  15.989   7.747  0.2315  0.1237  0.1390
 1021POPI   C3B14631   7.816  15.917   8.225 -0.0680 -0.1079  0.0149
 1021POPI   C4B14632   7.942  15.841   8.672  0.1498  0.0287 -0.3306
 1022POPI    C114633  13.853   0.777   6.141 -0.0335 -0.1830  0.2565
 1022POPI    C214634  14.115   1.029   6.306 -0.1310  0.2163 -0.1762
 1022POPI    C314635  14.243   0.738   6.064 -0.0562  0.1454 -0.0525
 1022POPI   PO414636  13.585   0.713   6.336  0.0202  0.2775 -0.2584
 1022POPI   GL114637  13.449   0.740   6.662 -0.0619  0.0988 -0.0748
 1022POPI   GL214638  13.335   0.926   6.852  0.1175 -0.1903 -0.0572
 1022POPI   C1A14639  13.649   0.588   7.057  0.2102  0.2214  0.2014
 1022POPI   D2A14640  13.698   0.488   7.436 -0.2078  0.0045 -0.0483
 1022POPI   C3A14641  13.791   0.483   7.838  0.1359  0.2158  0.0410
 1022POPI   C4A14642  13.659   0.544   8.399  0.1712  0.0654  0.0124
 1022POPI   C1B14643  13.346   0.854   7.319  0.1728 -0.0344 -0.1544
 1022POPI   C2B14644  13.351   0.890   7.722 -0.1540  0.2422  0.0452
 1022POPI   C3B14645  13.268   1.050   8.183 -0.0637  0.2448  0.2364
 1022POPI   C4B14646  13.454   0.999   8.609 -0.0004  0.2927  0.0620
 1023POPI    C114647   6.243  16.920   6.388 -0.1108  0.0846 -0.0808
 1023POPI    C214648   6.288  17.190   6.097  0.1159 -0.0333 -0.1578
 1023POPI    C314649   5.983  16.932   6.085 -0.1973  0.3188  0.0000
 1023POPI   PO414650   6.395  17.071   6.643  0.0803 -0.0858  0.4571
 1023POPI   GL114651   6.577  17.228   6.986 -0.0499 -0.0747  0.1514
 1023POPI   GL214652   6.568  17.614   6.944  0.0489 -0.0419 -0.0448
 1023POPI   C1A14653   6.542  17.058   7.370  0.3238  0.0170  0.0078
 1023POPI   D2A14654   6.586  16.974   7.782 -0.4679  0.0494  0.0069
 1023POPI   C3A14655   6.562  17.228   8.020  0.1653  0.1484 -0.2859
 1023POPI   C4A14656   6.551  17.226   8.505  0.1006  0.1858 -0.1437
 1023POPI   C1B14657   6.749  17.689   7.403  0.2390  0.1616 -0.0940
 1023POPI   C2B14658   6.725  17.592   7.722 -0.0411  0.2840 -0.1365
 1023POPI   C3B14659   6.736  17.649   8.236  0.1026  0.0912 -0.1056
 1023POPI   C4B14660   6.979  17.596   8.597  0.2878  0.3190  0.1117
 1024POPI    C114661   6.006  11.868   6.719  0.2333 -0.2631  0.0594
 1024POPI    C214662   6.136  11.648   6.411  0.1949 -0.0331 -0.1246
 1024POPI    C314663   5.778  11.824   6.393 -0.0629 -0.4898  0.2917
 1024POPI   PO414664   6.185  11.803   6.905  0.1261  0.0180 -0.0478
 1024POPI   GL114665   6.427  11.961   7.149 -0.2134  0.3247 -0.0968
 1024POPI   GL214666   6.803  11.990   6.966  0.1236 -0.0320 -0.4745
 1024POPI   C1A14667   6.246  12.011   7.583  0.3500 -0.0434 -0.0751
 1024POPI   D2A14668   6.285  12.137   8.085  0.0952  0.1365  0.0918
 1024POPI   C3A14669   6.541  12.170   8.404  0.2722 -0.0310  0.0437
 1024POPI   C4A14670   6.715  11.822   8.591 -0.0040 -0.0021 -0.2561
 1024POPI   C1B14671   6.924  11.807   7.314 -0.1501  0.1307 -0.0589
 1024POPI   C2B14672   6.677  11.849   7.745 -0.3219  0.1721 -0.2529
 1024POPI   C3B14673   6.623  11.771   8.110 -0.1045  0.0270  0.1416
 1024POPI   C4B14674   6.331  11.695   8.286  0.0186  0.2702  0.1928
 1025POPI    C114675   3.443  13.694   6.752  0.1496 -0.1290 -0.0881
 1025POPI    C214676   3.083  13.667   6.580  0.0607 -0.0110  0.0765
 1025POPI    C314677   3.328  13.351   6.581 -0.1609 -0.1851  0.2212
 1025POPI   PO414678   3.411  13.961   6.861  0.2385  0.1546  0.0401
 1025POPI   GL114679   3.321  14.271   7.160  0.0215 -0.3776 -0.2132
 1025POPI   GL214680   3.500  14.463   7.254 -0.0725 -0.5764 -0.2324
 1025POPI   C1A14681   3.068  14.025   7.460  0.0504 -0.1872 -0.1274
 1025POPI   D2A14682   2.977  13.769   7.837 -0.1551  0.1174  0.2914
 1025POPI   C3A14683   3.088  13.503   8.153 -0.2116 -0.3016  0.1385
 1025POPI   C4A14684   3.329  13.516   8.494  0.0022 -0.2297 -0.0973
 1025POPI   C1B14685   3.516  14.255   7.610 -0.0024 -0.1027  0.1739
 1025POPI   C2B14686   3.407  14.103   7.973  0.3026  0.0330 -0.0895
 1025POPI   C3B14687   3.173  13.958   8.330  0.1538  0.2683  0.1029
 1025POPI   C4B14688   2.862  13.710   8.600  0.1129  0.1683 -0.0437
 1026POPI    C114689  17.158  11.671   6.644 -0.1247 -0.1706 -0.0017
 1026POPI    C214690  17.056  11.653   6.258  0.1044  0.1884 -0.0841
 1026POPI    C314691  17.333  11.404   6.404 -0.2287 -0.1815 -0.0659
 1026POPI   PO414692  17.059  11.700   6.756 -0.0070 -0.1576 -0.0167
 1026POPI   GL114693  16.976  11.704   7.159 -0.1520 -0.1478 -0.2051
 1026POPI   GL214694  17.377  11.786   7.171  0.3805  0.0816  0.3488
 1026POPI   C1A14695  16.901  11.730   7.603 -0.1061  0.2919 -0.1828
 1026POPI   D2A14696  16.816  11.825   8.047 -0.1835  0.2767  0.3166
 1026POPI   C3A14697  16.605  12.058   8.398 -0.0514 -0.0326  0.3080
 1026POPI   C4A14698  16.542  12.316   8.667  0.0931 -0.1751 -0.0718
 1026POPI   C1B14699  17.405  11.882   7.587 -0.0227 -0.1913 -0.1023
 1026POPI   C2B14700  17.303  11.945   8.046  0.1151 -0.2651 -0.2990
 1026POPI   C3B14701  17.085  11.938   8.533 -0.1086  0.0269 -0.0261
 1026POPI   C4B14702  16.859  12.064   8.979  0.2014  0.3413 -0.0715
 1027POPI    C114703  11.625   3.344   5.946 -0.0811 -0.1507 -0.1491
 1027POPI    C214704  11.537   3.724   6.031  0.1279 -0.1426  0.0423
 1027POPI    C314705  11.696   3.631   5.676 -0.1153 -0.0820 -0.0855
 1027POPI   PO414706  11.473   3.245   6.173 -0.1027  0.0143 -0.0079
 1027POPI   GL114707  11.482   3.121   6.563 -0.1262  0.1012 -0.2034
 1027POPI   GL214708  11.517   3.409   6.679 -0.2796 -0.1296  0.0362
 1027POPI   C1A14709  11.429   2.814   6.915 -0.0844  0.1555  0.1074
 1027POPI   D2A14710  11.484   2.814   7.261 -0.2544  0.2996 -0.0361
 1027POPI   C3A14711  11.498   2.743   7.677 -0.3161 -0.1258  0.0569
 1027POPI   C4A14712  11.426   2.648   8.159  0.3064 -0.1254  0.2720
 1027POPI   C1B14713  11.590   3.297   7.049 -0.2236 -0.3397 -0.0361
 1027POPI   C2B14714  11.607   3.264   7.450 -0.2016 -0.4697 -0.0868
 1027POPI   C3B14715  11.622   3.323   7.896  0.2447 -0.0437 -0.1643
 1027POPI   C4B14716  11.607   3.199   8.284 -0.0056  0.0971  0.1126
 1028POPI    C114717   6.150  11.139   6.519 -0.0279  0.2019 -0.4020
 1028POPI    C214718   5.879  10.939   6.735  0.1515  0.2427 -0.1343
 1028POPI    C314719   5.924  10.858   6.346  0.2352 -0.2546 -0.0271
 1028POPI   PO414720   6.335  11.142   6.627 -0.1096  0.0838  0.3382
 1028POPI   GL114721   6.302  11.239   6.980 -0.0228 -0.0038 -0.0439
 1028POPI   GL214722   6.462  11.460   7.113 -0.0537 -0.0710  0.4701
 1028POPI   C1A14723   6.062  11.125   7.293 -0.1959 -0.1748  0.0650
 1028POPI   D2A14724   6.176  11.063   7.749 -0.1357 -0.1155  0.1607
 1028POPI   C3A14725   6.369  10.861   8.097 -0.0215  0.0311  0.0544
 1028POPI   C4A14726   6.497  10.700   8.526 -0.0943 -0.3180 -0.0708
 1028POPI   C1B14727   6.549  11.414   7.555  0.1753 -0.1763  0.1662
 1028POPI   C2B14728   6.516  11.309   7.966 -0.1536 -0.0838  0.2810
 1028POPI   C3B14729   6.510  11.264   8.396 -0.1575 -0.1750  0.0382
 1028POPI   C4B14730   6.450  11.459   8.810  0.0412  0.0605 -0.1472
 1029POPI    C114731   9.788   1.303   5.616  0.2736  0.1302 -0.2051
 1029POPI    C214732  10.009   1.048   5.401 -0.0378 -0.1322 -0.2225
 1029POPI    C314733   9.728   1.270   5.222 -0.0360 -0.0677 -0.1458
 1029POPI   PO414734   9.738   1.158   5.860 -0.1843 -0.1786  0.0384
 1029POPI   GL114735   9.918   1.135   6.245  0.0599  0.2068 -0.1356
 1029POPI   GL214736   9.682   1.381   6.294 -0.2158  0.2579 -0.1254
 1029POPI   C1A14737   9.913   0.903   6.546 -0.0718 -0.0364  0.0530
 1029POPI   D2A14738   9.977   0.881   6.795  0.0765  0.2229  0.0473
 1029POPI   C3A14739  10.012   0.997   7.231  0.3153  0.0558 -0.0946
 1029POPI   C4A14740  10.037   0.927   7.716 -0.0560 -0.0269  0.0179
 1029POPI   C1B14741   9.618   1.251   6.751  0.0478  0.1347 -0.1628
 1029POPI   C2B14742   9.653   1.393   7.158  0.0584  0.0728 -0.0164
 1029POPI   C3B14743   9.702   1.363   7.579  0.1073  0.2251 -0.0678
 1029POPI   C4B14744   9.746   1.238   8.027  0.0062 -0.2395 -0.0529
 1030POPI    C114745  16.061  13.653   6.273  0.0178  0.0522 -0.1676
 1030POPI    C214746  16.460  13.676   6.291  0.0027  0.1135  0.1236
 1030POPI    C314747  16.257  13.914   6.042  0.1321  0.2503  0.1476
 1030POPI   PO414748  16.021  13.699   6.490  0.0218 -0.1241 -0.1651
 1030POPI   GL114749  15.677  13.828   6.736  0.2497 -0.0468 -0.3163
 1030POPI   GL214750  15.901  13.765   6.969 -0.1067 -0.0429 -0.0035
 1030POPI   C1A14751  15.510  14.134   7.146  0.3494 -0.1505  0.4144
 1030POPI   D2A14752  15.512  14.184   7.626 -0.0546 -0.0447 -0.2521
 1030POPI   C3A14753  15.454  14.171   8.059 -0.3136  0.0792 -0.1674
 1030POPI   C4A14754  15.173  14.342   8.342 -0.0313 -0.1071 -0.0930
 1030POPI   C1B14755  15.988  13.860   7.443 -0.0169  0.3561  0.0352
 1030POPI   C2B14756  15.884  13.957   7.853  0.4240 -0.1258 -0.1598
 1030POPI   C3B14757  15.950  14.052   8.261  0.1312 -0.0127 -0.2229
 1030POPI   C4B14758  15.895  14.155   8.734 -0.1621 -0.0108  0.1976
 1031POPI    C114759  15.656  12.768   6.602  0.1733  0.0586 -0.0005
 1031POPI    C214760  15.461  13.058   6.408  0.0455  0.0205  0.0690
 1031POPI    C314761  15.526  12.707   6.229  0.0257  0.0237  0.0555
 1031POPI   PO414762  15.617  12.857   6.852 -0.0451  0.0505 -0.0274
 1031POPI   GL114763  15.546  13.143   7.078 -0.2517 -0.1223  0.1043
 1031POPI   GL214764  15.502  13.409   7.079 -0.0440  0.1827  0.0517
 1031POPI   C1A14765  15.458  13.028   7.462  0.1826  0.2787 -0.3791
 1031POPI   D2A14766  15.487  13.062   7.872 -0.1298  0.0128  0.3860
 1031POPI   C3A14767  15.784  12.940   8.220  0.0420 -0.0985  0.4002
 1031POPI   C4A14768  15.713  12.819   8.622  0.1624 -0.2823  0.3731
 1031POPI   C1B14769  15.576  13.604   7.584 -0.2015  0.0933  0.1570
 1031POPI   C2B14770  15.564  13.556   8.062  0.0153  0.1061 -0.0474
 1031POPI   C3B14771  15.394  13.378   8.440 -0.0918 -0.1000  0.2327
 1031POPI   C4B14772  15.202  12.976   8.614  0.2537  0.0793  0.1473
 1032POPI    C114773   7.470   0.945   6.087 -0.0458 -0.2759 -0.1077
 1032POPI    C214774   7.322   0.620   5.907  0.1444 -0.4166 -0.0140
 1032POPI    C314775   7.680   0.764   5.799  0.0869 -0.2716 -0.0148
 1032POPI   PO414776   7.381   0.881   6.358 -0.0351  0.0432 -0.0243
 1032POPI   GL114777   7.478   1.058   6.708  0.0716  0.0766 -0.2315
 1032POPI   GL214778   7.166   1.100   6.741 -0.2109  0.1058  0.1310
 1032POPI   C1A14779   7.852   1.236   6.826 -0.0255  0.2776 -0.0747
 1032POPI   D2A14780   7.914   1.233   7.240 -0.0176  0.1820 -0.0612
 1032POPI   C3A14781   7.802   1.266   7.660  0.1285  0.3418  0.2455
 1032POPI   C4A14782   7.825   1.352   8.097  0.0244 -0.1323 -0.0445
 1032POPI   C1B14783   7.301   1.165   7.199 -0.2690  0.0577  0.1405
 1032POPI   C2B14784   7.310   1.160   7.585  0.3242  0.0946 -0.1862
 1032POPI   C3B14785   7.305   1.212   8.007  0.0194 -0.0016  0.0036
 1032POPI   C4B14786   7.181   1.109   8.457  0.0948 -0.2005  0.1127
 1033POPI    C114787   5.579   7.252   6.190 -0.3576 -0.1623  0.0689
 1033POPI    C214788   5.629   6.960   5.920  0.0725  0.0016 -0.0375
 1033POPI    C314789   5.485   7.316   5.806 -0.0348 -0.0264  0.0093
 1033POPI   PO414790   5.427   7.130   6.335  0.0764  0.2401 -0.0171
 1033POPI   GL114791   5.452   7.125   6.793  0.0056 -0.0318 -0.4295
 1033POPI   GL214792   5.763   7.143   6.727  0.2442 -0.1252 -0.0243
 1033POPI   C1A14793   5.469   7.075   7.239 -0.1598  0.1830  0.0102
 1033POPI   D2A14794   5.315   7.182   7.663  0.0864 -0.1230  0.3544
 1033POPI   C3A14795   5.571   7.181   8.050  0.3368 -0.1106 -0.1142
 1033POPI   C4A14796   5.573   6.994   8.491 -0.1560 -0.3408 -0.3563
 1033POPI   C1B14797   5.845   7.383   7.121 -0.0314 -0.0273  0.3696
 1033POPI   C2B14798   5.820   7.275   7.626 -0.0322  0.1361  0.2014
 1033POPI   C3B14799   6.028   7.398   7.959 -0.3699 -0.1056  0.0934
 1033POPI   C4B14800   5.945   7.291   8.344  0.0919 -0.0542  0.1878
 1034POPI    C114801  14.824  10.640   6.196 -0.1190  0.0582  0.2040
 1034POPI    C214802  15.069  10.940   6.095 -0.2541  0.1049  0.0091
 1034POPI    C314803  15.192  10.660   6.353 -0.0688  0.2376  0.0674
 1034POPI   PO414804  14.635  10.682   6.358  0.1564  0.1964  0.0562
 1034POPI   GL114805  14.457  10.770   6.727 -0.3208 -0.3041 -0.0923
 1034POPI   GL214806  14.571  11.000   6.932 -0.1170  0.1401 -0.1518
 1034POPI   C1A14807  14.074  10.705   6.973 -0.1607 -0.2175  0.0758
 1034POPI   D2A14808  14.014  10.597   7.412 -0.3102  0.2102 -0.2875
 1034POPI   C3A14809  13.960  10.620   7.851  0.0818  0.0648 -0.3077
 1034POPI   C4A14810  13.753  10.541   8.204 -0.0319 -0.0424 -0.0857
 1034POPI   C1B14811  14.528  10.763   7.315  0.1077  0.2135  0.0391
 1034POPI   C2B14812  14.464  10.767   7.777  0.0110  0.1088 -0.1856
 1034POPI   C3B14813  14.327  10.668   8.125  0.0217  0.1100 -0.0147
 1034POPI   C4B14814  14.204  10.619   8.545 -0.2308  0.0874 -0.1876
 1035POPI    C114815   5.301  14.763   6.664 -0.1450 -0.1887  0.0023
 1035POPI    C214816   5.554  14.754   6.354  0.1711 -0.3721  0.2588
 1035POPI    C314817   5.259  14.485   6.380 -0.0067 -0.2064 -0.0017
 1035POPI   PO414818   5.393  14.934   6.861  0.2138  0.0869 -0.0606
 1035POPI   GL114819   5.445  14.929   7.262 -0.0128 -0.0186 -0.0478
 1035POPI   GL214820   5.563  15.258   7.289  0.1887  0.1777  0.1395
 1035POPI   C1A14821   5.518  14.943   7.669 -0.1649  0.5225  0.0832
 1035POPI   D2A14822   5.257  14.789   8.025 -0.1477  0.1088  0.2188
 1035POPI   C3A14823   5.276  14.810   8.432 -0.1595  0.2381  0.1339
 1035POPI   C4A14824   5.026  14.794   8.731 -0.1868 -0.1306  0.3255
 1035POPI   C1B14825   5.714  15.433   7.726 -0.0350 -0.2488  0.2336
 1035POPI   C2B14826   5.780  15.543   8.131 -0.1839 -0.2492 -0.0054
 1035POPI   C3B14827   5.898  15.546   8.557 -0.2416  0.0835 -0.0760
 1035POPI   C4B14828   5.793  15.626   9.017 -0.0509 -0.0648 -0.0961
 1036POPI    C114829   0.321   1.074   6.118 -0.1479  0.0773  0.1571
 1036POPI    C214830   0.322   1.455   5.999 -0.2332  0.0564  0.0893
 1036POPI    C314831   0.040   1.204   5.866 -0.1303 -0.0500  0.0705
 1036POPI   PO414832   0.303   1.114   6.404  0.0646  0.2642 -0.1628
 1036POPI   GL114833   0.299   0.976   6.813 -0.0471 -0.2177  0.3074
 1036POPI   GL214834   0.084   0.829   7.014 -0.4166 -0.1385  0.0571
 1036POPI   C1A14835   0.262   1.332   7.147 -0.3659 -0.2614 -0.4382
 1036POPI   D2A14836   0.084   1.415   7.467 -0.2616  0.0518 -0.1145
 1036POPI   C3A14837   0.041   1.493   7.950  0.0895  0.3706 -0.0747
 1036POPI   C4A14838   0.091   1.522   8.422 -0.0305 -0.2565  0.1141
 1036POPI   C1B14839  -0.006   0.963   7.377  0.2310 -0.0087  0.0862
 1036POPI   C2B14840  -0.066   1.017   7.829  0.2792  0.1542 -0.2537
 1036POPI   C3B14841  -0.116   1.019   8.223  0.2078 -0.1255 -0.0325
 1036POPI   C4B14842  -0.211   1.155   8.600 -0.0404  0.0378 -0.0415
 1037POPI    C114843  11.446  14.552   6.073 -0.3056 -0.0341  0.0444
 1037POPI    C214844  11.121  14.352   5.953 -0.1271 -0.2619 -0.0662
 1037POPI    C314845  11.356  14.533   5.684 -0.0296 -0.3042 -0.0102
 1037POPI   PO414846  11.349  14.775   6.250  0.3333  0.2067  0.2709
 1037POPI   GL114847  11.135  14.835   6.632 -0.2706  0.0892 -0.1005
 1037POPI   GL214848  10.783  14.800   6.739 -0.2683  0.3037  0.1095
 1037POPI   C1A14849  11.146  14.489   6.984 -0.1812 -0.1362  0.0571
 1037POPI   D2A14850  11.189  14.354   7.366 -0.1110 -0.3052 -0.0244
 1037POPI   C3A14851  11.072  14.615   7.616  0.2092 -0.0446  0.1371
 1037POPI   C4A14852  11.086  14.778   7.947  0.0676  0.3079  0.3482
 1037POPI   C1B14853  10.846  14.946   7.175 -0.0087 -0.3251  0.3990
 1037POPI   C2B14854  10.752  15.015   7.563  0.1947 -0.1431 -0.0895
 1037POPI   C3B14855  10.673  15.147   8.044 -0.2578  0.2369  0.1640
 1037POPI   C4B14856  10.821  15.095   8.440 -0.2420  0.1151  0.0411
 1038POPI    C114857   4.190  10.705   6.582  0.1138  0.2214  0.0218
 1038POPI    C214858   4.589  10.721   6.559  0.1090  0.2362 -0.0550
 1038POPI    C314859   4.374  10.625   6.235  0.0547  0.1422  0.0084
 1038POPI   PO414860   4.113  10.653   6.848  0.0413 -0.4164 -0.1271
 1038POPI   GL114861   3.994  10.875   7.204  0.0898 -0.0980  0.2729
 1038POPI   GL214862   4.237  10.741   7.317  0.1565  0.4141  0.1721
 1038POPI   C1A14863   3.646  10.891   7.485 -0.0907  0.0672  0.4048
 1038POPI   D2A14864   3.606  10.851   7.884 -0.2002 -0.1463 -0.0545
 1038POPI   C3A14865   3.883  10.679   8.334 -0.0311 -0.1215  0.2833
 1038POPI   C4A14866   4.194  10.536   8.573 -0.0162 -0.0606 -0.0240
 1038POPI   C1B14867   4.385  10.447   7.632  0.1889  0.1298  0.1708
 1038POPI   C2B14868   4.435  10.426   8.098  0.0349 -0.0194  0.0771
 1038POPI   C3B14869   4.525  10.179   8.523  0.1451  0.1787 -0.2271
 1038POPI   C4B14870   4.537   9.950   8.981  0.0580 -0.0122 -0.0443
 1039POPI    C114871   5.736   6.163   6.223  0.2518  0.1443 -0.0852
 1039POPI    C214872   5.774   6.558   6.168  0.2133  0.1361 -0.1725
 1039POPI    C314873   5.899   6.303   5.885 -0.0641  0.0957 -0.2615
 1039POPI   PO414874   5.544   6.204   6.473  0.2174 -0.0923  0.4112
 1039POPI   GL114875   5.393   6.184   6.887 -0.1940 -0.0301  0.0926
 1039POPI   GL214876   5.109   6.063   6.851  0.1730 -0.1975  0.3926
 1039POPI   C1A14877   5.394   6.213   7.358  0.2369 -0.0572 -0.0540
 1039POPI   D2A14878   5.076   6.298   7.647 -0.0805  0.1048 -0.0423
 1039POPI   C3A14879   5.139   6.037   7.965 -0.1733 -0.0575 -0.0597
 1039POPI   C4A14880   5.024   6.135   8.495 -0.1883 -0.3121  0.4519
 1039POPI   C1B14881   4.943   6.337   7.158 -0.0930  0.0494 -0.0341
 1039POPI   C2B14882   4.752   6.663   7.338  0.0101  0.1423  0.2328
 1039POPI   C3B14883   4.682   6.576   7.739 -0.0462  0.0887 -0.1384
 1039POPI   C4B14884   4.736   6.482   8.150 -0.0100 -0.1734 -0.3136
 1040POPI    C114885  13.364  13.480   6.125 -0.2382 -0.2332  0.0056
 1040POPI    C214886  13.006  13.545   5.958 -0.1968  0.0532  0.0224
 1040POPI    C314887  13.337  13.561   5.734 -0.1823 -0.0770  0.0333
 1040POPI   PO414888  13.365  13.562   6.376 -0.2432  0.2999 -0.1238
 1040POPI   GL114889  13.607  13.676   6.666  0.2001 -0.1218 -0.0965
 1040POPI   GL214890  13.861  13.475   6.668  0.3080 -0.0369 -0.2417
 1040POPI   C1A14891  13.477  13.784   6.935  0.0883 -0.2383  0.0377
 1040POPI   D2A14892  13.432  13.833   7.431  0.0726  0.1858  0.0789
 1040POPI   C3A14893  13.329  13.767   7.855 -0.3051 -0.0707  0.0457
 1040POPI   C4A14894  13.211  13.679   8.212 -0.1208 -0.2251  0.1005
 1040POPI   C1B14895  13.837  13.480   7.141 -0.2457  0.0240 -0.1224
 1040POPI   C2B14896  13.775  13.395   7.599 -0.0971  0.0918  0.1967
 1040POPI   C3B14897  13.695  13.387   7.939  0.0909 -0.1611  0.0622
 1040POPI   C4B14898  13.563  13.381   8.422  0.0412 -0.0003 -0.0787
 1041POPI    C114899   9.841   8.703   6.314 -0.0843  0.1742 -0.1293
 1041POPI    C214900   9.442   8.685   6.335 -0.0991  0.3758 -0.2091
 1041POPI    C314901   9.618   8.853   6.017  0.0548  0.1083 -0.2690
 1041POPI   PO414902   9.957   8.792   6.472  0.1902  0.1288 -0.2531
 1041POPI   GL114903   9.968   8.841   6.949  0.2481 -0.0290 -0.2604
 1041POPI   GL214904  10.094   8.671   7.014 -0.0363 -0.0166 -0.2021
 1041POPI   C1A14905   9.783   9.043   7.195  0.0574  0.0003 -0.1857
 1041POPI   D2A14906   9.733   9.024   7.669  0.2943  0.2882 -0.0162
 1041POPI   C3A14907   9.863   8.967   8.139  0.2366 -0.3017 -0.0740
 1041POPI   C4A14908   9.847   9.014   8.636  0.2266 -0.0132  0.0280
 1041POPI   C1B14909  10.228   8.578   7.389 -0.0361  0.5347  0.1124
 1041POPI   C2B14910  10.120   8.599   7.859  0.1410  0.1138 -0.2021
 1041POPI   C3B14911  10.173   8.534   8.288 -0.2950  0.1806  0.2232
 1041POPI   C4B14912   9.862   8.541   8.635 -0.2058 -0.2250  0.0531
 1042POPI    C114913  10.408  14.802   5.982 -0.1065 -0.0129  0.0757
 1042POPI    C214914  10.606  14.465   5.895  0.1306  0.0618  0.3117
 1042POPI    C314915  10.296  14.579   5.669  0.0394 -0.3197  0.2371
 1042POPI   PO414916  10.472  14.837   6.268  0.2311 -0.1635  0.0385
 1042POPI   GL114917  10.182  14.963   6.477  0.1050  0.1879  0.1156
 1042POPI   GL214918  10.283  14.666   6.742 -0.3253  0.1393  0.0352
 1042POPI   C1A14919   9.975  15.142   6.794  0.2265 -0.3437  0.2538
 1042POPI   D2A14920   9.759  15.141   7.262  0.1212  0.1265  0.1119
 1042POPI   C3A14921   9.887  15.231   7.692  0.0624  0.0407 -0.0518
 1042POPI   C4A14922   9.939  15.218   8.114  0.1517  0.2607  0.3043
 1042POPI   C1B14923  10.289  14.724   7.152  0.1783 -0.2051 -0.1034
 1042POPI   C2B14924  10.140  14.836   7.512 -0.0217 -0.1119 -0.0557
 1042POPI   C3B14925  10.241  14.888   7.887  0.1520 -0.2861 -0.3640
 1042POPI   C4B14926  10.304  14.962   8.369 -0.1484 -0.0725  0.3467
 1043POPI    C114927  14.264   7.832   6.059 -0.0850 -0.1543 -0.0744
 1043POPI    C214928  13.924   7.989   6.198  0.0699  0.2814 -0.1721
 1043POPI    C314929  13.929   7.807   5.841 -0.1421 -0.0826  0.0046
 1043POPI   PO414930  14.365   7.723   6.294 -0.0612 -0.0439 -0.1060
 1043POPI   GL114931  14.366   7.521   6.628 -0.1704  0.1940  0.2588
 1043POPI   GL214932  14.592   7.534   6.864  0.1524 -0.3402  0.1388
 1043POPI   C1A14933  14.070   7.512   6.978 -0.1713  0.4458 -0.1680
 1043POPI   D2A14934  14.075   7.412   7.310 -0.1256  0.2407  0.0620
 1043POPI   C3A14935  13.948   7.378   7.675 -0.0957 -0.1425 -0.0949
 1043POPI   C4A14936  13.878   7.298   8.073 -0.0082 -0.0259  0.3772
 1043POPI   C1B14937  14.514   7.591   7.312 -0.3875 -0.1471  0.0773
 1043POPI   C2B14938  14.403   7.457   7.713 -0.0467 -0.1818  0.1245
 1043POPI   C3B14939  14.454   7.488   8.084 -0.3751 -0.2175  0.0807
 1043POPI   C4B14940  14.304   7.400   8.458  0.0321 -0.2434  0.0447
 1044POPI    C114941   9.889  13.997   5.940  0.0894 -0.2696  0.2954
 1044POPI    C214942  10.257  14.144   5.882 -0.0418 -0.0494 -0.0073
 1044POPI    C314943  10.141  13.813   5.690 -0.0323 -0.0667  0.0170
 1044POPI   PO414944   9.861  13.987   6.214  0.2565  0.1148  0.0045
 1044POPI   GL114945   9.924  14.134   6.549  0.1450  0.0628 -0.0751
 1044POPI   GL214946   9.836  14.465   6.598 -0.2091 -0.0595 -0.1079
 1044POPI   C1A14947  10.174  14.172   6.823 -0.2018  0.0874 -0.2681
 1044POPI   D2A14948  10.126  14.111   7.276 -0.1842  0.0669  0.4079
 1044POPI   C3A14949  10.043  14.194   7.656  0.1200 -0.3041  0.2074
 1044POPI   C4A14950  10.207  14.293   8.030  0.0552  0.3133  0.1769
 1044POPI   C1B14951   9.812  14.599   7.054 -0.1682  0.0112 -0.2853
 1044POPI   C2B14952   9.634  14.690   7.452 -0.2919  0.0793  0.0296
 1044POPI   C3B14953   9.669  14.472   7.850  0.0807 -0.0383 -0.1013
 1044POPI   C4B14954   9.798  14.694   8.279 -0.0129 -0.2292 -0.0765
 1045POPI    C114955   1.767  16.302   6.665  0.2159 -0.1082 -0.1688
 1045POPI    C214956   2.064  16.055   6.560  0.0801 -0.2903 -0.1299
 1045POPI    C314957   1.720  15.906   6.699  0.0063 -0.0768 -0.0795
 1045POPI   PO414958   1.871  16.525   6.873  0.0560 -0.3018 -0.1608
 1045POPI   GL114959   2.029  16.675   7.247 -0.0446  0.0499 -0.1868
 1045POPI   GL214960   2.322  16.486   7.356  0.0115  0.1279 -0.1464
 1045POPI   C1A14961   1.917  16.719   7.647 -0.0323 -0.0040 -0.0155
 1045POPI   D2A14962   1.986  16.785   8.045 -0.2267  0.1138 -0.0456
 1045POPI   C3A14963   2.268  16.639   8.329  0.0834  0.0303 -0.1288
 1045POPI   C4A14964   2.517  17.010   8.607 -0.0875 -0.2571  0.1986
 1045POPI   C1B14965   2.363  16.503   7.769  0.0195  0.0237  0.1618
 1045POPI   C2B14966   2.629  16.545   8.008  0.2131  0.1977 -0.0141
 1045POPI   C3B14967   2.752  16.533   8.325  0.0003 -0.1523 -0.2052
 1045POPI   C4B14968   2.925  16.711   8.732 -0.1350  0.1654  0.2915
 1046POPI    C114969   7.532  12.855   6.564 -0.3919 -0.3612  0.0076
 1046POPI    C214970   7.777  12.607   6.367 -0.1201 -0.1538  0.0790
 1046POPI    C314971   7.587  12.899   6.170 -0.1948 -0.2224  0.0490
 1046POPI   PO414972   7.395  12.636   6.660 -0.1424 -0.1374 -0.0328
 1046POPI   GL114973   7.585  12.488   7.026  0.0740  0.0171  0.2275
 1046POPI   GL214974   7.847  12.526   6.923 -0.0913 -0.1051  0.0412
 1046POPI   C1A14975   7.727  12.595   7.462  0.1045  0.4937 -0.1218
 1046POPI   D2A14976   7.896  12.633   7.887  0.2314 -0.2335  0.2251
 1046POPI   C3A14977   7.922  12.693   8.318 -0.0908 -0.2097  0.1090
 1046POPI   C4A14978   8.035  12.967   8.676 -0.0127  0.1633  0.0662
 1046POPI   C1B14979   8.002  12.246   7.246  0.1088 -0.2560  0.3125
 1046POPI   C2B14980   8.190  12.276   7.680  0.0289 -0.2463 -0.1393
 1046POPI   C3B14981   8.262  12.338   8.098  0.2602  0.0153 -0.1645
 1046POPI   C4B14982   8.277  12.327   8.589  0.2408 -0.1164 -0.0207
 1047POPI    C114983   6.667   2.503   6.087 -0.2215  0.2658  0.1007
 1047POPI    C214984   6.304   2.475   6.254 -0.2882  0.2130 -0.0519
 1047POPI    C314985   6.381   2.289   5.908 -0.1139  0.2204 -0.0183
 1047POPI   PO414986   6.800   2.401   6.276 -0.3058  0.3332  0.3588
 1047POPI   GL114987   6.473   2.188   6.662 -0.1709  0.0347 -0.2127
 1047POPI   GL214988   6.452   2.434   6.723  0.2774  0.0039 -0.0626
 1047POPI   C1A14989   6.526   2.253   7.137 -0.0748  0.2620  0.1889
 1047POPI   D2A14990   6.701   2.386   7.475  0.0908 -0.1768 -0.0273
 1047POPI   C3A14991   6.670   2.388   7.934  0.0108 -0.0184  0.5323
 1047POPI   C4A14992   6.679   2.322   8.362 -0.2159 -0.1952 -0.0436
 1047POPI   C1B14993   6.210   2.655   7.204  0.0972 -0.0740 -0.0606
 1047POPI   C2B14994   6.263   2.637   7.610  0.2944  0.0898 -0.1240
 1047POPI   C3B14995   6.191   2.708   8.096  0.1816  0.0961  0.0674
 1047POPI   C4B14996   6.168   2.869   8.498 -0.1002  0.1110 -0.0220
 1048POPI    C114997   9.266   6.321   6.100  0.0204  0.0221  0.0964
 1048POPI    C214998   9.056   6.579   6.323  0.0471 -0.0298  0.1821
 1048POPI    C314999   9.166   6.679   5.951 -0.2069 -0.0373  0.1033
 1048POPI   PO415000   9.161   6.089   6.121 -0.0463 -0.0122  0.0947
 1048POPI   GL115001   8.862   6.032   6.425 -0.0774  0.0456  0.0113
 1048POPI   GL215002   8.966   5.901   6.664 -0.0145  0.2843  0.1833
 1048POPI   C1A15003   8.486   5.975   6.634 -0.0801 -0.2524  0.4441
 1048POPI   D2A15004   8.304   5.749   6.942 -0.3399 -0.2155  0.0824
 1048POPI   C3A15005   8.272   5.776   7.377 -0.2139  0.3726 -0.0174
 1048POPI   C4A15006   8.401   5.844   7.763 -0.0141  0.0541 -0.0235
 1048POPI   C1B15007   8.871   5.926   7.098 -0.0466 -0.0404 -0.0281
 1048POPI   C2B15008   8.879   5.931   7.592  0.1573 -0.0900  0.0602
 1048POPI   C3B15009   8.905   5.842   7.914 -0.1795 -0.1982  0.0751
 1048POPI   C4B15010   9.045   5.901   8.377 -0.2215  0.3248  0.1540
 1049POPI    C115011  16.761   9.380   6.290 -0.1314  0.1277  0.0284
 1049POPI    C215012  16.409   9.190   6.295 -0.1298  0.1235 -0.0203
 1049POPI    C315013  16.555   9.333   5.950 -0.0045 -0.0225 -0.0291
 1049POPI   PO415014  16.812   9.252   6.571 -0.0230  0.2847  0.0347
 1049POPI   GL115015  16.616   9.144   6.900 -0.1082  0.1041 -0.1242
 1049POPI   GL215016  16.758   9.423   7.066 -0.0731  0.0850 -0.2228
 1049POPI   C1A15017  16.583   9.039   7.337  0.2965 -0.1375  0.0681
 1049POPI   D2A15018  16.545   9.025   7.791 -0.0033  0.0650 -0.1063
 1049POPI   C3A15019  16.236   8.937   8.107  0.0047 -0.4275  0.1041
 1049POPI   C4A15020  16.110   8.862   8.553 -0.0417  0.2083  0.1075
 1049POPI   C1B15021  16.598   9.480   7.540 -0.0540  0.0124  0.1388
 1049POPI   C2B15022  16.431   9.506   7.874  0.1761  0.1537 -0.1322
 1049POPI   C3B15023  16.453   9.608   8.278 -0.2572  0.0729 -0.1706
 1049POPI   C4B15024  16.706   9.460   8.659  0.0127 -0.1090  0.1838
 1050POPI    C115025  15.082   5.981   5.920  0.2593 -0.1397  0.0204
 1050POPI    C215026  15.320   5.835   5.633  0.0889 -0.3577 -0.0128
 1050POPI    C315027  15.012   6.072   5.537  0.1637 -0.2503  0.0108
 1050POPI   PO415028  15.042   5.747   6.024 -0.2389  0.1969  0.1820
 1050POPI   GL115029  15.065   5.634   6.370 -0.1091 -0.0201 -0.1288
 1050POPI   GL215030  15.407   5.426   6.523  0.0392 -0.0504 -0.1499
 1050POPI   C1A15031  14.920   5.807   6.766 -0.1234 -0.2277 -0.2766
 1050POPI   D2A15032  14.996   5.756   7.206  0.0528 -0.1173  0.3178
 1050POPI   C3A15033  15.022   5.791   7.614 -0.2077  0.0488 -0.1052
 1050POPI   C4A15034  15.034   5.690   8.018 -0.0695  0.0335  0.1513
 1050POPI   C1B15035  15.181   5.353   6.852 -0.0034  0.1201 -0.2336
 1050POPI   C2B15036  15.248   5.364   7.310  0.3425  0.2884 -0.1798
 1050POPI   C3B15037  15.401   5.401   7.721 -0.0219  0.0878  0.1696
 1050POPI   C4B15038  15.432   5.384   8.115 -0.0427  0.2510  0.2859
 1051POPI    C115039   0.915  11.825   6.555  0.1107 -0.1510 -0.0449
 1051POPI    C215040   0.723  11.498   6.427 -0.0891 -0.0287 -0.0624
 1051POPI    C315041   0.827  11.784   6.167  0.0209 -0.0441 -0.0362
 1051POPI   PO415042   0.785  11.859   6.759 -0.3461 -0.2326 -0.1289
 1051POPI   GL115043   0.761  12.005   7.119 -0.2534 -0.0140  0.4003
 1051POPI   GL215044   1.010  12.250   7.181 -0.1659  0.0569  0.1049
 1051POPI   C1A15045   0.799  11.791   7.459  0.1285 -0.2103 -0.0588
 1051POPI   D2A15046   0.616  11.798   7.866  0.0892 -0.1822  0.3528
 1051POPI   C3A15047   0.642  11.785   8.275  0.1933  0.1069 -0.0404
 1051POPI   C4A15048   0.428  11.740   8.609 -0.2333  0.1438 -0.0436
 1051POPI   C1B15049   1.291  12.636   7.405 -0.1124 -0.1263 -0.1604
 1051POPI   C2B15050   1.324  12.623   7.856  0.0650 -0.2142 -0.0500
 1051POPI   C3B15051   1.327  12.601   8.314 -0.1080 -0.2884  0.3687
 1051POPI   C4B15052   1.244  12.546   8.715 -0.0349  0.1972 -0.1528
 1052POPI    C115053  16.728   6.468   6.231 -0.1066  0.2918 -0.1813
 1052POPI    C215054  16.459   6.265   6.016 -0.0069 -0.1399  0.0891
 1052POPI    C315055  16.781   6.420   5.838 -0.1972 -0.0216 -0.1585
 1052POPI   PO415056  16.516   6.531   6.433 -0.2526  0.1644 -0.0044
 1052POPI   GL115057  16.360   6.836   6.753 -0.0233 -0.0392 -0.5821
 1052POPI   GL215058  16.298   6.535   6.902 -0.2994  0.1244  0.0580
 1052POPI   C1A15059  16.192   6.921   7.186 -0.1003  0.1897  0.0217
 1052POPI   D2A15060  16.131   7.049   7.589  0.1808  0.0000 -0.0922
 1052POPI   C3A15061  16.263   7.048   7.981  0.1883  0.2978 -0.0159
 1052POPI   C4A15062  16.529   6.975   8.367  0.0639  0.0202 -0.0759
 1052POPI   C1B15063  16.433   6.203   7.107 -0.1039  0.0745  0.1200
 1052POPI   C2B15064  16.547   6.127   7.523  0.0322 -0.0374  0.0003
 1052POPI   C3B15065  16.700   6.132   7.966 -0.0945  0.0367 -0.1055
 1052POPI   C4B15066  16.544   6.085   8.358 -0.0829  0.0075  0.1961
 1053POPI    C115067   8.111   0.222   6.138 -0.0979 -0.2229 -0.0266
 1053POPI    C215068   8.183   0.574   5.962  0.0266 -0.2150  0.0387
 1053POPI    C315069   8.374   0.246   5.837  0.0775 -0.2186  0.1253
 1053POPI   PO415070   8.175   0.236   6.440 -0.0911  0.2646  0.0268
 1053POPI   GL115071   7.971   0.342   6.691 -0.2336  0.1151  0.3117
 1053POPI   GL215072   7.637   0.529   6.704 -0.0545 -0.1590 -0.0043
 1053POPI   C1A15073   8.057   0.443   7.117  0.1811 -0.1452  0.0681
 1053POPI   D2A15074   8.025   0.495   7.499  0.0046 -0.0257  0.2024
 1053POPI   C3A15075   8.111   0.380   7.877 -0.0664  0.0617 -0.0084
 1053POPI   C4A15076   8.291   0.393   8.330  0.2632 -0.4360 -0.1646
 1053POPI   C1B15077   7.714   0.813   7.024  0.1454 -0.1758  0.1240
 1053POPI   C2B15078   7.661   0.854   7.472 -0.0105 -0.0433 -0.1227
 1053POPI   C3B15079   7.638   0.836   7.820  0.2718 -0.2064  0.1237
 1053POPI   C4B15080   7.675   0.929   8.248 -0.0109  0.1828 -0.2097
 1054POPI    C115081  14.109   2.675   6.399  0.1531 -0.2132  0.2751
 1054POPI    C215082  14.395   2.801   6.149  0.2787 -0.2103  0.4193
 1054POPI    C315083  14.236   2.437   6.104  0.0141 -0.0588  0.0876
 1054POPI   PO415084  14.076   2.962   6.510  0.0033 -0.1446 -0.0146
 1054POPI   GL115085  14.270   3.131   6.886  0.1635 -0.0316 -0.2436
 1054POPI   GL215086  14.270   2.819   6.945  0.1593 -0.0386  0.0326
 1054POPI   C1A15087  14.255   3.165   7.293  0.2089  0.1368  0.0872
 1054POPI   D2A15088  14.255   3.068   7.703  0.0447  0.2101 -0.1666
 1054POPI   C3A15089  14.339   3.110   8.115 -0.0126  0.0833 -0.0690
 1054POPI   C4A15090  14.651   3.250   8.459  0.0224 -0.1555  0.1617
 1054POPI   C1B15091  14.238   2.605   7.297 -0.0403  0.0380  0.0984
 1054POPI   C2B15092  14.190   2.551   7.713  0.0631 -0.1574  0.0279
 1054POPI   C3B15093  14.186   2.581   8.100 -0.3003  0.0456  0.0848
 1054POPI   C4B15094  14.227   2.512   8.459 -0.3290  0.0401 -0.1530
 1055POPI    C115095  16.875  12.133   6.749  0.1141 -0.2673  0.0193
 1055POPI    C215096  16.699  12.042   6.402  0.0065 -0.0193  0.0069
 1055POPI    C315097  17.084  12.148   6.409 -0.0303  0.1200 -0.0566
 1055POPI   PO415098  16.712  12.357   6.834 -0.1427  0.0592  0.1101
 1055POPI   GL115099  16.557  12.507   7.262  0.2332 -0.3072  0.0598
 1055POPI   GL215100  16.599  12.129   7.276 -0.0976 -0.1458  0.3489
 1055POPI   C1A15101  16.603  12.474   7.676  0.0563 -0.0699 -0.1823
 1055POPI   D2A15102  16.521  12.531   8.137  0.0714 -0.2748 -0.3256
 1055POPI   C3A15103  16.577  12.803   8.521  0.0310  0.1443 -0.1601
 1055POPI   C4A15104  16.388  13.114   8.958 -0.1357 -0.1086  0.0969
 1055POPI   C1B15105  16.504  11.987   7.663  0.0924  0.0359  0.1461
 1055POPI   C2B15106  16.282  12.058   8.055 -0.2325 -0.0305  0.2799
 1055POPI   C3B15107  16.060  11.976   8.404  0.0034 -0.0050 -0.3221
 1055POPI   C4B15108  15.804  11.827   8.821  0.0902  0.0836 -0.4183
 1056POPI    C115109  13.560  12.957   6.134  0.0388 -0.1568  0.1763
 1056POPI    C215110  13.699  13.210   5.856  0.2823 -0.5105 -0.0321
 1056POPI    C315111  13.343  13.035   5.807  0.1966 -0.3529  0.0217
 1056POPI   PO415112  13.642  13.091   6.347  0.5645 -0.0211 -0.0796
 1056POPI   GL115113  13.728  13.046   6.835 -0.1623 -0.2120  0.1098
 1056POPI   GL215114  13.421  13.215   6.822 -0.1019 -0.0664  0.0425
 1056POPI   C1A15115  13.762  12.970   7.179  0.2673  0.1733  0.0350
 1056POPI   D2A15116  13.660  12.926   7.545 -0.4791  0.0847  0.0526
 1056POPI   C3A15117  13.517  12.828   8.004  0.2269  0.2493  0.2010
 1056POPI   C4A15118  13.406  12.897   8.438  0.0716  0.0176 -0.0827
 1056POPI   C1B15119  13.354  13.335   7.253 -0.1082 -0.1164  0.4810
 1056POPI   C2B15120  13.218  13.305   7.715  0.0332  0.2233  0.2782
 1056POPI   C3B15121  13.193  13.201   8.105  0.0309  0.1253 -0.1018
 1056POPI   C4B15122  13.106  13.287   8.528 -0.1364  0.1517 -0.2330
 1057POPI    C115123   9.972   7.804   6.133 -0.1018 -0.1825  0.0164
 1057POPI    C215124  10.117   7.431   6.140  0.0553 -0.1233 -0.0586
 1057POPI    C315125  10.106   7.635   5.796 -0.1611 -0.1090 -0.0444
 1057POPI   PO415126  10.076   7.856   6.376 -0.1013 -0.1632 -0.0277
 1057POPI   GL115127   9.998   7.606   6.696 -0.1377  0.1176  0.1489
 1057POPI   GL215128  10.224   7.342   6.658 -0.2611  0.0733  0.3454
 1057POPI   C1A15129   9.836   7.601   7.102  0.0830  0.0274 -0.1629
 1057POPI   D2A15130  10.006   7.615   7.433 -0.1292  0.0677 -0.1689
 1057POPI   C3A15131   9.911   7.573   7.788  0.0288  0.1625 -0.1044
 1057POPI   C4A15132   9.885   7.517   8.245 -0.0126 -0.0210 -0.2395
 1057POPI   C1B15133  10.310   7.292   7.049 -0.0478 -0.2512  0.1891
 1057POPI   C2B15134  10.352   7.163   7.468  0.1447 -0.1986 -0.0993
 1057POPI   C3B15135  10.266   7.202   7.807 -0.0081  0.1655 -0.2182
 1057POPI   C4B15136  10.253   7.198   8.305  0.0988 -0.3234 -0.0848
 1058POPI    C115137   4.722   2.122   6.326  0.1349 -0.0347  0.1251
 1058POPI    C215138   5.012   1.893   6.172  0.0681  0.0514 -0.1339
 1058POPI    C315139   4.657   1.918   5.988  0.0015  0.1923  0.0113
 1058POPI   PO415140   4.814   2.034   6.639  0.0686 -0.1025 -0.0995
 1058POPI   GL115141   4.534   1.835   6.896  0.0979 -0.0698 -0.1761
 1058POPI   GL215142   4.759   1.681   7.084 -0.1026 -0.0109 -0.0268
 1058POPI   C1A15143   4.492   2.180   7.194  0.2581  0.2824  0.0631
 1058POPI   D2A15144   4.585   2.225   7.574 -0.2662  0.2522 -0.1221
 1058POPI   C3A15145   4.547   2.254   8.005 -0.1350 -0.0100 -0.0161
 1058POPI   C4A15146   4.534   2.312   8.467  0.0151 -0.1568 -0.2596
 1058POPI   C1B15147   4.739   1.785   7.483  0.1244 -0.1321 -0.4692
 1058POPI   C2B15148   4.718   1.845   7.881 -0.2818  0.0740  0.3453
 1058POPI   C3B15149   4.906   1.780   8.300  0.1093 -0.4461  0.1514
 1058POPI   C4B15150   4.864   1.953   8.619  0.3379  0.0936 -0.3311
 1059POPI    C115151   3.268   8.478   6.499  0.2730 -0.0458  0.2261
 1059POPI    C215152   3.219   8.516   6.104 -0.0296 -0.1384  0.2516
 1059POPI    C315153   3.586   8.475   6.258  0.0924 -0.0680 -0.0156
 1059POPI   PO415154   3.161   8.222   6.547 -0.3587  0.0328 -0.8119
 1059POPI   GL115155   3.370   8.182   6.916  0.2759  0.1360 -0.0012
 1059POPI   GL215156   3.084   8.067   7.007  0.1510 -0.0674  0.1495
 1059POPI   C1A15157   3.541   8.341   7.354 -0.0120 -0.0074  0.0124
 1059POPI   D2A15158   3.807   8.377   7.685  0.1003  0.1500 -0.2072
 1059POPI   C3A15159   3.886   8.272   8.131 -0.0509 -0.0010 -0.0973
 1059POPI   C4A15160   3.881   8.083   8.532 -0.1752 -0.4368 -0.0151
 1059POPI   C1B15161   3.177   7.970   7.393 -0.0208 -0.1475 -0.1386
 1059POPI   C2B15162   3.374   8.077   7.721  0.0761 -0.3935 -0.0775
 1059POPI   C3B15163   3.337   7.985   8.128 -0.1455 -0.2006  0.1963
 1059POPI   C4B15164   3.286   7.947   8.638 -0.2273 -0.2410 -0.0367
 1060POPI    C115165   9.795  10.550   6.019 -0.0045  0.2316 -0.0477
 1060POPI    C215166  10.064  10.322   5.832 -0.2652 -0.1014 -0.0272
 1060POPI    C315167   9.883  10.620   5.635  0.0549  0.0739 -0.0633
 1060POPI   PO415168   9.819  10.545   6.225 -0.1126  0.0435  0.2297
 1060POPI   GL115169   9.576  10.382   6.575  0.1436 -0.0471 -0.1226
 1060POPI   GL215170   9.225  10.471   6.580 -0.0241  0.3569  0.0457
 1060POPI   C1A15171   9.462  10.326   7.071  0.0037 -0.0392 -0.2854
 1060POPI   D2A15172   9.553  10.310   7.505  0.0154 -0.0811 -0.1609
 1060POPI   C3A15173   9.597  10.284   8.003  0.0859  0.3285 -0.0555
 1060POPI   C4A15174   9.577  10.362   8.428  0.0206 -0.1825 -0.1772
 1060POPI   C1B15175   9.485  10.829   6.919 -0.1348  0.1226  0.0662
 1060POPI   C2B15176   9.574  10.785   7.328 -0.0072 -0.0290  0.0532
 1060POPI   C3B15177   9.707  10.802   7.703  0.1067 -0.1825  0.0938
 1060POPI   C4B15178   9.759  10.899   8.127 -0.1080  0.2075 -0.1253
 1061POPI    C115179   6.675  14.692   6.017 -0.0056 -0.0690  0.0865
 1061POPI    C215180   6.784  14.781   5.642  0.1665 -0.0689  0.1355
 1061POPI    C315181   6.410  14.852   5.764  0.1878  0.2008  0.0495
 1061POPI   PO415182   6.822  14.509   6.095  0.1515  0.2457 -0.0625
 1061POPI   GL115183   6.939  14.525   6.547 -0.0399 -0.2185  0.0874
 1061POPI   GL215184   6.753  14.742   6.821 -0.3306 -0.3481  0.1578
 1061POPI   C1A15185   7.244  14.662   6.701 -0.2880 -0.1936  0.4502
 1061POPI   D2A15186   7.667  14.584   6.876 -0.0589  0.4713 -0.2846
 1061POPI   C3A15187   7.770  14.545   7.366 -0.0577  0.0584 -0.0556
 1061POPI   C4A15188   7.825  14.600   7.790 -0.2275 -0.0592 -0.2132
 1061POPI   C1B15189   6.946  14.688   7.268  0.1988 -0.3240  0.2592
 1061POPI   C2B15190   6.986  14.840   7.632 -0.0617  0.0786  0.3072
 1061POPI   C3B15191   7.078  14.868   8.116 -0.0811  0.1016  0.1187
 1061POPI   C4B15192   7.076  14.701   8.493 -0.1103 -0.0728 -0.2242
 1062POPI    C115193  14.322  17.035   6.051 -0.1011  0.1410  0.0033
 1062POPI    C215194  14.470  16.677   5.952 -0.0786  0.1738 -0.0826
 1062POPI    C315195  14.203  16.855   5.714 -0.2940  0.0933  0.0949
 1062POPI   PO415196  14.334  17.011   6.334 -0.1206 -0.1254 -0.1503
 1062POPI   GL115197  14.069  17.114   6.685 -0.2680 -0.0738  0.0018
 1062POPI   GL215198  13.740  17.043   6.597 -0.2924 -0.0657 -0.1165
 1062POPI   C1A15199  14.022  16.914   7.078 -0.1305  0.2299 -0.1415
 1062POPI   D2A15200  13.971  16.772   7.515  0.1323 -0.3315  0.0024
 1062POPI   C3A15201  13.916  16.901   7.904 -0.1761 -0.0562 -0.2390
 1062POPI   C4A15202  14.067  16.973   8.296  0.2889  0.0314 -0.0438
 1062POPI   C1B15203  13.594  17.266   6.975  0.1937 -0.0988  0.1973
 1062POPI   C2B15204  13.607  17.163   7.314  0.2311 -0.1345 -0.0100
 1062POPI   C3B15205  13.525  17.193   7.754 -0.1434  0.1919  0.1979
 1062POPI   C4B15206  13.646  17.252   8.156  0.1593 -0.0978 -0.0985
 1063POPI    C115207   4.730   1.176   6.248 -0.1030 -0.1481  0.0705
 1063POPI    C215208   4.652   1.372   5.908 -0.0406 -0.0777  0.0966
 1063POPI    C315209   4.352   1.218   6.123 -0.0944  0.0359  0.1035
 1063POPI   PO415210   4.834   1.037   6.273 -0.2144  0.2472  0.2726
 1063POPI   GL115211   4.986   1.082   6.737 -0.1058 -0.2576 -0.0584
 1063POPI   GL215212   5.002   1.290   7.011 -0.0087  0.0989  0.3193
 1063POPI   C1A15213   5.201   0.841   7.039  0.2866 -0.1045 -0.1680
 1063POPI   D2A15214   5.251   0.506   7.378  0.0605 -0.2848 -0.1378
 1063POPI   C3A15215   5.277   0.449   7.808  0.2776 -0.1977  0.0167
 1063POPI   C4A15216   5.252   0.514   8.301  0.0793  0.1024  0.1520
 1063POPI   C1B15217   4.880   1.304   7.450  0.0342 -0.0071 -0.0327
 1063POPI   C2B15218   4.914   1.417   7.934  0.1576  0.1181  0.1821
 1063POPI   C3B15219   4.723   1.239   8.315 -0.2677 -0.2044 -0.0990
 1063POPI   C4B15220   4.311   1.187   8.479 -0.0538  0.2598 -0.1849
 1064POPI    C115221   9.639   8.118   5.963 -0.0165 -0.0145 -0.0820
 1064POPI    C215222   9.428   7.804   6.091 -0.1039  0.1017  0.0626
 1064POPI    C315223   9.633   7.781   5.748  0.0949 -0.1976  0.1966
 1064POPI   PO415224   9.668   8.224   6.159 -0.4090  0.0410  0.2761
 1064POPI   GL115225   9.691   8.266   6.547  0.0349 -0.0054 -0.2330
 1064POPI   GL215226  10.039   8.212   6.689  0.1866 -0.0218 -0.1156
 1064POPI   C1A15227   9.663   8.425   6.990  0.0605 -0.1630  0.1336
 1064POPI   D2A15228   9.669   8.535   7.329  0.0172  0.2425 -0.4720
 1064POPI   C3A15229   9.659   8.478   7.693  0.0798 -0.1318 -0.0186
 1064POPI   C4A15230   9.704   8.391   8.176 -0.1194  0.1114  0.1925
 1064POPI   C1B15231  10.076   8.152   7.089  0.0050  0.2874 -0.1212
 1064POPI   C2B15232  10.098   8.128   7.562 -0.0162  0.1755 -0.1116
 1064POPI   C3B15233  10.036   8.017   8.038 -0.1240 -0.0916 -0.2075
 1064POPI   C4B15234   9.937   8.022   8.436  0.1318 -0.0253  0.1638
 1065POPI    C115235   2.280   7.292   6.312  0.0477 -0.1961 -0.2717
 1065POPI    C215236   2.559   7.314   6.026  0.1540  0.2270 -0.1428
 1065POPI    C315237   2.223   7.529   5.994  0.0593  0.0915 -0.0636
 1065POPI   PO415238   2.353   7.254   6.506 -0.1846 -0.1043  0.1291
 1065POPI   GL115239   2.439   7.397   6.831 -0.2221  0.1530 -0.0795
 1065POPI   GL215240   2.801   7.192   6.895  0.1157 -0.0646  0.0128
 1065POPI   C1A15241   2.439   7.567   7.282 -0.1908  0.0165  0.0330
 1065POPI   D2A15242   2.347   7.458   7.681 -0.0743 -0.2114 -0.2926
 1065POPI   C3A15243   2.673   7.385   7.947 -0.2098 -0.3475  0.0554
 1065POPI   C4A15244   2.699   7.417   8.407  0.2672 -0.1771  0.0574
 1065POPI   C1B15245   2.956   7.487   7.149  0.1347 -0.1928  0.1691
 1065POPI   C2B15246   2.836   7.664   7.569  0.1306 -0.0632  0.0071
 1065POPI   C3B15247   3.123   7.527   7.916 -0.1239  0.1857 -0.0808
 1065POPI   C4B15248   3.226   7.451   8.331  0.1615  0.0184 -0.1561
 1066POPI    C115249   6.329   7.301   6.005 -0.1016 -0.0806 -0.0119
 1066POPI    C215250   5.978   7.327   5.814 -0.0663  0.0745 -0.0569
 1066POPI    C315251   6.314   7.260   5.607 -0.0655 -0.0486 -0.0166
 1066POPI   PO415252   6.421   7.189   6.158 -0.3207  0.0081 -0.3564
 1066POPI   GL115253   6.551   6.977   6.498  0.0759  0.0533  0.1465
 1066POPI   GL215254   6.332   6.842   6.638 -0.0462 -0.1258  0.0048
 1066POPI   C1A15255   6.547   7.151   6.914 -0.3557  0.1202  0.0468
 1066POPI   D2A15256   6.369   7.423   7.193 -0.5032  0.1763 -0.1616
 1066POPI   C3A15257   6.502   7.436   7.650 -0.1559  0.2653 -0.1471
 1066POPI   C4A15258   6.519   7.530   8.074  0.1763  0.1106  0.0957
 1066POPI   C1B15259   6.117   6.961   7.016 -0.0537  0.0083  0.2370
 1066POPI   C2B15260   6.218   7.037   7.455  0.0998 -0.0268  0.3647
 1066POPI   C3B15261   6.131   6.915   7.942 -0.0879  0.1479  0.3194
 1066POPI   C4B15262   6.048   6.789   8.320 -0.0484  0.1134 -0.0516
 1067POPI    C115263   0.083   2.020   5.948  0.0993  0.0644 -0.0885
 1067POPI    C215264   0.460   1.926   5.853  0.0931 -0.0005 -0.0498
 1067POPI    C315265   0.185   1.966   5.565  0.1217  0.0128 -0.0754
 1067POPI   PO415266   0.021   1.890   6.199  0.1563  0.1442 -0.0911
 1067POPI   GL115267  -0.020   1.967   6.606 -0.0839 -0.3364  0.1484
 1067POPI   GL215268   0.347   2.055   6.718  0.4037 -0.3641  0.2266
 1067POPI   C1A15269  -0.274   2.134   6.949 -0.1378  0.0505 -0.1495
 1067POPI   D2A15270  -0.519   2.351   7.220 -0.2684 -0.2404  0.0693
 1067POPI   C3A15271  -0.558   2.263   7.635 -0.3287 -0.0671 -0.0216
 1067POPI   C4A15272  -0.715   2.332   8.018 -0.2295  0.0542  0.2573
 1067POPI   C1B15273   0.263   1.882   7.210 -0.0177  0.0182  0.2895
 1067POPI   C2B15274   0.240   1.936   7.690  0.0428  0.2110 -0.0547
 1067POPI   C3B15275   0.179   1.916   8.170  0.0701 -0.1526  0.1337
 1067POPI   C4B15276   0.203   1.963   8.596  0.0663 -0.0454 -0.0733
 1068POPI    C115277   3.369   6.645   6.348 -0.0506  0.1132  0.1720
 1068POPI    C215278   3.139   6.518   6.046 -0.0496 -0.0217  0.2270
 1068POPI    C315279   3.418   6.798   5.982 -0.4185  0.3548  0.2177
 1068POPI   PO415280   3.231   6.673   6.520  0.1942 -0.0010  0.1024
 1068POPI   GL115281   2.925   6.722   6.845  0.0544 -0.2712  0.4538
 1068POPI   GL215282   2.783   6.522   6.952  0.1958  0.0583 -0.0796
 1068POPI   C1A15283   2.940   6.951   7.304 -0.1151  0.2628  0.0167
 1068POPI   D2A15284   2.973   7.184   7.636 -0.0976 -0.3595 -0.0229
 1068POPI   C3A15285   2.951   6.975   7.947 -0.2198 -0.0322 -0.2200
 1068POPI   C4A15286   3.043   6.981   8.372 -0.1218 -0.1882 -0.1431
 1068POPI   C1B15287   2.891   6.499   7.372  0.0073 -0.4358  0.4282
 1068POPI   C2B15288   2.877   6.351   7.742 -0.1711 -0.0095  0.1298
 1068POPI   C3B15289   2.887   6.496   8.195 -0.0699 -0.2513  0.0539
 1068POPI   C4B15290   2.864   6.492   8.509  0.2188 -0.2598 -0.1398
 1069POPI    C115291  11.664   2.282   5.822 -0.2286  0.0711  0.1874
 1069POPI    C215292  11.503   1.962   6.001 -0.1323 -0.0241  0.1054
 1069POPI    C315293  11.438   2.028   5.611 -0.2228  0.1039  0.1414
 1069POPI   PO415294  11.823   2.402   6.030  0.0782 -0.1540 -0.0609
 1069POPI   GL115295  11.938   2.489   6.418 -0.2022  0.1220  0.1775
 1069POPI   GL215296  11.881   2.742   6.653 -0.0655 -0.1089 -0.1793
 1069POPI   C1A15297  11.860   2.413   6.968  0.0607  0.1151 -0.3802
 1069POPI   D2A15298  11.781   2.421   7.441 -0.0480  0.1277 -0.1416
 1069POPI   C3A15299  11.880   2.394   7.853  0.0641  0.0727  0.0790
 1069POPI   C4A15300  11.744   2.264   8.287  0.2977  0.0383 -0.1913
 1069POPI   C1B15301  11.934   2.898   7.122  0.0536 -0.1220  0.1741
 1069POPI   C2B15302  11.989   2.834   7.434 -0.0855  0.2309 -0.2363
 1069POPI   C3B15303  11.984   2.925   7.789 -0.1307  0.2621  0.0922
 1069POPI   C4B15304  11.934   2.840   8.154 -0.1645 -0.1957  0.1125
 1070POPI    C115305   7.556   7.175   5.637 -0.0705  0.2102 -0.1001
 1070POPI    C215306   7.478   6.783   5.649  0.1250  0.1678 -0.1727
 1070POPI    C315307   7.780   6.920   5.425  0.2285  0.3314  0.0631
 1070POPI   PO415308   7.570   7.273   5.899 -0.2240  0.0343  0.0289
 1070POPI   GL115309   7.799   7.250   6.173  0.2309  0.1471  0.3095
 1070POPI   GL215310   8.158   7.139   6.211 -0.0232  0.0126 -0.0723
 1070POPI   C1A15311   7.750   7.051   6.630 -0.1974 -0.1088  0.0284
 1070POPI   D2A15312   7.737   6.948   7.076  0.1179 -0.3213  0.0906
 1070POPI   C3A15313   7.784   6.997   7.499 -0.3217  0.0292  0.0231
 1070POPI   C4A15314   7.729   6.952   7.891  0.0946  0.1134 -0.3746
 1070POPI   C1B15315   8.286   7.061   6.625  0.1510  0.1394 -0.0977
 1070POPI   C2B15316   8.392   7.130   7.012  0.1823  0.3379  0.2611
 1070POPI   C3B15317   8.351   7.187   7.399  0.1064  0.0483 -0.2487
 1070POPI   C4B15318   8.214   7.101   7.774  0.1140  0.1994  0.1523
 1071POPI    C115319  14.358   8.884   5.880  0.2409  0.1650 -0.1780
 1071POPI    C215320  14.503   8.530   5.764 -0.1807 -0.1468  0.2086
 1071POPI    C315321  14.257   8.734   5.524 -0.0175 -0.1608  0.0269
 1071POPI   PO415322  14.341   8.825   6.191  0.1969  0.1068  0.3751
 1071POPI   GL115323  14.446   8.739   6.637 -0.0361 -0.4078 -0.0137
 1071POPI   GL215324  14.344   8.597   6.880  0.0907 -0.1838  0.1812
 1071POPI   C1A15325  14.642   9.019   6.941 -0.0970  0.0695  0.2403
 1071POPI   D2A15326  14.475   8.950   7.259  0.0697 -0.2385 -0.0082
 1071POPI   C3A15327  14.357   8.946   7.687 -0.0789 -0.0364 -0.0414
 1071POPI   C4A15328  14.330   8.927   8.081 -0.0597 -0.0335 -0.1506
 1071POPI   C1B15329  14.249   8.447   7.192 -0.0539  0.3122 -0.2555
 1071POPI   C2B15330  14.311   8.424   7.612 -0.0312  0.1766  0.1657
 1071POPI   C3B15331  14.214   8.377   8.006 -0.4896 -0.0906 -0.2499
 1071POPI   C4B15332  14.193   8.350   8.418  0.1383  0.0598 -0.0881
 1072POPI    C115333   2.633   9.887   6.848  0.1297 -0.1674 -0.1256
 1072POPI    C215334   2.411   9.827   6.520 -0.0444  0.0152 -0.0437
 1072POPI    C315335   2.756  10.028   6.494  0.0225 -0.1103 -0.1407
 1072POPI   PO415336   2.525   9.918   7.027  0.0842  0.0036 -0.3039
 1072POPI   GL115337   2.590   9.596   7.360 -0.1682 -0.0854  0.0831
 1072POPI   GL215338   2.253   9.765   7.403 -0.1519 -0.0858 -0.1763
 1072POPI   C1A15339   2.782   9.606   7.716 -0.1621  0.0551  0.1536
 1072POPI   D2A15340   2.866   9.610   8.190  0.1737  0.3897  0.0192
 1072POPI   C3A15341   2.826   9.295   8.441  0.0641  0.0656 -0.3775
 1072POPI   C4A15342   2.685   8.880   8.428  0.0088 -0.2963  0.1789
 1072POPI   C1B15343   2.265   9.688   7.819 -0.0997  0.3378  0.0321
 1072POPI   C2B15344   2.412   9.798   8.127  0.0755  0.0490  0.2902
 1072POPI   C3B15345   2.513   9.813   8.578  0.4094  0.3529 -0.1639
 1072POPI   C4B15346   2.699   9.975   8.987  0.0984 -0.0476 -0.5017
 1073POPI    C115347   2.562  11.517   6.466 -0.0445 -0.0015  0.0541
 1073POPI    C215348   2.502  11.881   6.312  0.3577  0.0523  0.0144
 1073POPI    C315349   2.196  11.626   6.348  0.0631  0.4079  0.0853
 1073POPI   PO415350   2.711  11.500   6.628  0.0242  0.1978 -0.4495
 1073POPI   GL115351   2.517  11.426   7.044 -0.1708  0.0541  0.2635
 1073POPI   GL215352   2.611  11.712   7.204 -0.1994  0.5932  0.0434
 1073POPI   C1A15353   2.416  11.190   7.392 -0.1107 -0.0967  0.3669
 1073POPI   D2A15354   2.599  11.177   7.790 -0.0908 -0.0693 -0.0820
 1073POPI   C3A15355   2.519  11.058   8.188  0.1744  0.2663  0.0499
 1073POPI   C4A15356   2.582  11.198   8.589 -0.0792  0.1484 -0.0677
 1073POPI   C1B15357   2.522  11.632   7.602 -0.0927 -0.0018  0.2210
 1073POPI   C2B15358   2.388  11.569   7.982  0.3732 -0.0871 -0.0041
 1073POPI   C3B15359   2.624  11.626   8.344  0.0865  0.1276  0.0797
 1073POPI   C4B15360   2.901  11.767   8.638 -0.2316  0.1066 -0.1772
 1074POPI    C115361  15.953   0.281   6.401 -0.1309 -0.0381  0.0130
 1074POPI    C215362  15.713   0.438   6.121 -0.1613  0.0910  0.1106
 1074POPI    C315363  15.824   0.055   6.097 -0.0000  0.1529 -0.1887
 1074POPI   PO415364  16.024   0.514   6.566 -0.3566 -0.0652  0.0063
 1074POPI   GL115365  15.714   0.617   6.914  0.0668  0.1264  0.4345
 1074POPI   GL215366  15.885   0.877   6.934  0.1985 -0.1685 -0.1628
 1074POPI   C1A15367  15.570   0.400   7.282 -0.1409  0.1624  0.1171
 1074POPI   D2A15368  15.553   0.289   7.792 -0.2525  0.1564 -0.1091
 1074POPI   C3A15369  15.549   0.289   8.159 -0.0241 -0.2709  0.1379
 1074POPI   C4A15370  15.548  -0.020   8.441  0.2472 -0.1420  0.0081
 1074POPI   C1B15371  15.806   0.812   7.413 -0.0141  0.1189  0.0788
 1074POPI   C2B15372  15.665   0.786   7.833 -0.2079  0.0874  0.1058
 1074POPI   C3B15373  15.587   0.779   8.183 -0.1831  0.1113 -0.2046
 1074POPI   C4B15374  15.646   0.586   8.602  0.0841 -0.2427 -0.1272
 1075POPI    C115375   2.912  12.170   6.430  0.0280 -0.2633 -0.0334
 1075POPI    C215376   2.858  12.240   6.040 -0.0814 -0.0074  0.0259
 1075POPI    C315377   3.218  12.129   6.175  0.0027  0.0801 -0.1231
 1075POPI   PO415378   2.794  11.975   6.710  0.0454  0.0560 -0.1973
 1075POPI   GL115379   3.007  11.943   7.220  0.2590 -0.1301 -0.3590
 1075POPI   GL215380   3.179  12.192   7.283  0.1052  0.0842 -0.0701
 1075POPI   C1A15381   2.979  11.560   7.502 -0.0746  0.0045 -0.2463
 1075POPI   D2A15382   2.923  11.566   7.940 -0.1578  0.1366 -0.2602
 1075POPI   C3A15383   3.130  11.733   8.243 -0.0390 -0.2498  0.2711
 1075POPI   C4A15384   3.383  11.661   8.573 -0.0343 -0.0409  0.0163
 1075POPI   C1B15385   3.242  11.925   7.665 -0.2752 -0.0234  0.1192
 1075POPI   C2B15386   3.469  11.520   7.786  0.2217 -0.1983 -0.2234
 1075POPI   C3B15387   3.519  11.315   8.123 -0.2415  0.2642  0.1259
 1075POPI   C4B15388   3.485  10.990   8.359  0.0636  0.0373 -0.1746
 1076POPI    C115389  14.610   1.895   5.972  0.1714  0.1773 -0.1771
 1076POPI    C215390  14.395   2.097   5.702  0.0373  0.2329 -0.0306
 1076POPI    C315391  14.680   1.843   5.582 -0.3343 -0.0967 -0.2391
 1076POPI   PO415392  14.307   1.893   6.178 -0.1275 -0.0037  0.3672
 1076POPI   GL115393  14.236   1.862   6.485 -0.2025  0.0676 -0.0940
 1076POPI   GL215394  14.162   2.208   6.563 -0.0438  0.0834  0.3739
 1076POPI   C1A15395  14.609   1.869   6.851  0.1592 -0.1523  0.2353
 1076POPI   D2A15396  14.590   1.720   7.317 -0.0365 -0.1181 -0.2074
 1076POPI   C3A15397  14.480   1.728   7.712  0.0530 -0.0465 -0.0654
 1076POPI   C4A15398  14.444   1.725   8.069  0.2514 -0.4303  0.2171
 1076POPI   C1B15399  14.178   2.005   7.019 -0.0679 -0.4727 -0.0509
 1076POPI   C2B15400  14.019   2.147   7.445 -0.0538 -0.2725 -0.0755
 1076POPI   C3B15401  14.062   2.001   7.821  0.1185  0.3063 -0.2763
 1076POPI   C4B15402  14.103   2.074   8.167 -0.1446  0.0485 -0.0826
 1077POPI    C115403   0.956   2.178   6.295 -0.0625  0.2105 -0.0412
 1077POPI    C215404   1.197   2.457   6.450  0.1255  0.0727 -0.0820
 1077POPI    C315405   1.322   2.232   6.144 -0.0257 -0.0542 -0.0520
 1077POPI   PO415406   0.869   2.006   6.510 -0.0264  0.1900 -0.3324
 1077POPI   GL115407   0.808   1.919   6.944 -0.0461  0.0470  0.1530
 1077POPI   GL215408   0.651   1.639   6.979 -0.0666 -0.0027 -0.2560
 1077POPI   C1A15409   0.800   1.991   7.350 -0.2292 -0.3195  0.2677
 1077POPI   D2A15410   0.767   2.129   7.789  0.1951 -0.1707  0.4859
 1077POPI   C3A15411   0.788   2.099   8.153  0.0340  0.0762 -0.1027
 1077POPI   C4A15412   0.756   2.144   8.585  0.2954  0.0586  0.2110
 1077POPI   C1B15413   0.663   1.552   7.444  0.3694 -0.1326  0.1544
 1077POPI   C2B15414   0.640   1.641   7.828  0.0050  0.0592 -0.0204
 1077POPI   C3B15415   0.564   1.645   8.291  0.0090  0.0946  0.0879
 1077POPI   C4B15416   0.600   1.738   8.803 -0.3175 -0.1246  0.0889
 1078POPI    C115417   1.787   9.627   6.694 -0.2415 -0.2413 -0.3689
 1078POPI    C215418   2.070   9.471   6.458  0.4299  0.1667  0.1279
 1078POPI    C315419   1.917   9.831   6.375  0.2524  0.0672  0.0151
 1078POPI   PO415420   1.730   9.408   6.858  0.1050 -0.0940  0.0377
 1078POPI   GL115421   1.497   9.256   7.264  0.0396  0.1087  0.2942
 1078POPI   GL215422   1.378   9.457   7.404  0.1432 -0.2482  0.0617
 1078POPI   C1A15423   1.269   9.008   7.666  0.0843 -0.3047 -0.0981
 1078POPI   D2A15424   1.252   8.853   8.061  0.1506 -0.1203 -0.1883
 1078POPI   C3A15425   1.382   9.022   8.432 -0.1401  0.0132 -0.1018
 1078POPI   C4A15426   1.414   9.082   8.957  0.0329 -0.2056 -0.1219
 1078POPI   C1B15427   1.327   9.464   7.866 -0.0925  0.1663 -0.0029
 1078POPI   C2B15428   1.371   9.470   8.219  0.0197 -0.0661 -0.0679
 1078POPI   C3B15429   1.485   9.495   8.571  0.0682 -0.0406 -0.0368
 1078POPI   C4B15430   1.719   9.495   8.950  0.3326  0.1373  0.1384
 1079POPI    C115431   7.338  10.378   6.273 -0.1669 -0.0386  0.2507
 1079POPI    C215432   7.293  10.015   6.111  0.1844  0.0799 -0.1269
 1079POPI    C315433   7.120  10.333   5.941  0.0411  0.1203  0.0904
 1079POPI   PO415434   7.253  10.349   6.494 -0.0720  0.2029 -0.0269
 1079POPI   GL115435   7.023  10.316   6.855 -0.0019  0.1384 -0.0270
 1079POPI   GL215436   6.783  10.521   6.973 -0.3310  0.0972 -0.0983
 1079POPI   C1A15437   7.088  10.104   7.245 -0.0794  0.3454 -0.0717
 1079POPI   D2A15438   7.118  10.072   7.649 -0.0541  0.2855  0.1785
 1079POPI   C3A15439   7.260   9.957   8.028 -0.1555 -0.0356  0.1440
 1079POPI   C4A15440   7.269  10.031   8.460  0.0499 -0.0277 -0.1014
 1079POPI   C1B15441   6.832  10.415   7.463  0.1511  0.0519 -0.1390
 1079POPI   C2B15442   6.767  10.369   7.856  0.0678  0.1927  0.0916
 1079POPI   C3B15443   6.832  10.317   8.315  0.0914 -0.1028  0.0989
 1079POPI   C4B15444   6.949  10.434   8.806  0.0942 -0.0367  0.1775
 1080POPI    C115445   2.242   9.073   6.706  0.2252 -0.0169 -0.0011
 1080POPI    C215446   2.150   8.967   6.332  0.2054 -0.1021  0.0276
 1080POPI    C315447   2.456   8.790   6.520  0.1860 -0.0925  0.0682
 1080POPI   PO415448   2.070   9.047   6.831 -0.2286  0.1972 -0.1457
 1080POPI   GL115449   1.768   8.902   7.000 -0.0915  0.1080  0.1286
 1080POPI   GL215450   1.537   8.678   7.214  0.1959 -0.0713  0.3002
 1080POPI   C1A15451   1.935   8.886   7.405 -0.1089  0.0068  0.1239
 1080POPI   D2A15452   2.127   8.706   7.731  0.1763 -0.0651  0.0553
 1080POPI   C3A15453   2.268   8.798   8.165  0.2054  0.0249  0.1253
 1080POPI   C4A15454   2.150   8.731   8.622 -0.2021 -0.0129 -0.0483
 1080POPI   C1B15455   1.602   8.625   7.663 -0.0554  0.1928  0.2782
 1080POPI   C2B15456   1.753   8.706   8.156  0.1125  0.1248 -0.1544
 1080POPI   C3B15457   1.679   8.536   8.622  0.5461  0.4227  0.2175
 1080POPI   C4B15458   1.717   8.550   9.035 -0.1995  0.3267  0.2336
 1081POPI    C115459   7.613  17.119   6.098 -0.0558 -0.0394 -0.1136
 1081POPI    C215460   7.782  17.339   5.810 -0.0483  0.2461  0.1047
 1081POPI    C315461   7.385  17.288   5.816 -0.0410  0.1739  0.0003
 1081POPI   PO415462   7.672  17.216   6.373 -0.1071  0.0289 -0.1868
 1081POPI   GL115463   7.682  17.061   6.720  0.0031 -0.0033  0.1266
 1081POPI   GL215464   7.428  17.223   6.834  0.2480 -0.2297 -0.0892
 1081POPI   C1A15465   7.884  17.043   7.209 -0.2062  0.0650 -0.2422
 1081POPI   D2A15466   7.994  16.999   7.717  0.1591 -0.2426 -0.1830
 1081POPI   C3A15467   8.059  17.107   8.166  0.3576  0.0857 -0.0620
 1081POPI   C4A15468   8.056  17.043   8.604 -0.0426  0.1611 -0.2800
 1081POPI   C1B15469   7.547  17.457   7.128 -0.1020  0.2575 -0.1005
 1081POPI   C2B15470   7.525  17.402   7.453 -0.3352 -0.4219  0.0076
 1081POPI   C3B15471   7.657  17.397   7.832  0.0368 -0.1652  0.3505
 1081POPI   C4B15472   7.691  17.628   8.192 -0.2173 -0.1236  0.0001
 1082POPI    C115473   2.784   9.473   6.588  0.1255 -0.0850 -0.2498
 1082POPI    C215474   2.591   9.230   6.335 -0.1039 -0.0536 -0.1082
 1082POPI    C315475   2.731   9.583   6.207 -0.2053 -0.0443 -0.1950
 1082POPI   PO415476   2.723   9.338   6.832 -0.2448 -0.0242 -0.0599
 1082POPI   GL115477   2.463   9.144   7.173 -0.1497  0.2449  0.1784
 1082POPI   GL215478   2.621   8.823   6.962  0.0815  0.0024 -0.5876
 1082POPI   C1A15479   2.332   9.100   7.541 -0.0587  0.1873  0.0187
 1082POPI   D2A15480   2.490   9.234   7.949  0.2379  0.2497  0.0092
 1082POPI   C3A15481   2.340   9.363   8.343  0.2332  0.0516  0.1977
 1082POPI   C4A15482   2.113   9.450   8.676 -0.0843 -0.0696 -0.1532
 1082POPI   C1B15483   2.687   8.735   7.394 -0.1664 -0.0098  0.2019
 1082POPI   C2B15484   2.601   8.669   7.774 -0.2754  0.1273  0.3646
 1082POPI   C3B15485   2.453   8.387   7.970 -0.0145  0.6024 -0.1715
 1082POPI   C4B15486   2.531   8.257   8.276 -0.1923  0.0546  0.0710
 1083POPI    C115487  13.905  14.385   5.908 -0.1235  0.2457  0.2433
 1083POPI    C215488  14.122  14.721   5.901  0.1009  0.1006  0.0783
 1083POPI    C315489  14.270  14.384   5.743 -0.1802 -0.0417  0.1119
 1083POPI   PO415490  13.786  14.367   6.107 -0.3584  0.0630  0.1629
 1083POPI   GL115491  13.794  14.423   6.552  0.2824  0.0436  0.0013
 1083POPI   GL215492  13.571  14.716   6.680  0.3012 -0.1734 -0.3869
 1083POPI   C1A15493  13.553  14.306   6.898  0.2613  0.0082 -0.4468
 1083POPI   D2A15494  13.472  14.299   7.354  0.0854 -0.0752  0.0547
 1083POPI   C3A15495  13.455  14.378   7.822  0.0816 -0.0070  0.0004
 1083POPI   C4A15496  13.300  14.211   8.192 -0.2673 -0.1050 -0.2627
 1083POPI   C1B15497  13.539  14.835   7.123  0.0594  0.1301  0.2382
 1083POPI   C2B15498  13.567  14.774   7.484 -0.3319 -0.1904 -0.0268
 1083POPI   C3B15499  13.463  14.888   7.942  0.0438  0.3074  0.2069
 1083POPI   C4B15500  13.547  14.797   8.314  0.0206 -0.4279 -0.2506
 1084POPI    C115501   4.604  13.069   6.815 -0.1089 -0.0022  0.1186
 1084POPI    C215502   4.326  13.353   6.765  0.0973  0.1451 -0.2244
 1084POPI    C315503   4.231  13.010   6.948 -0.2462  0.2889 -0.1253
 1084POPI   PO415504   4.816  13.191   6.858  0.0964  0.2086 -0.1765
 1084POPI   GL115505   4.845  13.183   7.288  0.0037 -0.1781  0.0818
 1084POPI   GL215506   4.964  13.480   7.434  0.0802  0.1195 -0.0080
 1084POPI   C1A15507   4.734  12.843   7.746 -0.1317 -0.2807  0.1165
 1084POPI   D2A15508   4.741  12.507   8.141 -0.0763  0.1001  0.1137
 1084POPI   C3A15509   4.469  12.387   8.573  0.0191 -0.1275 -0.1117
 1084POPI   C4A15510   4.247  12.119   8.820 -0.3713 -0.1298  0.0791
 1084POPI   C1B15511   5.065  13.245   7.824  0.1652 -0.1560  0.1052
 1084POPI   C2B15512   4.978  13.001   8.132  0.0092 -0.1124 -0.0248
 1084POPI   C3B15513   4.715  12.833   8.491 -0.2174 -0.2908  0.0689
 1084POPI   C4B15514   4.438  12.907   8.920 -0.0766  0.1907  0.1405
 1085POPI    C115515   5.295  13.288   7.110 -0.1811 -0.1538 -0.1806
 1085POPI    C215516   5.210  13.557   6.826 -0.0882 -0.1416 -0.1971
 1085POPI    C315517   5.371  13.205   6.726  0.4337  0.0651 -0.1168
 1085POPI   PO415518   5.448  13.393   7.332  0.3622  0.2331  0.2079
 1085POPI   GL115519   5.790  13.240   7.551 -0.0255  0.1588  0.0025
 1085POPI   GL215520   5.955  12.909   7.608 -0.4095  0.0167 -0.2061
 1085POPI   C1A15521   5.615  13.356   8.026  0.0927 -0.0528 -0.1541
 1085POPI   D2A15522   5.653  13.562   8.365  0.1708 -0.0024  0.0378
 1085POPI   C3A15523   5.650  13.366   8.689 -0.0924  0.2163  0.1267
 1085POPI   C4A15524   5.716  13.160   9.037 -0.0018  0.5319 -0.0858
 1085POPI   C1B15525   5.996  13.040   8.014 -0.1375 -0.1831  0.2351
 1085POPI   C2B15526   5.985  12.980   8.423  0.1032 -0.1747  0.1828
 1085POPI   C3B15527   6.088  12.966   8.769 -0.0225 -0.1864  0.3402
 1085POPI   C4B15528   6.281  13.271   9.092 -0.3839  0.2625 -0.0889
 1086POPI    C115529   8.945   7.821   5.845  0.0856  0.0280  0.0188
 1086POPI    C215530   9.223   8.064   5.691 -0.0289  0.1123 -0.0566
 1086POPI    C315531   8.953   7.892   5.451 -0.0425  0.0311  0.0163
 1086POPI   PO415532   8.927   7.930   6.076 -0.0284  0.2419 -0.0232
 1086POPI   GL115533   9.172   7.875   6.554  0.1947  0.2091  0.0572
 1086POPI   GL215534   9.514   7.823   6.586 -0.0058  0.3232 -0.0430
 1086POPI   C1A15535   8.886   7.814   6.910 -0.2305  0.1562  0.0309
 1086POPI   D2A15536   8.861   7.696   7.360  0.1356 -0.0827 -0.2437
 1086POPI   C3A15537   8.907   7.748   7.769  0.2476  0.1969  0.0692
 1086POPI   C4A15538   9.001   7.764   8.191  0.0175 -0.0926 -0.0399
 1086POPI   C1B15539   9.569   7.994   6.946 -0.0017 -0.1978  0.1667
 1086POPI   C2B15540   9.680   7.998   7.386  0.1168 -0.3512 -0.1812
 1086POPI   C3B15541   9.635   8.007   7.804  0.0457 -0.2242  0.1341
 1086POPI   C4B15542   9.523   7.922   8.186 -0.0240 -0.1698 -0.0717
 1087POPI    C115543  14.897   8.540   6.130 -0.1421  0.1052 -0.0939
 1087POPI    C215544  15.193   8.287   6.035 -0.1140 -0.0135  0.2936
 1087POPI    C315545  14.987   8.472   5.746  0.1035 -0.2013  0.0135
 1087POPI   PO415546  14.907   8.491   6.409  0.0661  0.0010 -0.2076
 1087POPI   GL115547  14.809   8.429   6.708  0.3539  0.1269  0.3086
 1087POPI   GL215548  15.028   8.848   6.688  0.2347 -0.0703  0.0125
 1087POPI   C1A15549  14.784   8.552   7.125  0.1148  0.1890 -0.1926
 1087POPI   D2A15550  14.782   8.545   7.642  0.4538 -0.3016 -0.0577
 1087POPI   C3A15551  14.722   8.572   8.041  0.1334 -0.1774  0.0946
 1087POPI   C4A15552  14.643   8.549   8.371 -0.0058 -0.3450  0.1224
 1087POPI   C1B15553  15.299   8.631   6.924  0.0585  0.0784 -0.0914
 1087POPI   C2B15554  15.298   8.647   7.349  0.0434  0.2929  0.1520
 1087POPI   C3B15555  15.219   8.667   7.719  0.1910  0.2085 -0.1833
 1087POPI   C4B15556  15.161   8.700   8.200  0.1137 -0.2430  0.0559
 1088POPI    C115557   0.650  14.463   6.587 -0.0976 -0.1143  0.1427
 1088POPI    C215558   0.964  14.595   6.378 -0.0821 -0.0940  0.1788
 1088POPI    C315559   0.647  14.442   6.187 -0.1247  0.0493  0.1337
 1088POPI   PO415560   0.739  14.374   6.811 -0.0449  0.0721  0.2092
 1088POPI   GL115561   0.966  14.466   7.244  0.1926 -0.0073 -0.0382
 1088POPI   GL215562   0.720  14.532   7.330  0.4857  0.1905  0.1350
 1088POPI   C1A15563   1.184  14.528   7.588  0.1258  0.0203 -0.1218
 1088POPI   D2A15564   1.329  14.392   8.016 -0.1832 -0.2948  0.1482
 1088POPI   C3A15565   1.179  14.373   8.433 -0.1980 -0.0660  0.0350
 1088POPI   C4A15566   1.093  14.445   8.847 -0.0698  0.0979 -0.0871
 1088POPI   C1B15567   0.755  14.634   7.815 -0.3944 -0.2836  0.0336
 1088POPI   C2B15568   0.872  14.655   8.171  0.2186  0.0012  0.5821
 1088POPI   C3B15569   0.899  14.781   8.549  0.0152 -0.0807 -0.0606
 1088POPI   C4B15570   0.938  14.978   8.830  0.0108  0.1037 -0.1044
 1089POPI    C115571  11.999   5.000   5.915  0.1740 -0.1154 -0.1153
 1089POPI    C215572  12.263   5.122   5.641  0.0013  0.1521 -0.1668
 1089POPI    C315573  12.060   4.782   5.585  0.1919  0.0449 -0.2187
 1089POPI   PO415574  12.008   4.976   6.217 -0.0507 -0.2485 -0.0716
 1089POPI   GL115575  11.836   5.256   6.525  0.2529  0.1557  0.1868
 1089POPI   GL215576  12.125   5.394   6.655  0.1793 -0.3009 -0.0023
 1089POPI   C1A15577  11.703   5.127   6.964 -0.0605  0.0243 -0.2078
 1089POPI   D2A15578  11.756   4.981   7.368 -0.1689 -0.1341  0.3049
 1089POPI   C3A15579  11.582   5.208   7.707  0.0205 -0.2158 -0.1230
 1089POPI   C4A15580  11.527   5.273   8.132 -0.0981 -0.1657  0.3081
 1089POPI   C1B15581  12.148   5.427   7.123 -0.0713 -0.2177 -0.2051
 1089POPI   C2B15582  12.098   5.304   7.572  0.1663  0.1902 -0.1022
 1089POPI   C3B15583  11.992   5.237   7.978  0.0958 -0.2270 -0.1299
 1089POPI   C4B15584  12.018   5.243   8.465  0.2949 -0.0210 -0.1996
 1090POPI    C115585   8.422   7.968   5.988 -0.0059  0.0596 -0.1172
 1090POPI    C215586   8.139   8.011   5.709  0.0610 -0.1450 -0.2186
 1090POPI    C315587   8.523   7.980   5.601  0.1338  0.2159 -0.0773
 1090POPI   PO415588   8.193   8.009   6.206 -0.0153 -0.0542 -0.1020
 1090POPI   GL115589   8.243   7.919   6.492  0.0223  0.0310 -0.3006
 1090POPI   GL215590   8.002   7.949   6.894 -0.0701 -0.1389 -0.0388
 1090POPI   C1A15591   8.463   8.102   6.831 -0.0476 -0.2257  0.2215
 1090POPI   D2A15592   8.652   8.147   7.217 -0.4615 -0.1699 -0.1202
 1090POPI   C3A15593   8.490   8.100   7.590 -0.0286 -0.0434  0.0833
 1090POPI   C4A15594   8.665   8.164   8.006 -0.0982 -0.1449 -0.2408
 1090POPI   C1B15595   7.969   7.981   7.242  0.1287  0.2507  0.1177
 1090POPI   C2B15596   7.978   7.989   7.724 -0.1731 -0.0254 -0.0645
 1090POPI   C3B15597   8.155   8.040   8.120 -0.2432 -0.1169  0.0805
 1090POPI   C4B15598   8.532   7.962   8.423 -0.2417 -0.1072 -0.3567
 1091POPI    C115599   3.006  15.684   7.053 -0.0744 -0.2533  0.0266
 1091POPI    C215600   3.360  15.631   7.231 -0.0319  0.3434  0.1403
 1091POPI    C315601   3.340  15.822   6.881 -0.1887 -0.2199 -0.1708
 1091POPI   PO415602   2.907  15.476   7.017 -0.1362  0.0076  0.0051
 1091POPI   GL115603   2.753  15.057   7.222  0.0839  0.1148 -0.1195
 1091POPI   GL215604   3.121  15.082   7.184  0.1792 -0.2923 -0.0866
 1091POPI   C1A15605   2.914  14.997   7.656  0.3120 -0.0195 -0.1576
 1091POPI   D2A15606   2.888  15.114   8.015  0.0332 -0.1303 -0.0148
 1091POPI   C3A15607   2.990  14.974   8.413 -0.2102  0.1171 -0.0626
 1091POPI   C4A15608   2.722  15.190   8.787 -0.1095 -0.1957  0.0452
 1091POPI   C1B15609   3.244  15.388   7.635  0.1539  0.1772  0.0690
 1091POPI   C2B15610   3.293  15.315   8.144  0.3619  0.0252  0.1056
 1091POPI   C3B15611   3.129  15.420   8.645 -0.0226 -0.1124  0.2607
 1091POPI   C4B15612   3.025  15.466   9.055  0.2498  0.0425 -0.0571
 1092POPI    C115613   7.080   2.847   6.254 -0.1237 -0.1938 -0.0727
 1092POPI    C215614   7.386   2.828   5.997 -0.1567 -0.2708 -0.1067
 1092POPI    C315615   7.015   2.892   5.861 -0.0950  0.3133 -0.0262
 1092POPI   PO415616   7.161   2.899   6.414 -0.0893 -0.0541  0.0587
 1092POPI   GL115617   7.354   2.830   6.784 -0.2195 -0.3754  0.1638
 1092POPI   GL215618   7.735   2.999   6.768  0.3672 -0.5468 -0.4903
 1092POPI   C1A15619   7.222   2.930   7.109 -0.0616 -0.1980 -0.1731
 1092POPI   D2A15620   7.310   3.099   7.536 -0.1535 -0.0028 -0.3919
 1092POPI   C3A15621   7.295   3.040   7.914  0.0469 -0.1534  0.1407
 1092POPI   C4A15622   7.438   3.096   8.336 -0.0134  0.1585 -0.1150
 1092POPI   C1B15623   7.664   3.142   7.204 -0.0648 -0.0328 -0.1488
 1092POPI   C2B15624   7.772   3.184   7.704  0.2268 -0.2079 -0.1144
 1092POPI   C3B15625   7.877   3.155   8.096  0.2019  0.0221  0.2628
 1092POPI   C4B15626   7.917   3.100   8.571 -0.0760 -0.2019  0.1777
 1093POPI    C115627  15.549   4.664   6.051  0.0673 -0.2773 -0.0873
 1093POPI    C215628  15.461   5.008   6.235 -0.2002 -0.1814 -0.3860
 1093POPI    C315629  15.843   4.899   6.186 -0.1201 -0.0816 -0.0141
 1093POPI   PO415630  15.365   4.501   6.194  0.0858  0.2335 -0.0807
 1093POPI   GL115631  15.398   4.589   6.544 -0.2993  0.0712  0.0323
 1093POPI   GL215632  15.191   4.862   6.676  0.1624  0.0078 -0.1708
 1093POPI   C1A15633  15.595   4.502   6.902 -0.2048  0.1671  0.0107
 1093POPI   D2A15634  15.716   4.518   7.341  0.1269  0.0771  0.0336
 1093POPI   C3A15635  15.707   4.491   7.768  0.2002 -0.1522 -0.0387
 1093POPI   C4A15636  15.700   4.372   8.128  0.0961 -0.0241  0.2432
 1093POPI   C1B15637  15.240   4.846   7.124  0.0181  0.1140  0.2369
 1093POPI   C2B15638  15.312   4.900   7.554  0.4630  0.0045 -0.0305
 1093POPI   C3B15639  15.187   4.944   7.980 -0.0859  0.1693  0.1600
 1093POPI   C4B15640  15.309   4.760   8.399 -0.0538 -0.0796 -0.0291
 1094POPI    C115641  11.127   2.969   5.933 -0.1095  0.0667  0.0693
 1094POPI    C215642  11.048   3.006   5.542 -0.0171 -0.0153  0.0425
 1094POPI    C315643  11.196   3.316   5.747  0.0798 -0.0186 -0.0219
 1094POPI   PO415644  10.865   2.809   6.000  0.0630 -0.3901  0.1040
 1094POPI   GL115645  10.714   2.540   6.320  0.1516 -0.2420 -0.2085
 1094POPI   GL215646  11.030   2.443   6.337  0.1189  0.1907 -0.0780
 1094POPI   C1A15647  10.415   2.588   6.657 -0.2286  0.2040 -0.2589
 1094POPI   D2A15648  10.310   2.538   7.024 -0.3934  0.0291  0.2253
 1094POPI   C3A15649  10.353   2.449   7.460 -0.2332  0.0631 -0.2065
 1094POPI   C4A15650  10.434   2.511   7.854 -0.1623 -0.0137  0.0038
 1094POPI   C1B15651  10.852   2.153   6.544  0.1593  0.3230 -0.0079
 1094POPI   C2B15652  10.757   2.106   6.892  0.2133 -0.1100 -0.3197
 1094POPI   C3B15653  10.620   2.051   7.293 -0.1451  0.0109 -0.1335
 1094POPI   C4B15654  10.837   2.120   7.561  0.1196  0.0394  0.3582
 1095POPI    C115655   9.361   3.135   5.647 -0.0381 -0.0791 -0.0237
 1095POPI    C215656   9.051   3.181   5.398 -0.0522 -0.0118  0.0060
 1095POPI    C315657   9.419   3.284   5.280 -0.0846  0.1902  0.0753
 1095POPI   PO415658   9.358   3.252   5.925 -0.1146 -0.1351 -0.0299
 1095POPI   GL115659   9.309   3.392   6.244  0.0135 -0.0988 -0.2268
 1095POPI   GL215660   9.643   3.384   6.342 -0.6052 -0.1719  0.4129
 1095POPI   C1A15661   9.168   3.150   6.597  0.2737  0.0314 -0.0088
 1095POPI   D2A15662   9.117   3.132   6.984  0.0962 -0.2360 -0.0761
 1095POPI   C3A15663   9.132   3.083   7.507  0.0479 -0.3686 -0.0555
 1095POPI   C4A15664   9.180   3.091   7.895  0.4082 -0.0495 -0.3617
 1095POPI   C1B15665   9.650   3.269   6.808  0.2104  0.0169  0.2268
 1095POPI   C2B15666   9.617   3.263   7.291  0.3196 -0.0307  0.2074
 1095POPI   C3B15667   9.637   3.213   7.720 -0.1072 -0.1889  0.0766
 1095POPI   C4B15668   9.607   3.161   8.141  0.0296 -0.2640  0.1377
 1096POPI    C115669   3.598   1.704   6.504 -0.0541  0.0990  0.1104
 1096POPI    C215670   3.808   1.976   6.300 -0.0016  0.0149  0.0516
 1096POPI    C315671   3.411   2.013   6.332  0.0245  0.1920  0.1905
 1096POPI   PO415672   3.667   1.671   6.826  0.1833 -0.0881 -0.0308
 1096POPI   GL115673   3.597   1.815   7.124 -0.0071  0.1167 -0.1132
 1096POPI   GL215674   3.616   2.031   7.399 -0.0374 -0.0042  0.2708
 1096POPI   C1A15675   3.172   1.845   7.439 -0.0106 -0.0213 -0.1045
 1096POPI   D2A15676   3.127   1.890   7.893  0.2066 -0.3251  0.2194
 1096POPI   C3A15677   3.295   1.524   8.159 -0.1713 -0.0391 -0.2398
 1096POPI   C4A15678   3.412   1.445   8.510 -0.2185 -0.0922 -0.0730
 1096POPI   C1B15679   3.587   2.031   7.831 -0.2111  0.0639  0.4085
 1096POPI   C2B15680   3.538   1.953   8.204 -0.1873  0.1250  0.1018
 1096POPI   C3B15681   3.629   1.897   8.603  0.0498 -0.0861 -0.0953
 1096POPI   C4B15682   3.633   2.032   8.960  0.1365 -0.3824  0.0185
 1097DPPI    C115683  16.237  15.627   6.672  0.0467 -0.2156 -0.1924
 1097DPPI    C215684  15.989  15.692   6.365 -0.0798  0.1878 -0.0115
 1097DPPI    C315685  16.367  15.579   6.297 -0.0400  0.4924 -0.3271
 1097DPPI   PO415686  16.198  15.749   6.964 -0.0832 -0.0224 -0.0705
 1097DPPI   GL115687  16.432  15.949   7.305  0.0347  0.0194  0.2197
 1097DPPI   GL215688  16.262  15.683   7.437 -0.1362 -0.0822 -0.1972
 1097DPPI   C1A15689  16.800  15.760   7.521 -0.1442  0.3947 -0.2585
 1097DPPI   C2A15690  16.903  15.740   7.893 -0.0946  0.2409 -0.3018
 1097DPPI   C3A15691  16.961  15.715   8.287 -0.1391  0.0009  0.1030
 1097DPPI   C4A15692  16.921  15.821   8.754  0.0427 -0.3400 -0.4445
 1097DPPI   C1B15693  16.343  15.774   7.906 -0.4425  0.1958  0.0011
 1097DPPI   C2B15694  16.158  15.760   8.356 -0.1151  0.0490  0.0666
 1097DPPI   C3B15695  15.991  15.877   8.746 -0.1619  0.5228  0.1085
 1097DPPI   C4B15696  15.828  15.948   9.147 -0.0143 -0.0432  0.0874
 1098DPPI    C115697  10.106   1.859   5.601  0.0934 -0.1390 -0.1538
 1098DPPI    C215698   9.873   2.133   5.424 -0.1135 -0.2036  0.0149
 1098DPPI    C315699   9.794   1.743   5.379 -0.0572 -0.2251  0.0990
 1098DPPI   PO415700  10.167   1.951   5.804  0.0182  0.3113 -0.0173
 1098DPPI   GL115701  10.091   2.109   6.271  0.0963 -0.1886  0.1548
 1098DPPI   GL215702   9.777   1.994   6.312 -0.1531  0.3063 -0.0554
 1098DPPI   C1A15703  10.365   2.101   6.556 -0.0318 -0.0544  0.1007
 1098DPPI   C2A15704  10.264   2.032   6.871 -0.0849 -0.0150  0.0853
 1098DPPI   C3A15705  10.143   1.997   7.269  0.1779 -0.0320 -0.3730
 1098DPPI   C4A15706  10.296   1.898   7.611  0.2983  0.0587 -0.1682
 1098DPPI   C1B15707   9.739   1.917   6.707 -0.0841 -0.2993 -0.0368
 1098DPPI   C2B15708   9.666   1.911   7.122  0.1550  0.0134 -0.1071
 1098DPPI   C3B15709   9.712   1.871   7.513 -0.1189  0.0158  0.0281
 1098DPPI   C4B15710   9.842   1.747   7.895  0.1565 -0.1535 -0.1076
 1099DPPI    C115711   8.399   3.333   5.713 -0.0601  0.1492  0.0900
 1099DPPI    C215712   8.275   3.628   5.474 -0.2288  0.0559  0.0611
 1099DPPI    C315713   8.050   3.301   5.521  0.0494 -0.1576 -0.0640
 1099DPPI   PO415714   8.442   3.410   6.044  0.2742  0.1289  0.2672
 1099DPPI   GL115715   8.619   3.331   6.398 -0.0164  0.1575  0.3145
 1099DPPI   GL215716   8.865   3.105   6.256  0.3148  0.1052  0.1450
 1099DPPI   C1A15717   8.735   3.428   6.763  0.0867  0.1928 -0.3334
 1099DPPI   C2A15718   8.760   3.378   7.262 -0.1214  0.0356 -0.3287
 1099DPPI   C3A15719   8.794   3.410   7.739  0.1503 -0.1181 -0.2548
 1099DPPI   C4A15720   8.859   3.510   8.125  0.1352  0.1587  0.2159
 1099DPPI   C1B15721   8.706   2.959   6.765  0.1839  0.0524 -0.1496
 1099DPPI   C2B15722   8.607   2.924   7.249 -0.0994  0.0235 -0.1065
 1099DPPI   C3B15723   8.719   2.905   7.626  0.0507 -0.2319 -0.0992
 1099DPPI   C4B15724   8.625   2.989   8.031  0.2495 -0.0568  0.1360
 1100DPPI    C115725  16.996  17.134   6.594  0.0378  0.1015 -0.1353
 1100DPPI    C215726  16.971  17.374   6.275  0.4625  0.1009 -0.1738
 1100DPPI    C315727  17.312  17.353   6.483  0.2991 -0.1622  0.0740
 1100DPPI   PO415728  16.737  17.101   6.656 -0.5835 -0.0520  0.0132
 1100DPPI   GL115729  16.398  17.210   6.981 -0.1097  0.1042  0.4316
 1100DPPI   GL215730  16.448  17.463   6.956  0.1741 -0.1500  0.0740
 1100DPPI   C1A15731  16.485  17.291   7.440 -0.3240  0.2115 -0.1362
 1100DPPI   C2A15732  16.329  17.254   7.846 -0.1785 -0.1240  0.2017
 1100DPPI   C3A15733  16.403  17.225   8.231  0.2346  0.0253  0.0649
 1100DPPI   C4A15734  16.462  17.267   8.728 -0.2193 -0.0078 -0.0095
 1100DPPI   C1B15735  16.099  17.589   7.213 -0.1774 -0.1414 -0.1148
 1100DPPI   C2B15736  16.061  17.623   7.641 -0.2597  0.1654 -0.1114
 1100DPPI   C3B15737  16.022  17.550   8.170  0.1885  0.0598  0.3584
 1100DPPI   C4B15738  16.000  17.419   8.526 -0.1025  0.3206  0.1505
 1101DPPI    C115739  16.502   5.427   6.030 -0.0824  0.0280 -0.1058
 1101DPPI    C215740  16.517   5.041   5.926  0.0462  0.0635 -0.2225
 1101DPPI    C315741  16.166   5.232   5.937 -0.0262 -0.0746 -0.0952
 1101DPPI   PO415742  16.584   5.537   6.316  0.1533  0.3481  0.0051
 1101DPPI   GL115743  16.587   5.452   6.707 -0.2989 -0.3053 -0.1233
 1101DPPI   GL215744  16.449   5.713   6.797  0.1267  0.1021 -0.0076
 1101DPPI   C1A15745  16.340   5.252   7.038 -0.2591 -0.2424  0.2089
 1101DPPI   C2A15746  16.380   5.071   7.438 -0.2288 -0.2022  0.0087
 1101DPPI   C3A15747  16.328   5.163   7.877 -0.2920  0.0373  0.2135
 1101DPPI   C4A15748  16.433   5.089   8.266 -0.3263  0.1105  0.2842
 1101DPPI   C1B15749  16.529   5.676   7.264  0.0372 -0.3233 -0.5686
 1101DPPI   C2B15750  16.594   5.622   7.692  0.0441 -0.0487 -0.0120
 1101DPPI   C3B15751  16.591   5.586   8.138  0.0603  0.0634  0.1012
 1101DPPI   C4B15752  16.616   5.456   8.619  0.0820  0.2047  0.2406
 1102DPPI    C115753   0.027   2.466   6.188  0.3544 -0.1140  0.0137
 1102DPPI    C215754   0.239   2.716   6.417 -0.0290  0.1394  0.1023
 1102DPPI    C315755   0.110   2.835   6.057 -0.0363 -0.0056  0.0564
 1102DPPI   PO415756  -0.140   2.411   6.346 -0.1823 -0.0201  0.1246
 1102DPPI   GL115757   0.061   2.447   6.807  0.0473 -0.1911 -0.1476
 1102DPPI   GL215758  -0.076   2.653   6.853  0.2770  0.3421  0.1998
 1102DPPI   C1A15759   0.014   2.358   7.328  0.0001  0.0838 -0.0542
 1102DPPI   C2A15760  -0.098   2.437   7.781 -0.0838 -0.0969  0.1083
 1102DPPI   C3A15761  -0.027   2.407   8.194  0.0619  0.1768  0.1671
 1102DPPI   C4A15762  -0.115   2.349   8.619  0.0866 -0.1727 -0.1448
 1102DPPI   C1B15763  -0.253   2.739   7.127 -0.1677 -0.2841 -0.0611
 1102DPPI   C2B15764  -0.425   2.849   7.535  0.0032 -0.0122  0.1176
 1102DPPI   C3B15765  -0.506   2.835   7.926 -0.0018 -0.0805 -0.0601
 1102DPPI   C4B15766  -0.467   2.679   8.312 -0.0092 -0.2735  0.2275
 1103DPPI    C115767  12.447   2.733   5.862 -0.1522 -0.0664  0.0152
 1103DPPI    C215768  12.299   3.040   5.653  0.0099  0.0468  0.0645
 1103DPPI    C315769  12.079   2.710   5.706 -0.1197  0.1068 -0.0896
 1103DPPI   PO415770  12.502   2.809   6.057  0.1326  0.2784 -0.2352
 1103DPPI   GL115771  12.321   2.903   6.505  0.0393  0.3495  0.0912
 1103DPPI   GL215772  12.448   2.576   6.481  0.0532  0.1771  0.0318
 1103DPPI   C1A15773  12.535   2.958   6.978 -0.1005  0.3229  0.2273
 1103DPPI   C2A15774  12.506   2.960   7.416 -0.1362  0.1159  0.3643
 1103DPPI   C3A15775  12.453   2.998   7.827 -0.3868 -0.2986  0.1014
 1103DPPI   C4A15776  12.429   2.962   8.258 -0.2057  0.2286 -0.0914
 1103DPPI   C1B15777  12.330   2.529   6.905 -0.1469  0.1977 -0.1873
 1103DPPI   C2B15778  12.347   2.487   7.355  0.0121 -0.0679 -0.1630
 1103DPPI   C3B15779  12.353   2.509   7.719  0.1688 -0.1260  0.1013
 1103DPPI   C4B15780  12.351   2.466   8.109 -0.1493 -0.2694  0.1960
 1104DPPI    C115781  13.435   7.584   6.012  0.0057 -0.1999  0.0864
 1104DPPI    C215782  13.724   7.334   5.894  0.0229 -0.0839 -0.1229
 1104DPPI    C315783  13.498   7.521   5.622 -0.0159  0.0983  0.0326
 1104DPPI   PO415784  13.533   7.730   6.173 -0.1420 -0.2184  0.1685
 1104DPPI   GL115785  13.481   8.003   6.505 -0.0077 -0.2502  0.1864
 1104DPPI   GL215786  13.691   7.760   6.651 -0.1369  0.3802  0.0590
 1104DPPI   C1A15787  13.290   8.156   6.893  0.1062 -0.2970 -0.0338
 1104DPPI   C2A15788  13.259   8.176   7.343 -0.1378 -0.0583  0.2074
 1104DPPI   C3A15789  13.345   8.142   7.769  0.2239  0.1397  0.0273
 1104DPPI   C4A15790  13.279   7.993   8.185  0.1954  0.0586  0.0076
 1104DPPI   C1B15791  13.701   7.858   7.035  0.0823  0.1357  0.1952
 1104DPPI   C2B15792  13.685   7.738   7.466  0.1672  0.3677 -0.0478
 1104DPPI   C3B15793  13.594   7.681   7.910  0.0040 -0.0140 -0.0675
 1104DPPI   C4B15794  13.621   7.665   8.413  0.6414 -0.0030 -0.1411
 1105DPPI    C115795   5.865  12.779   6.966 -0.1185  0.1228  0.1523
 1105DPPI    C215796   5.612  12.809   6.657  0.0634  0.0962 -0.0012
 1105DPPI    C315797   5.957  13.011   6.654  0.1499 -0.0469  0.1017
 1105DPPI   PO415798   5.752  12.845   7.179  0.3899 -0.1601 -0.3625
 1105DPPI   GL115799   5.366  12.597   7.446  0.1693 -0.0654  0.0512
 1105DPPI   GL215800   5.350  12.936   7.515  0.1500  0.0402 -0.0649
 1105DPPI   C1A15801   5.164  12.577   7.848 -0.1628  0.2478 -0.0267
 1105DPPI   C2A15802   5.319  12.435   8.228  0.0542  0.1778 -0.1718
 1105DPPI   C3A15803   5.215  12.513   8.575  0.2412  0.1406  0.2647
 1105DPPI   C4A15804   4.837  12.411   8.881  0.2248 -0.0435 -0.1504
 1105DPPI   C1B15805   5.532  12.888   7.928 -0.0751 -0.3113 -0.2116
 1105DPPI   C2B15806   5.501  12.886   8.358  0.0306 -0.2151 -0.0298
 1105DPPI   C3B15807   5.655  12.745   8.740 -0.0800 -0.0519  0.1503
 1105DPPI   C4B15808   5.983  12.771   9.193  0.1632  0.1174  0.2208
 1106DPPI    C115809  14.041   4.846   6.040 -0.2222  0.1848 -0.0339
 1106DPPI    C215810  14.187   4.747   5.681 -0.4275  0.0657 -0.0858
 1106DPPI    C315811  14.155   5.132   5.785 -0.0221  0.0930 -0.0492
 1106DPPI   PO415812  13.803   4.743   6.075  0.1230 -0.3019  0.1000
 1106DPPI   GL115813  13.515   4.819   6.431 -0.0893  0.0854 -0.1570
 1106DPPI   GL215814  13.839   5.000   6.506 -0.1303  0.2173 -0.0273
 1106DPPI   C1A15815  13.272   4.748   6.856  0.0625 -0.0818 -0.0960
 1106DPPI   C2A15816  13.318   4.809   7.298 -0.0339  0.0608 -0.3080
 1106DPPI   C3A15817  13.423   4.823   7.755 -0.2341  0.1656  0.2624
 1106DPPI   C4A15818  13.474   4.639   8.171  0.0485 -0.0099  0.2547
 1106DPPI   C1B15819  13.746   4.802   6.922  0.1022  0.0413  0.2669
 1106DPPI   C2B15820  13.819   4.934   7.386 -0.2484  0.2871 -0.0452
 1106DPPI   C3B15821  13.903   4.847   7.876 -0.2872 -0.2390 -0.0758
 1106DPPI   C4B15822  13.887   4.938   8.277  0.4436 -0.1095  0.2064
 1107DPPI    C115823  14.736  14.859   6.209  0.0686 -0.0208  0.0685
 1107DPPI    C215824  14.678  14.499   6.046  0.2556  0.0181 -0.0892
 1107DPPI    C315825  14.689  14.824   5.813  0.0350  0.1340  0.0579
 1107DPPI   PO415826  14.759  14.756   6.454  0.3321 -0.1438 -0.0393
 1107DPPI   GL115827  14.462  14.519   6.762 -0.0632 -0.1030  0.0943
 1107DPPI   GL215828  14.135  14.593   6.816 -0.0278  0.0327  0.1507
 1107DPPI   C1A15829  14.472  14.631   7.169  0.4321  0.0903 -0.0352
 1107DPPI   C2A15830  14.330  14.687   7.543 -0.0130 -0.0027  0.1837
 1107DPPI   C3A15831  14.359  14.577   7.987  0.1995 -0.3945  0.0549
 1107DPPI   C4A15832  14.423  14.763   8.364  0.1912  0.2169 -0.2958
 1107DPPI   C1B15833  13.972  14.494   7.198  0.0518 -0.2477 -0.1991
 1107DPPI   C2B15834  13.888  14.452   7.657 -0.2015  0.0530 -0.1196
 1107DPPI   C3B15835  13.840  14.463   8.138 -0.1034  0.0850  0.0191
 1107DPPI   C4B15836  13.805  14.418   8.527 -0.1896 -0.1732 -0.0211
 1108DPPI    C115837   1.897   1.711   6.330  0.2336  0.2290 -0.0667
 1108DPPI    C215838   2.142   1.400   6.386 -0.1022 -0.0743 -0.2390
 1108DPPI    C315839   2.218   1.665   6.096 -0.0316 -0.2228 -0.3578
 1108DPPI   PO415840   1.833   1.765   6.610 -0.1175 -0.2435  0.0298
 1108DPPI   GL115841   1.827   2.068   7.003 -0.0273  0.3178 -0.0359
 1108DPPI   GL215842   2.139   1.959   7.132  0.0342  0.0397  0.2821
 1108DPPI   C1A15843   1.875   2.439   7.302  0.1819 -0.0929 -0.0947
 1108DPPI   C2A15844   1.900   2.345   7.658  0.3013  0.2414  0.0676
 1108DPPI   C3A15845   1.782   2.348   8.087 -0.0188  0.3361  0.1726
 1108DPPI   C4A15846   1.824   2.302   8.452  0.1728 -0.0369 -0.0905
 1108DPPI   C1B15847   2.311   2.081   7.504 -0.1644  0.2706 -0.0635
 1108DPPI   C2B15848   2.303   2.073   7.947 -0.1223  0.0554  0.0430
 1108DPPI   C3B15849   2.272   2.052   8.331  0.0790  0.2268  0.0301
 1108DPPI   C4B15850   2.556   2.145   8.645  0.1381  0.0432  0.0523
 1109DPPI    C115851  10.846   7.895   5.977  0.1191 -0.1298  0.3969
 1109DPPI    C215852  10.586   7.598   5.907  0.0491  0.0262 -0.0391
 1109DPPI    C315853  10.454   7.955   6.029  0.0871  0.0222  0.0147
 1109DPPI   PO415854  10.960   7.791   6.214 -0.1336 -0.2135 -0.2547
 1109DPPI   GL115855  11.016   7.966   6.654 -0.2022  0.2965  0.0341
 1109DPPI   GL215856  10.921   7.685   6.765  0.2360 -0.2458 -0.1406
 1109DPPI   C1A15857  10.964   7.922   7.208  0.1064  0.2109  0.0495
 1109DPPI   C2A15858  10.888   7.845   7.708 -0.2734  0.1844 -0.1026
 1109DPPI   C3A15859  10.889   7.879   8.112 -0.1821  0.1281 -0.1784
 1109DPPI   C4A15860  10.843   7.895   8.524  0.0487  0.2296 -0.0487
 1109DPPI   C1B15861  10.768   7.477   7.258  0.0604 -0.1920  0.5838
 1109DPPI   C2B15862  10.814   7.259   7.651 -0.2511  0.0740  0.0606
 1109DPPI   C3B15863  10.753   7.347   8.113  0.4005  0.0030 -0.0538
 1109DPPI   C4B15864  10.687   7.313   8.570  0.1448  0.1313 -0.3341
 1110DPPI    C115865   7.581  15.585   6.169  0.0038 -0.1895 -0.0889
 1110DPPI    C215866   7.400  15.936   6.108 -0.1861 -0.2309  0.2178
 1110DPPI    C315867   7.627  15.776   5.821 -0.1368  0.1180  0.0574
 1110DPPI   PO415868   7.682  15.624   6.387 -0.0168  0.4177  0.2582
 1110DPPI   GL115869   7.960  15.579   6.642 -0.2344  0.1361 -0.2226
 1110DPPI   GL215870   8.059  15.844   6.649 -0.4649 -0.2557  0.4157
 1110DPPI   C1A15871   7.996  15.547   7.084  0.0547 -0.0850  0.1587
 1110DPPI   C2A15872   8.098  15.594   7.545  0.4860  0.1976 -0.2611
 1110DPPI   C3A15873   8.109  15.614   7.984  0.2158  0.1378 -0.0318
 1110DPPI   C4A15874   8.256  15.447   8.361  0.2680 -0.0710  0.0349
 1110DPPI   C1B15875   8.178  16.099   7.091  0.3648 -0.0191  0.0110
 1110DPPI   C2B15876   8.251  16.120   7.449 -0.0676 -0.0380 -0.2837
 1110DPPI   C3B15877   8.247  16.169   7.929 -0.3690  0.0481  0.1542
 1110DPPI   C4B15878   8.368  15.999   8.422  0.0933 -0.5032 -0.0689
 1111DPPI    C115879  10.062   9.199   6.102  0.0829 -0.0142  0.2323
 1111DPPI    C215880   9.958   9.209   5.716 -0.2181 -0.3674  0.2986
 1111DPPI    C315881   9.710   9.355   5.994  0.0381 -0.0282  0.3566
 1111DPPI   PO415882  10.339   9.334   6.182 -0.0833 -0.0369  0.1158
 1111DPPI   GL115883  10.484   9.217   6.520 -0.0474  0.0788 -0.0405
 1111DPPI   GL215884  10.153   9.180   6.662  0.0201  0.2185  0.1521
 1111DPPI   C1A15885  10.685   9.461   6.852 -0.0169  0.0132  0.0545
 1111DPPI   C2A15886  10.738   9.326   7.332  0.0039  0.0633  0.1765
 1111DPPI   C3A15887  10.781   9.196   7.750  0.2787  0.2663  0.4053
 1111DPPI   C4A15888  10.737   9.230   8.213 -0.2459 -0.0409  0.2270
 1111DPPI   C1B15889  10.203   9.276   7.110  0.2026 -0.2024 -0.4247
 1111DPPI   C2B15890  10.163   9.185   7.590  0.1564  0.1147 -0.2414
 1111DPPI   C3B15891  10.271   9.129   7.998 -0.3233 -0.0782  0.1012
 1111DPPI   C4B15892  10.296   9.191   8.537  0.1095 -0.3435  0.1576
 1112DPPI    C115893  10.583   4.064   5.823 -0.1637 -0.0687 -0.0848
 1112DPPI    C215894  10.777   4.061   5.473 -0.2043 -0.0966 -0.1071
 1112DPPI    C315895  10.496   4.337   5.544 -0.0309  0.0559 -0.0059
 1112DPPI   PO415896  10.737   3.770   5.990  0.0758 -0.0047 -0.1891
 1112DPPI   GL115897  11.101   3.744   6.344  0.0627 -0.2872  0.1005
 1112DPPI   GL215898  11.057   3.438   6.233  0.1943 -0.0197 -0.0946
 1112DPPI   C1A15899  11.229   3.841   6.821  0.1976 -0.3987  0.0876
 1112DPPI   C2A15900  11.262   3.683   7.217 -0.1855 -0.1188  0.0776
 1112DPPI   C3A15901  11.294   3.626   7.700  0.0105  0.1957  0.1651
 1112DPPI   C4A15902  11.313   3.604   8.181  0.2292  0.1085  0.0978
 1112DPPI   C1B15903  11.023   3.337   6.660  0.2371 -0.0478  0.0253
 1112DPPI   C2B15904  11.122   3.231   7.001  0.3758  0.1720  0.0638
 1112DPPI   C3B15905  11.115   3.058   7.440  0.0567 -0.0533  0.1232
 1112DPPI   C4B15906  11.165   3.134   7.928 -0.1498 -0.0087  0.0021
 1113DPPI    C115907   5.415  11.672   6.719  0.0328 -0.1243 -0.1038
 1113DPPI    C215908   5.239  11.888   6.433 -0.3435 -0.0304  0.1897
 1113DPPI    C315909   5.133  11.506   6.489  0.2793 -0.2920 -0.2901
 1113DPPI   PO415910   5.513  11.942   6.874 -0.0359  0.0378 -0.1328
 1113DPPI   GL115911   5.803  11.874   7.205  0.0269  0.0930  0.2132
 1113DPPI   GL215912   6.001  11.653   7.317 -0.0057 -0.2403 -0.0943
 1113DPPI   C1A15913   5.719  11.872   7.681  0.0838 -0.0080 -0.0229
 1113DPPI   C2A15914   5.883  11.854   8.086 -0.2234  0.0250 -0.0896
 1113DPPI   C3A15915   5.970  11.970   8.517  0.2016  0.1801 -0.3265
 1113DPPI   C4A15916   6.281  11.994   8.789  0.0754 -0.1279  0.1307
 1113DPPI   C1B15917   6.096  11.571   7.757  0.1983 -0.2792  0.0195
 1113DPPI   C2B15918   6.054  11.334   8.107 -0.1035  0.1131 -0.1042
 1113DPPI   C3B15919   6.070  11.097   8.496 -0.0707  0.0506  0.1993
 1113DPPI   C4B15920   6.196  11.026   8.930 -0.0705  0.1107 -0.0687
 1114DPPI    C115921   9.505  11.362   5.975 -0.0339 -0.1547 -0.0358
 1114DPPI    C215922   9.641  10.986   5.974 -0.2757 -0.2439 -0.0002
 1114DPPI    C315923   9.628  11.195   5.633 -0.0723 -0.2406 -0.0076
 1114DPPI   PO415924   9.608  11.373   6.276  0.0863  0.1149 -0.3168
 1114DPPI   GL115925   9.611  11.610   6.667 -0.2738 -0.2037 -0.0646
 1114DPPI   GL215926   9.846  11.838   6.691 -0.3656  0.2411 -0.1446
 1114DPPI   C1A15927   9.737  11.436   7.100  0.2492 -0.0372  0.0244
 1114DPPI   C2A15928   9.751  11.418   7.577  0.0566  0.1860 -0.2788
 1114DPPI   C3A15929   9.819  11.355   7.974  0.3876 -0.0869 -0.4209
 1114DPPI   C4A15930   9.985  11.349   8.387  0.1049 -0.3590 -0.0438
 1114DPPI   C1B15931   9.774  11.962   7.142  0.1645  0.2233 -0.2247
 1114DPPI   C2B15932   9.955  11.930   7.571 -0.0131  0.0678 -0.0926
 1114DPPI   C3B15933  10.039  11.892   7.996  0.1252 -0.3932  0.2242
 1114DPPI   C4B15934   9.994  11.863   8.455  0.1221 -0.4087 -0.2285
 1115DPPI    C115935   0.882   3.620   6.216  0.0726 -0.1306  0.0711
 1115DPPI    C215936   1.004   3.995   6.148  0.0344 -0.0700  0.3275
 1115DPPI    C315937   0.875   3.769   5.844  0.1055  0.1066  0.1638
 1115DPPI   PO415938   0.965   3.489   6.450 -0.1991  0.0642 -0.3946
 1115DPPI   GL115939   0.859   3.337   6.779  0.2032 -0.2022  0.2876
 1115DPPI   GL215940   0.703   3.583   6.886 -0.0048  0.0726 -0.1888
 1115DPPI   C1A15941   0.741   3.147   7.200 -0.0934 -0.0571  0.0078
 1115DPPI   C2A15942   0.670   3.145   7.662  0.1986 -0.0225 -0.2481
 1115DPPI   C3A15943   0.532   3.060   7.998  0.1545  0.0236  0.1876
 1115DPPI   C4A15944   0.502   2.903   8.401  0.1797 -0.1419 -0.2644
 1115DPPI   C1B15945   0.655   3.597   7.368  0.0421 -0.1719 -0.0967
 1115DPPI   C2B15946   0.666   3.543   7.892  0.0613  0.0096  0.3058
 1115DPPI   C3B15947   0.656   3.574   8.206 -0.1092  0.0160  0.0641
 1115DPPI   C4B15948   0.525   3.644   8.705  0.1559 -0.0542  0.0798
 1116DPPI    C115949  14.852   2.710   6.154 -0.1489  0.1854  0.2766
 1116DPPI    C215950  14.715   2.459   5.873 -0.0171  0.0970  0.2906
 1116DPPI    C315951  14.767   2.847   5.788  0.1964  0.0366  0.1361
 1116DPPI   PO415952  15.017   2.627   6.290  0.0774 -0.1195 -0.2207
 1116DPPI   GL115953  14.893   2.488   6.714 -0.1957 -0.0822  0.1074
 1116DPPI   GL215954  14.540   2.399   6.818  0.2756 -0.2957 -0.0831
 1116DPPI   C1A15955  15.162   2.450   7.085 -0.0293  0.0847 -0.1925
 1116DPPI   C2A15956  15.092   2.438   7.512 -0.0450 -0.0863  0.3838
 1116DPPI   C3A15957  15.162   2.468   7.960 -0.0855  0.2914  0.1704
 1116DPPI   C4A15958  15.060   2.431   8.326 -0.2076  0.1689 -0.1269
 1116DPPI   C1B15959  14.676   2.259   7.196  0.0890 -0.1753  0.0301
 1116DPPI   C2B15960  14.511   2.223   7.576  0.0267 -0.0388 -0.1754
 1116DPPI   C3B15961  14.583   2.229   8.071 -0.2408  0.0666 -0.1695
 1116DPPI   C4B15962  14.534   2.132   8.437  0.0313  0.2055  0.1190
 1117DPPI    C115963  15.074   0.268   6.551 -0.2038  0.2199 -0.1030
 1117DPPI    C215964  15.318   0.150   6.257 -0.1284  0.0588  0.0221
 1117DPPI    C315965  15.467   0.337   6.577 -0.2096  0.2297 -0.0385
 1117DPPI   PO415966  14.841   0.378   6.418 -0.0490 -0.0832  0.1787
 1117DPPI   GL115967  14.600   0.561   6.798 -0.1994  0.2186  0.0649
 1117DPPI   GL215968  14.440   0.840   6.733 -0.0009  0.5072 -0.2325
 1117DPPI   C1A15969  14.579   0.367   7.156 -0.1889  0.2167  0.0266
 1117DPPI   C2A15970  14.586   0.314   7.586  0.1874  0.0510 -0.3417
 1117DPPI   C3A15971  14.629   0.428   8.019  0.2651  0.0181  0.0042
 1117DPPI   C4A15972  14.636   0.536   8.541 -0.0140  0.0887 -0.2426
 1117DPPI   C1B15973  14.172   0.689   7.128 -0.1265 -0.0825 -0.2087
 1117DPPI   C2B15974  14.297   0.745   7.552 -0.2334 -0.0408 -0.0462
 1117DPPI   C3B15975  14.226   0.770   7.958 -0.1963 -0.1177  0.0881
 1117DPPI   C4B15976  14.225   0.664   8.367 -0.4938 -0.3733 -0.1772
 1118DPPI    C115977   4.117   8.362   6.284 -0.0483 -0.0064 -0.1378
 1118DPPI    C215978   4.469   8.196   6.191 -0.0865 -0.0713 -0.1679
 1118DPPI    C315979   4.182   8.226   5.914 -0.1526 -0.1418 -0.1075
 1118DPPI   PO415980   4.044   8.353   6.548  0.3126 -0.0788  0.0741
 1118DPPI   GL115981   4.218   8.490   6.993  0.0192  0.1139  0.0428
 1118DPPI   GL215982   4.000   8.250   7.066  0.0471  0.0914  0.0552
 1118DPPI   C1A15983   4.329   8.478   7.435 -0.2712  0.1309  0.0398
 1118DPPI   C2A15984   4.326   8.469   7.922 -0.0913 -0.0765  0.1547
 1118DPPI   C3A15985   4.394   8.386   8.368 -0.0607  0.0190 -0.1106
 1118DPPI   C4A15986   4.531   8.463   8.747 -0.1793 -0.1439  0.0809
 1118DPPI   C1B15987   4.088   8.047   7.447 -0.1155  0.1733 -0.0740
 1118DPPI   C2B15988   4.088   7.911   7.795  0.0078  0.0407 -0.0269
 1118DPPI   C3B15989   4.202   7.818   8.229  0.0393  0.1081 -0.0919
 1118DPPI   C4B15990   4.099   7.560   8.596 -0.0169 -0.0237 -0.1261
 1119DPPI    C115991  12.430  12.730   6.286 -0.0285  0.5409 -0.0698
 1119DPPI    C215992  12.590  12.542   5.971  0.0945  0.1959  0.1911
 1119DPPI    C315993  12.340  12.850   5.916  0.0503  0.0883 -0.2421
 1119DPPI   PO415994  12.224  12.524   6.467  0.1178  0.1983  0.2259
 1119DPPI   GL115995  12.211  12.502   6.840 -0.2535 -0.2291  0.1156
 1119DPPI   GL215996  11.934  12.306   6.900  0.0193 -0.0252 -0.1409
 1119DPPI   C1A15997  12.225  12.633   7.273  0.0906  0.1839 -0.0843
 1119DPPI   C2A15998  12.073  12.581   7.618  0.1742  0.1582  0.2561
 1119DPPI   C3A15999  12.026  12.494   8.021  0.0595  0.2995  0.2786
 1119DPPI   C4A16000  11.931  12.543   8.451  0.2688 -0.2315  0.1256
 1119DPPI   C1B16001  11.996  12.067   7.227 -0.1821  0.0857 -0.1581
 1119DPPI   C2B16002  11.891  12.051   7.664 -0.0199  0.2946 -0.0359
 1119DPPI   C3B16003  11.875  11.932   7.993 -0.0288 -0.2066 -0.1265
 1119DPPI   C4B16004  11.786  12.107   8.403  0.0589  0.2402 -0.2854
 1120DPPI    C116005   0.513  15.199   6.776 -0.0231  0.0373  0.0952
 1120DPPI    C216006   0.633  15.340   6.422  0.2778  0.1432  0.2356
 1120DPPI    C316007   0.473  14.974   6.448  0.1997  0.1572 -0.0162
 1120DPPI   PO416008   0.353  15.283   6.885  0.0794 -0.1642  0.0833
 1120DPPI   GL116009   0.509  15.525   7.186 -0.2057 -0.3262 -0.0304
 1120DPPI   GL216010   0.680  15.351   7.250 -0.2265 -0.0644  0.0860
 1120DPPI   C1A16011   0.305  15.574   7.514 -0.3347 -0.0797 -0.0210
 1120DPPI   C2A16012   0.218  15.621   7.895 -0.0705  0.2553 -0.4317
 1120DPPI   C3A16013   0.264  15.678   8.331  0.2008 -0.0583  0.0376
 1120DPPI   C4A16014   0.203  15.631   8.733  0.0741  0.1091  0.1318
 1120DPPI   C1B16015   0.779  15.585   7.632  0.1066  0.2127 -0.1774
 1120DPPI   C2B16016   0.679  15.636   8.057  0.0115 -0.0112 -0.3190
 1120DPPI   C3B16017   0.763  15.834   8.451 -0.1160  0.0160 -0.1775
 1120DPPI   C4B16018   0.575  15.977   8.769  0.0273  0.1637 -0.1538
 1121DPPI    C116019   3.356  12.639   6.867 -0.1371 -0.1785  0.1250
 1121DPPI    C216020   3.492  12.801   6.527 -0.1472 -0.0566  0.1785
 1121DPPI    C316021   3.211  12.517   6.515 -0.0056 -0.1946  0.0754
 1121DPPI   PO416022   3.383  12.928   6.997  0.2341 -0.0204 -0.1542
 1121DPPI   GL116023   3.434  13.199   7.322 -0.0341 -0.1391  0.0825
 1121DPPI   GL216024   3.755  13.115   7.252  0.0750  0.2368  0.0476
 1121DPPI   C1A16025   3.136  13.024   7.759 -0.1215 -0.0415 -0.0904
 1121DPPI   C2A16026   3.222  13.029   8.218  0.0983  0.0285  0.1187
 1121DPPI   C3A16027   3.230  13.072   8.654  0.0545 -0.0884  0.0467
 1121DPPI   C4A16028   3.371  13.252   9.015 -0.0779 -0.0213 -0.2949
 1121DPPI   C1B16029   3.812  13.080   7.684 -0.1857  0.0382  0.2401
 1121DPPI   C2B16030   3.653  12.909   8.018  0.0261 -0.2544 -0.2538
 1121DPPI   C3B16031   3.556  12.680   8.369 -0.0564  0.0722 -0.0452
 1121DPPI   C4B16032   3.579  12.786   8.822 -0.0856 -0.2530 -0.4969
 1122DPPI    C116033  11.988  14.507   5.995  0.2192  0.0684 -0.3614
 1122DPPI    C216034  12.151  14.146   5.940  0.1404 -0.0180 -0.0452
 1122DPPI    C316035  11.828  14.254   5.729 -0.0043 -0.2422  0.0571
 1122DPPI   PO416036  11.915  14.520   6.270 -0.0539  0.2739 -0.2890
 1122DPPI   GL116037  11.973  14.354   6.690  0.0849  0.0402  0.1786
 1122DPPI   GL216038  12.037  13.970   6.652  0.0289 -0.4121 -0.0646
 1122DPPI   C1A16039  12.130  14.299   7.024  0.3846 -0.0461  0.2128
 1122DPPI   C2A16040  11.982  14.244   7.470  0.2309  0.0235  0.0063
 1122DPPI   C3A16041  11.984  14.462   7.834  0.3568 -0.2468 -0.3318
 1122DPPI   C4A16042  12.148  14.314   8.182  0.1653  0.0632  0.2626
 1122DPPI   C1B16043  11.911  13.837   7.111  0.1225  0.1933 -0.1772
 1122DPPI   C2B16044  11.924  13.748   7.557 -0.3844  0.1042 -0.2133
 1122DPPI   C3B16045  11.850  13.904   7.965  0.1549 -0.0450  0.2574
 1122DPPI   C4B16046  11.922  13.815   8.371 -0.0875 -0.0995 -0.0254
 1123DPPI    C116047  13.388   6.677   6.034  0.2280  0.3208  0.1754
 1123DPPI    C216048  13.490   6.556   5.666  0.0669 -0.3122  0.3269
 1123DPPI    C316049  13.106   6.625   5.755  0.1207 -0.0188  0.3420
 1123DPPI   PO416050  13.568   6.568   6.155  0.1470  0.1733 -0.1768
 1123DPPI   GL116051  13.682   6.722   6.552  0.3196  0.0938  0.0692
 1123DPPI   GL216052  13.748   6.441   6.723 -0.0658  0.1205 -0.2226
 1123DPPI   C1A16053  13.528   6.875   6.909  0.0964  0.0541  0.0280
 1123DPPI   C2A16054  13.456   6.810   7.262  0.3830 -0.0974 -0.0655
 1123DPPI   C3A16055  13.377   6.725   7.659  0.3003 -0.0036  0.0782
 1123DPPI   C4A16056  13.348   6.642   8.028  0.0293 -0.0129 -0.0349
 1123DPPI   C1B16057  13.762   6.381   7.152  0.1442  0.3578  0.1953
 1123DPPI   C2B16058  13.749   6.410   7.607  0.0381 -0.3904  0.1063
 1123DPPI   C3B16059  13.764   6.292   8.026 -0.1849  0.3540  0.1163
 1123DPPI   C4B16060  13.750   5.916   8.357  0.0116 -0.1016  0.1750
 1124DPPI    C116061   8.401   7.245   5.813 -0.2492  0.2776  0.3091
 1124DPPI    C216062   8.337   7.504   5.515 -0.1846  0.0175  0.0651
 1124DPPI    C316063   8.046   7.255   5.630 -0.1220 -0.0709  0.0330
 1124DPPI   PO416064   8.569   7.420   5.944  0.0829 -0.0751 -0.0245
 1124DPPI   GL116065   8.475   7.564   6.323 -0.0196 -0.2251  0.0861
 1124DPPI   GL216066   8.703   7.652   6.466 -0.2176 -0.1937  0.0428
 1124DPPI   C1A16067   8.405   7.611   6.852  0.1504  0.1300 -0.3686
 1124DPPI   C2A16068   8.374   7.687   7.269 -0.0262  0.1835  0.0593
 1124DPPI   C3A16069   8.357   7.609   7.712 -0.2403 -0.1553 -0.4691
 1124DPPI   C4A16070   8.435   7.558   8.161 -0.0387 -0.1240 -0.1111
 1124DPPI   C1B16071   8.824   7.335   6.749  0.0445  0.2476 -0.3621
 1124DPPI   C2B16072   8.948   7.219   6.999  0.0227 -0.3560  0.0783
 1124DPPI   C3B16073   8.893   7.143   7.366 -0.0018 -0.2518  0.1896
 1124DPPI   C4B16074   8.877   7.271   7.721 -0.1862  0.1488  0.2564
 1125DPPI    C116075  15.142  10.082   6.007  0.1234  0.0594  0.2663
 1125DPPI    C216076  15.492  10.030   5.820 -0.1378 -0.0339 -0.2143
 1125DPPI    C316077  15.244   9.720   5.871 -0.1706  0.0393  0.0897
 1125DPPI   PO416078  15.166  10.103   6.329  0.0012  0.0055  0.0494
 1125DPPI   GL116079  14.890  10.353   6.697  0.0844  0.1721  0.1561
 1125DPPI   GL216080  14.896  10.624   6.826 -0.0363 -0.1830  0.2710
 1125DPPI   C1A16081  14.444  10.342   6.943  0.1681 -0.2632  0.1647
 1125DPPI   C2A16082  14.447  10.307   7.408 -0.2426 -0.0368  0.1765
 1125DPPI   C3A16083  14.337  10.234   7.852  0.0226  0.2910 -0.0699
 1125DPPI   C4A16084  14.150  10.188   8.283 -0.3553  0.1756  0.1036
 1125DPPI   C1B16085  14.931  10.452   7.239 -0.0456 -0.0722 -0.0139
 1125DPPI   C2B16086  14.819  10.398   7.751 -0.2602 -0.3905  0.1108
 1125DPPI   C3B16087  14.736  10.430   8.152 -0.1880 -0.1062 -0.2910
 1125DPPI   C4B16088  14.655  10.366   8.566  0.3758  0.2482 -0.0738
 1126DPPI    C116089   0.902  13.131   6.472 -0.1622  0.0197  0.1501
 1126DPPI    C216090   1.284  13.251   6.484 -0.1800  0.0708  0.2100
 1126DPPI    C316091   0.998  13.478   6.647 -0.2479  0.0775  0.0828
 1126DPPI   PO416092   1.024  12.784   6.650 -0.0699  0.0639  0.4166
 1126DPPI   GL116093   0.877  12.789   7.077  0.0178  0.1218 -0.1889
 1126DPPI   GL216094   0.774  13.072   6.929  0.0115  0.0067 -0.0039
 1126DPPI   C1A16095   0.806  12.650   7.482  0.1142  0.0670  0.2127
 1126DPPI   C2A16096   0.835  12.706   7.925 -0.2433 -0.1801  0.0565
 1126DPPI   C3A16097   0.738  12.691   8.327  0.1847 -0.0802 -0.2430
 1126DPPI   C4A16098   0.811  12.783   8.725  0.2073 -0.0618  0.2677
 1126DPPI   C1B16099   0.551  13.131   7.319 -0.1713  0.2291 -0.1666
 1126DPPI   C2B16100   0.569  13.116   7.710 -0.1170 -0.2475  0.0352
 1126DPPI   C3B16101   0.647  13.152   8.103 -0.1122 -0.0226  0.0667
 1126DPPI   C4B16102   0.570  13.213   8.508 -0.0872  0.1540 -0.1318
 1127DPPI    C116103   9.342   4.748   5.860 -0.1559  0.5711  0.0920
 1127DPPI    C216104   9.276   4.723   5.466 -0.3652  0.1751  0.1462
 1127DPPI    C316105   9.606   4.902   5.603 -0.0484 -0.1049 -0.2269
 1127DPPI   PO416106   9.111   4.609   5.958  0.3409  0.1384  0.2209
 1127DPPI   GL116107   9.068   4.664   6.401 -0.1546 -0.3533  0.1861
 1127DPPI   GL216108   9.367   4.643   6.384  0.1252 -0.1211 -0.0944
 1127DPPI   C1A16109   9.050   4.908   6.610 -0.0090 -0.0107 -0.0641
 1127DPPI   C2A16110   9.060   5.112   6.972  0.2767  0.1627 -0.2749
 1127DPPI   C3A16111   9.074   5.081   7.373 -0.1465 -0.3203 -0.0875
 1127DPPI   C4A16112   9.210   5.037   7.758 -0.0278  0.0724 -0.2072
 1127DPPI   C1B16113   9.417   4.681   6.782 -0.0340  0.0603  0.0112
 1127DPPI   C2B16114   9.397   4.698   7.251 -0.1441  0.0433  0.0760
 1127DPPI   C3B16115   9.571   4.564   7.611 -0.1214 -0.1498  0.0647
 1127DPPI   C4B16116   9.541   4.710   8.025  0.0692  0.0625  0.0781
 1128DPPI    C116117   6.932   1.237   6.258  0.1897 -0.1309  0.1008
 1128DPPI    C216118   7.044   1.191   5.877  0.2525 -0.1183  0.1176
 1128DPPI    C316119   6.947   0.871   6.097 -0.1166 -0.0980 -0.0087
 1128DPPI   PO416120   6.874   1.480   6.350 -0.0478  0.0755 -0.0735
 1128DPPI   GL116121   7.152   1.637   6.664  0.5579  0.2901 -0.1584
 1128DPPI   GL216122   7.411   1.557   6.751  0.4764  0.3182 -0.2255
 1128DPPI   C1A16123   6.917   1.454   6.977 -0.2728 -0.1838 -0.3872
 1128DPPI   C2A16124   6.934   1.510   7.439 -0.0352 -0.1950 -0.0797
 1128DPPI   C3A16125   7.002   1.564   7.809 -0.1340 -0.1610 -0.4436
 1128DPPI   C4A16126   6.860   1.488   8.279 -0.0432 -0.0111  0.1422
 1128DPPI   C1B16127   7.365   1.635   7.138  0.0780 -0.5245  0.0242
 1128DPPI   C2B16128   7.475   1.653   7.609 -0.1960  0.2005 -0.1341
 1128DPPI   C3B16129   7.438   1.718   8.035 -0.1588  0.1169  0.2370
 1128DPPI   C4B16130   7.339   1.631   8.475 -0.0640  0.2235 -0.3085
 1129DPPI    C116131   9.218   1.285   5.784  0.1194  0.2298  0.0509
 1129DPPI    C216132   8.942   1.436   5.537 -0.1199  0.1032  0.2374
 1129DPPI    C316133   9.330   1.487   5.457 -0.1876 -0.1684 -0.3134
 1129DPPI   PO416134   9.225   1.353   6.013 -0.1103 -0.1883  0.0513
 1129DPPI   GL116135   9.256   1.122   6.490  0.1067 -0.1412  0.3600
 1129DPPI   GL216136   9.020   1.280   6.426  0.0776 -0.4264 -0.0682
 1129DPPI   C1A16137   9.129   1.214   7.034  0.2504 -0.1299  0.2780
 1129DPPI   C2A16138   9.226   1.210   7.437  0.0361 -0.0423  0.1525
 1129DPPI   C3A16139   9.236   1.145   7.903 -0.2333  0.3008  0.0986
 1129DPPI   C4A16140   9.070   1.149   8.253 -0.1000  0.2589 -0.0067
 1129DPPI   C1B16141   8.676   1.148   6.798 -0.3016  0.0908 -0.1405
 1129DPPI   C2B16142   8.660   1.113   7.226  0.1060 -0.0335 -0.1776
 1129DPPI   C3B16143   8.751   1.061   7.591 -0.0405 -0.3848 -0.4686
 1129DPPI   C4B16144   8.629   1.052   8.024 -0.0650 -0.3290  0.2636
 1130DPPI    C116145  13.637   1.572   5.823  0.0175 -0.2078 -0.0456
 1130DPPI    C216146  13.993   1.755   5.816 -0.0941  0.0192  0.1123
 1130DPPI    C316147  13.875   1.537   5.502  0.2325 -0.1540  0.1056
 1130DPPI   PO416148  13.439   1.662   6.088 -0.1001  0.1644  0.0855
 1130DPPI   GL116149  13.471   1.742   6.621 -0.2054 -0.0302  0.0428
 1130DPPI   GL216150  13.782   1.883   6.645 -0.0089  0.2731 -0.1191
 1130DPPI   C1A16151  13.469   1.469   6.973 -0.0802 -0.3004 -0.1185
 1130DPPI   C2A16152  13.418   1.391   7.387  0.0513 -0.0443  0.3885
 1130DPPI   C3A16153  13.423   1.401   7.762  0.2253  0.1346  0.0837
 1130DPPI   C4A16154  13.470   1.514   8.062  0.1740 -0.0703  0.2165
 1130DPPI   C1B16155  13.699   1.956   7.039  0.0270  0.0903 -0.0837
 1130DPPI   C2B16156  13.542   1.858   7.290 -0.0122 -0.0826 -0.1541
 1130DPPI   C3B16157  13.648   1.840   7.664 -0.1454 -0.0556 -0.1280
 1130DPPI   C4B16158  13.637   1.950   8.125  0.0692  0.0640 -0.2114
 1131DPPI    C116159   8.025  15.173   6.111  0.1064 -0.0581  0.0285
 1131DPPI    C216160   8.163  15.540   6.190 -0.2503  0.0252  0.2874
 1131DPPI    C316161   8.031  15.450   5.823  0.0563  0.0813  0.1607
 1131DPPI   PO416162   7.873  15.133   6.342  0.2042 -0.2250 -0.0491
 1131DPPI   GL116163   7.800  15.111   6.775 -0.0258  0.1330 -0.2296
 1131DPPI   GL216164   7.596  15.305   6.857  0.3872 -0.0319  0.1084
 1131DPPI   C1A16165   7.882  15.065   7.215  0.3618 -0.0213  0.2339
 1131DPPI   C2A16166   7.956  15.065   7.588 -0.1550 -0.0205 -0.2007
 1131DPPI   C3A16167   8.029  15.066   8.045  0.2007 -0.3522 -0.0695
 1131DPPI   C4A16168   8.076  15.011   8.574 -0.0396  0.0402 -0.1916
 1131DPPI   C1B16169   7.556  15.412   7.269  0.0466  0.1710 -0.1077
 1131DPPI   C2B16170   7.654  15.438   7.797 -0.3142 -0.1355 -0.4351
 1131DPPI   C3B16171   7.744  15.410   8.247  0.3898  0.1399  0.0559
 1131DPPI   C4B16172   7.713  15.385   8.739 -0.3499  0.1174  0.0901
 1132DPPI    C116173  10.908  16.176   5.635  0.1473 -0.1164  0.0153
 1132DPPI    C216174  11.203  16.408   5.773  0.0332  0.0041  0.0587
 1132DPPI    C316175  11.091  16.434   5.390  0.0111  0.0309  0.0669
 1132DPPI   PO416176  10.817  16.145   5.880 -0.0528 -0.1801  0.0935
 1132DPPI   GL116177  10.721  16.081   6.342  0.0653  0.0149  0.0832
 1132DPPI   GL216178  11.111  16.269   6.310 -0.2747  0.2155 -0.0977
 1132DPPI   C1A16179  10.435  16.284   6.540  0.1821 -0.0249  0.1951
 1132DPPI   C2A16180  10.506  16.350   6.945  0.3213  0.0345  0.0542
 1132DPPI   C3A16181  10.473  16.360   7.433 -0.0701 -0.0621  0.1684
 1132DPPI   C4A16182  10.596  16.474   7.866 -0.1336 -0.1221  0.0188
 1132DPPI   C1B16183  11.005  16.431   6.716  0.2480 -0.1439 -0.2474
 1132DPPI   C2B16184  10.945  16.496   7.201  0.0622  0.0152 -0.3975
 1132DPPI   C3B16185  11.014  16.493   7.601 -0.2053 -0.2536  0.0183
 1132DPPI   C4B16186  11.041  16.537   8.151  0.0858  0.2072  0.2753
 1133DPPI    C116187  10.777   8.853   5.825  0.0127  0.2352  0.1004
 1133DPPI    C216188  10.431   9.036   5.740  0.0215  0.0976 -0.2495
 1133DPPI    C316189  10.484   8.652   5.640  0.1479  0.0137  0.1237
 1133DPPI   PO416190  10.861   8.963   6.077  0.1211  0.0709 -0.1872
 1133DPPI   GL116191  11.004   9.105   6.548 -0.1677  0.0207  0.1940
 1133DPPI   GL216192  10.952   8.746   6.534 -0.0532 -0.1932 -0.0473
 1133DPPI   C1A16193  11.132   8.922   7.004  0.7500  0.2244 -0.1010
 1133DPPI   C2A16194  11.237   8.921   7.507  0.3461  0.1134  0.2224
 1133DPPI   C3A16195  11.152   8.886   7.984 -0.0477 -0.1452  0.1647
 1133DPPI   C4A16196  11.074   8.859   8.361 -0.0124 -0.1337  0.0756
 1133DPPI   C1B16197  10.999   8.455   6.797  0.1951 -0.1740  0.1018
 1133DPPI   C2B16198  11.096   8.399   7.272  0.2052  0.2725 -0.1721
 1133DPPI   C3B16199  11.116   8.441   7.738  0.1690  0.3916  0.2021
 1133DPPI   C4B16200  10.974   8.346   8.098 -0.1448 -0.2032  0.1733
 1134DPPI    C116201  13.840   2.716   5.952  0.0275 -0.1207  0.0221
 1134DPPI    C216202  13.625   3.045   5.875 -0.0741 -0.1635  0.1205
 1134DPPI    C316203  14.009   3.078   5.985 -0.0466 -0.0842  0.0025
 1134DPPI   PO416204  13.730   2.509   6.113  0.1846  0.0181  0.0803
 1134DPPI   GL116205  13.711   2.384   6.549 -0.0776 -0.0302 -0.0165
 1134DPPI   GL216206  13.461   2.326   6.752 -0.2206  0.1957 -0.0879
 1134DPPI   C1A16207  13.881   2.489   6.977 -0.0980 -0.2118  0.1720
 1134DPPI   C2A16208  13.639   2.450   7.324 -0.1373  0.1451 -0.0696
 1134DPPI   C3A16209  13.650   2.350   7.778 -0.0691  0.0930  0.1267
 1134DPPI   C4A16210  13.726   2.454   8.234  0.3222 -0.0367  0.3018
 1134DPPI   C1B16211  13.237   2.249   7.172  0.0221  0.0137  0.4812
 1134DPPI   C2B16212  13.225   2.236   7.573 -0.0481  0.0884 -0.0838
 1134DPPI   C3B16213  13.091   2.294   7.966  0.1625  0.0407  0.1019
 1134DPPI   C4B16214  13.252   2.302   8.397 -0.2906 -0.1537  0.0604
 1135DPPI    C116215   3.837  16.858   6.658 -0.1148  0.0886 -0.1393
 1135DPPI    C216216   4.192  17.008   6.764 -0.0491 -0.2102  0.0764
 1135DPPI    C316217   4.120  16.918   6.381  0.0606 -0.0311  0.0117
 1135DPPI   PO416218   3.635  17.028   6.898 -0.0570 -0.0396  0.1257
 1135DPPI   GL116219   3.775  17.266   7.257  0.0678  0.0438  0.2949
 1135DPPI   GL216220   4.017  17.402   7.049 -0.1551 -0.1155  0.2494
 1135DPPI   C1A16221   3.879  17.200   7.688  0.2627  0.2004 -0.2180
 1135DPPI   C2A16222   3.819  17.204   8.144 -0.2646 -0.0247 -0.1549
 1135DPPI   C3A16223   3.884  17.079   8.635  0.2037  0.0637  0.2334
 1135DPPI   C4A16224   3.671  16.831   8.908  0.1246 -0.0750  0.3090
 1135DPPI   C1B16225   4.230  17.434   7.484  0.3206  0.0080  0.1606
 1135DPPI   C2B16226   4.353  17.360   7.955  0.2343 -0.0615  0.1501
 1135DPPI   C3B16227   4.274  17.283   8.351 -0.0985 -0.4774 -0.0491
 1135DPPI   C4B16228   4.277  17.477   8.718 -0.2699  0.1824  0.1449
 1136DPPI    C116229  11.228  15.325   5.924  0.0239  0.0525  0.2552
 1136DPPI    C216230  11.396  14.992   5.779 -0.0409  0.0241  0.2453
 1136DPPI    C316231  11.258  15.273   5.529 -0.1205 -0.0089  0.2518
 1136DPPI   PO416232  11.429  15.377   6.082  0.1504 -0.0777 -0.1238
 1136DPPI   GL116233  11.458  15.217   6.539  0.1765  0.0660 -0.0345
 1136DPPI   GL216234  11.724  15.314   6.502 -0.0620  0.2398  0.3008
 1136DPPI   C1A16235  11.304  15.128   7.019 -0.2045  0.1951 -0.3102
 1136DPPI   C2A16236  11.202  15.094   7.493  0.2273  0.2130 -0.1806
 1136DPPI   C3A16237  11.212  15.251   7.963  0.0947  0.4502  0.1284
 1136DPPI   C4A16238  11.333  15.367   8.407  0.2088  0.1188  0.1969
 1136DPPI   C1B16239  11.797  15.213   6.965 -0.3593 -0.0304  0.0965
 1136DPPI   C2B16240  11.731  15.233   7.436 -0.0404 -0.0075 -0.2110
 1136DPPI   C3B16241  11.735  15.362   7.858  0.1026  0.1530 -0.1322
 1136DPPI   C4B16242  11.779  15.385   8.255  0.2479 -0.1329  0.0194
 1137DPPI    C116243  15.365  12.338   6.546 -0.0011  0.0329  0.0259
 1137DPPI    C216244  15.056  12.162   6.364  0.0436  0.0222 -0.0393
 1137DPPI    C316245  15.424  12.131   6.210  0.0480  0.1926 -0.0651
 1137DPPI   PO416246  15.224  12.435   6.826  0.1097  0.0180 -0.0961
 1137DPPI   GL116247  15.277  12.666   7.185 -0.0296 -0.2521 -0.0620
 1137DPPI   GL216248  15.082  12.832   7.243 -0.1150  0.1088 -0.2040
 1137DPPI   C1A16249  15.472  12.414   7.518  0.0388  0.1274 -0.0010
 1137DPPI   C2A16250  15.413  12.586   7.898  0.0400 -0.0594  0.0180
 1137DPPI   C3A16251  15.308  12.591   8.286  0.1671 -0.1039 -0.2163
 1137DPPI   C4A16252  15.116  12.456   8.716 -0.0669 -0.1091  0.0430
 1137DPPI   C1B16253  14.994  12.852   7.738  0.2271  0.0944 -0.1624
 1137DPPI   C2B16254  14.783  12.882   8.118 -0.0754  0.0293  0.1440
 1137DPPI   C3B16255  14.780  12.765   8.429 -0.6336  0.1908  0.1424
 1137DPPI   C4B16256  14.730  12.798   8.934 -0.2285 -0.0951 -0.2951
 1138DPPI    C116257  11.096  10.426   6.063  0.1221  0.2009 -0.0034
 1138DPPI    C216258  10.875  10.281   6.364  0.1273  0.1948 -0.0025
 1138DPPI    C316259  10.719  10.311   5.997  0.0359  0.4443  0.0546
 1138DPPI   PO416260  11.234  10.714   6.206 -0.1561 -0.0185 -0.0400
 1138DPPI   GL116261  11.614  10.781   6.577  0.3279  0.1129 -0.1496
 1138DPPI   GL216262  11.340  11.012   6.694  0.0680  0.0805  0.1971
 1138DPPI   C1A16263  11.475  10.555   7.000 -0.0179 -0.1432 -0.1567
 1138DPPI   C2A16264  11.510  10.463   7.437  0.0511  0.0134 -0.2473
 1138DPPI   C3A16265  11.484  10.484   7.837  0.3409  0.0677  0.0378
 1138DPPI   C4A16266  11.585  10.368   8.302  0.0180 -0.2184 -0.1566
 1138DPPI   C1B16267  11.120  10.922   7.018  0.1620 -0.3436 -0.2213
 1138DPPI   C2B16268  11.086  10.816   7.546 -0.0100  0.1694 -0.0837
 1138DPPI   C3B16269  11.172  10.806   8.084 -0.1343  0.0614  0.1548
 1138DPPI   C4B16270  11.266  10.758   8.455 -0.1070  0.2593  0.1030
 1139DPPI    C116271   6.033  14.606   6.656 -0.0552 -0.2289 -0.0081
 1139DPPI    C216272   5.780  14.624   6.966 -0.1662  0.0526 -0.1113
 1139DPPI    C316273   5.702  14.381   6.659  0.0401 -0.3692  0.1609
 1139DPPI   PO416274   6.258  14.759   6.870 -0.1092 -0.0212 -0.2704
 1139DPPI   GL116275   6.128  14.885   7.259  0.1190  0.0093 -0.2210
 1139DPPI   GL216276   6.012  15.036   7.411 -0.0758  0.1270  0.2802
 1139DPPI   C1A16277   6.423  14.770   7.525  0.0314 -0.2033  0.0527
 1139DPPI   C2A16278   6.610  14.814   7.956  0.0175 -0.0556 -0.3450
 1139DPPI   C3A16279   6.584  14.789   8.437 -0.2101 -0.0570 -0.1431
 1139DPPI   C4A16280   6.727  14.852   8.838 -0.0812 -0.1802 -0.2473
 1139DPPI   C1B16281   6.137  15.012   7.877 -0.0728  0.2183  0.3290
 1139DPPI   C2B16282   6.122  15.019   8.375 -0.0440  0.0633 -0.0414
 1139DPPI   C3B16283   6.252  15.212   8.758 -0.0028  0.1156  0.0041
 1139DPPI   C4B16284   6.322  15.487   9.181 -0.2987 -0.1075 -0.1227
 1140DPPI    C116285   4.810  12.293   7.097 -0.3372 -0.1142  0.1644
 1140DPPI    C216286   4.627  12.638   7.182  0.0798  0.1909 -0.1327
 1140DPPI    C316287   4.700  12.539   6.802  0.0852 -0.1653 -0.0429
 1140DPPI   PO416288   5.022  12.307   7.215  0.0501 -0.0608 -0.2835
 1140DPPI   GL116289   5.334  12.031   7.400  0.1446 -0.0512 -0.1160
 1140DPPI   GL216290   5.325  11.714   7.330 -0.0187  0.0318  0.1275
 1140DPPI   C1A16291   5.243  12.101   7.756 -0.2249  0.0416 -0.0490
 1140DPPI   C2A16292   5.404  11.954   8.072  0.1652  0.4311  0.1215
 1140DPPI   C3A16293   5.495  12.042   8.467 -0.0501  0.0942  0.1837
 1140DPPI   C4A16294   5.577  12.263   8.790  0.0993  0.1779  0.3005
 1140DPPI   C1B16295   5.123  11.619   7.680  0.1290  0.1648  0.1405
 1140DPPI   C2B16296   5.022  11.584   8.084  0.0360 -0.0596 -0.1746
 1140DPPI   C3B16297   5.201  11.639   8.419  0.1549 -0.1301  0.1156
 1140DPPI   C4B16298   5.307  11.538   8.790 -0.0484 -0.2240 -0.0539
 1141DPPI    C116299   3.764   9.665   6.784  0.1150 -0.1091 -0.1504
 1141DPPI    C216300   3.600   9.522   6.448 -0.2765  0.0334 -0.0251
 1141DPPI    C316301   3.721   9.903   6.466  0.0370 -0.0597 -0.1032
 1141DPPI   PO416302   3.581   9.638   6.932  0.1200  0.4581 -0.0183
 1141DPPI   GL116303   3.495   9.398   7.226 -0.1457  0.0197 -0.1015
 1141DPPI   GL216304   3.681   9.305   7.334  0.0401 -0.1243 -0.1776
 1141DPPI   C1A16305   3.279   9.599   7.522  0.3082 -0.3192 -0.0552
 1141DPPI   C2A16306   3.287   9.645   7.904 -0.1002  0.1392  0.0445
 1141DPPI   C3A16307   3.312   9.449   8.400 -0.2051  0.1515  0.0568
 1141DPPI   C4A16308   3.164   9.239   8.778 -0.1502  0.1635 -0.4014
 1141DPPI   C1B16309   3.640   9.132   7.841  0.1459  0.0767 -0.0288
 1141DPPI   C2B16310   3.678   9.124   8.315  0.4608  0.1498 -0.3279
 1141DPPI   C3B16311   3.676   9.193   8.738  0.1304 -0.1196  0.0221
 1141DPPI   C4B16312   3.581   8.794   9.026  0.3334  0.0898  0.0278
 1142DPPI    C116313   4.057   0.639   6.655  0.0086  0.0031  0.1728
 1142DPPI    C216314   4.015   0.940   6.395 -0.0415 -0.0186  0.1556
 1142DPPI    C316315   3.969   0.562   6.272 -0.0155 -0.0314  0.1851
 1142DPPI   PO416316   3.896   0.705   6.838  0.0695 -0.1663 -0.2065
 1142DPPI   GL116317   3.800   0.640   7.305  0.0657  0.2253 -0.1157
 1142DPPI   GL216318   3.746   0.880   7.298 -0.0388 -0.0373 -0.1000
 1142DPPI   C1A16319   3.926   0.572   7.800 -0.0631  0.3367 -0.1312
 1142DPPI   C2A16320   3.946   0.597   8.237 -0.0355 -0.0094  0.1321
 1142DPPI   C3A16321   3.815   0.502   8.610  0.0001  0.3526  0.3519
 1142DPPI   C4A16322   3.561   0.709   8.930 -0.1006 -0.2255 -0.0317
 1142DPPI   C1B16323   3.956   1.022   7.615  0.0904  0.1069  0.0487
 1142DPPI   C2B16324   3.964   1.097   8.053 -0.2301  0.4864 -0.3167
 1142DPPI   C3B16325   3.856   1.053   8.439 -0.0314  0.1330 -0.2958
 1142DPPI   C4B16326   3.769   1.230   8.834  0.1451 -0.1139  0.0916
 1143DPPI    C116327   6.274   6.639   6.171 -0.0569  0.2371  0.1944
 1143DPPI    C216328   6.543   6.758   5.899 -0.1366 -0.0308 -0.0072
 1143DPPI    C316329   6.160   6.867   5.863 -0.1461 -0.0608  0.0020
 1143DPPI   PO416330   6.297   6.412   6.237  0.4015  0.5759 -0.2414
 1143DPPI   GL116331   6.415   6.282   6.565  0.2175 -0.0325  0.2190
 1143DPPI   GL216332   6.527   6.016   6.626 -0.0613  0.0468  0.0164
 1143DPPI   C1A16333   6.335   6.416   7.014  0.2319  0.3628  0.1731
 1143DPPI   C2A16334   6.122   6.555   7.424 -0.0931  0.1853 -0.0623
 1143DPPI   C3A16335   6.105   6.396   7.849  0.0424 -0.0845  0.3018
 1143DPPI   C4A16336   6.089   6.271   8.243 -0.2939 -0.2082  0.0353
 1143DPPI   C1B16337   6.583   6.017   6.968 -0.0380  0.0618  0.0124
 1143DPPI   C2B16338   6.514   6.267   7.396  0.2309  0.0975  0.6981
 1143DPPI   C3B16339   6.507   6.140   7.794  0.0483  0.1282 -0.2501
 1143DPPI   C4B16340   6.565   6.018   8.249 -0.0516  0.2454  0.0617
 1144DPPI    C116341   4.218   9.870   6.563 -0.0156  0.0913  0.1267
 1144DPPI    C216342   4.443  10.196   6.620  0.2401 -0.0401 -0.1081
 1144DPPI    C316343   4.108  10.220   6.404  0.1581  0.1048  0.0333
 1144DPPI   PO416344   4.251   9.791   6.837 -0.0670  0.2696 -0.1313
 1144DPPI   GL116345   4.063   9.667   7.222  0.0348  0.5706  0.2266
 1144DPPI   GL216346   3.718   9.866   7.392 -0.1019  0.2985  0.0440
 1144DPPI   C1A16347   4.220   9.365   7.460  0.0406  0.2464 -0.0928
 1144DPPI   C2A16348   4.199   9.231   7.903 -0.0531 -0.0360  0.2224
 1144DPPI   C3A16349   4.163   9.345   8.387  0.0120 -0.4954  0.0657
 1144DPPI   C4A16350   4.334   9.043   8.675  0.0163 -0.1231 -0.2766
 1144DPPI   C1B16351   3.867   9.596   7.729  0.0224  0.0295 -0.2496
 1144DPPI   C2B16352   3.713   9.614   8.142 -0.0891  0.0790  0.2733
 1144DPPI   C3B16353   3.749   9.785   8.568 -0.3152 -0.0720  0.0225
 1144DPPI   C4B16354   3.640   9.892   9.020 -0.2440  0.1761  0.1241
 1145DPPI    C116355  12.922   0.372   5.921  0.1197 -0.0061 -0.2213
 1145DPPI    C216356  12.795   0.159   5.607  0.1745 -0.1084 -0.1745
 1145DPPI    C316357  12.743   0.556   5.614  0.2235 -0.0984 -0.3378
 1145DPPI   PO416358  12.861   0.231   6.121  0.1764  0.0766 -0.2473
 1145DPPI   GL116359  12.671   0.303   6.560  0.1181 -0.0838 -0.1268
 1145DPPI   GL216360  13.017   0.384   6.665  0.2907  0.1512  0.0979
 1145DPPI   C1A16361  12.633   0.169   6.952  0.2991  0.0857  0.0942
 1145DPPI   C2A16362  12.734   0.200   7.377 -0.2057  0.4391 -0.1363
 1145DPPI   C3A16363  12.652   0.262   7.740  0.2056  0.2882  0.2245
 1145DPPI   C4A16364  12.746   0.337   8.230 -0.0075  0.0707  0.0447
 1145DPPI   C1B16365  13.211   0.377   7.137  0.1471  0.2204  0.1606
 1145DPPI   C2B16366  13.163   0.354   7.602 -0.1610 -0.2935  0.0814
 1145DPPI   C3B16367  13.202   0.494   8.054  0.3810  0.1675  0.1418
 1145DPPI   C4B16368  13.118   0.617   8.444  0.3766  0.1224 -0.0376
 1146DPPI    C116369   9.036   1.981   5.665  0.0291  0.1235 -0.0793
 1146DPPI    C216370   9.347   1.995   5.413 -0.1619 -0.1090 -0.3335
 1146DPPI    C316371   9.211   2.331   5.582  0.3432 -0.0278 -0.0694
 1146DPPI   PO416372   9.183   1.840   5.867  0.0726 -0.1241  0.0360
 1146DPPI   GL116373   9.080   1.842   6.388  0.2034 -0.1685  0.0513
 1146DPPI   GL216374   9.371   1.743   6.450  0.0764 -0.2022  0.2308
 1146DPPI   C1A16375   8.944   2.094   6.711 -0.2139  0.0049 -0.0243
 1146DPPI   C2A16376   8.942   2.086   7.104 -0.1468  0.0244  0.0252
 1146DPPI   C3A16377   8.926   2.099   7.556 -0.1637 -0.2775 -0.2000
 1146DPPI   C4A16378   8.971   1.985   7.933  0.0621  0.1449  0.1204
 1146DPPI   C1B16379   9.269   1.690   6.937 -0.0488 -0.1407 -0.1003
 1146DPPI   C2B16380   9.239   1.712   7.381 -0.2553 -0.0057 -0.2248
 1146DPPI   C3B16381   9.323   1.652   7.860  0.1378  0.1483  0.0264
 1146DPPI   C4B16382   9.317   1.669   8.238 -0.0321  0.0580  0.0909
 1147PYPI    C116383  11.625   0.283   5.816  0.0245 -0.0090  0.1424
 1147PYPI    C216384  11.963   0.243   6.025  0.0864  0.1530  0.0748
 1147PYPI    C316385  11.906   0.567   5.797 -0.0937  0.1031  0.0477
 1147PYPI   PO416386  11.550   0.017   5.886  0.2645  0.0512 -0.0301
 1147PYPI   GL116387  11.288  -0.052   6.202  0.2043  0.0681  0.0938
 1147PYPI   GL216388  10.936   0.010   6.269 -0.2443  0.0810 -0.0507
 1147PYPI   C1A16389  11.153  -0.258   6.616  0.0454  0.1158 -0.0820
 1147PYPI   C2A16390  11.079  -0.194   6.974  0.1597  0.1926  0.1107
 1147PYPI   D3A16391  11.172  -0.215   7.451  0.1658  0.0359  0.0055
 1147PYPI   C4A16392  11.146   0.044   7.841 -0.1928  0.1473 -0.3284
 1147PYPI   C1B16393  10.744   0.126   6.651 -0.1691  0.1886  0.2048
 1147PYPI   C2B16394  10.791   0.130   7.177  0.0689 -0.2915 -0.2881
 1147PYPI   C3B16395  10.794   0.229   7.591 -0.0595 -0.2124  0.2600
 1147PYPI   C4B16396  10.732   0.320   8.043  0.5105  0.0552 -0.2228
 1148PYPI    C116397   5.945   0.169   6.379 -0.0560 -0.1499 -0.0243
 1148PYPI    C216398   5.793   0.232   6.014 -0.0210  0.1830  0.0155
 1148PYPI    C316399   6.086   0.467   6.152  0.2985 -0.2380  0.0741
 1148PYPI   PO416400   5.804   0.036   6.471 -0.0923 -0.2694 -0.2961
 1148PYPI   GL116401   5.765  -0.009   6.841  0.0351  0.2340  0.0672
 1148PYPI   GL216402   6.019  -0.298   6.926  0.0329 -0.1484 -0.0902
 1148PYPI   C1A16403   5.633   0.092   7.290 -0.1090  0.1168  0.0427
 1148PYPI   C2A16404   5.612   0.115   7.795  0.0784  0.0672 -0.1132
 1148PYPI   D3A16405   5.614   0.096   8.166  0.2709 -0.1613 -0.1436
 1148PYPI   C4A16406   5.574   0.228   8.664 -0.0316 -0.5146  0.0678
 1148PYPI   C1B16407   6.081  -0.208   7.279 -0.1233 -0.0273  0.1050
 1148PYPI   C2B16408   6.043  -0.306   7.770  0.0746  0.1023 -0.1726
 1148PYPI   C3B16409   6.148  -0.217   8.132 -0.0515 -0.2479 -0.1426
 1148PYPI   C4B16410   5.980  -0.132   8.469  0.0584  0.1245 -0.3156
 1149PYPI    C116411  13.284   2.192   6.079 -0.1101 -0.2461 -0.1207
 1149PYPI    C216412  13.066   1.943   5.854  0.0110 -0.2666 -0.2161
 1149PYPI    C316413  13.419   2.076   5.721  0.1157 -0.3335 -0.0090
 1149PYPI   PO416414  13.312   2.085   6.317  0.0038 -0.1707 -0.0738
 1149PYPI   GL116415  12.994   2.007   6.630  0.0412 -0.0612  0.2900
 1149PYPI   GL216416  12.695   2.105   6.672  0.2106 -0.0730  0.1728
 1149PYPI   C1A16417  13.047   1.857   6.942  0.3655 -0.0224  0.1962
 1149PYPI   C2A16418  13.093   1.744   7.359 -0.2131  0.0690  0.0611
 1149PYPI   D3A16419  13.108   1.806   7.773 -0.2438 -0.0568 -0.3033
 1149PYPI   C4A16420  13.042   1.788   8.237  0.4462 -0.2084 -0.0691
 1149PYPI   C1B16421  12.674   2.061   7.122 -0.0163 -0.1560 -0.0833
 1149PYPI   C2B16422  12.744   2.135   7.510  0.0726 -0.2287 -0.0631
 1149PYPI   C3B16423  12.696   2.072   7.912  0.3470  0.2793 -0.0268
 1149PYPI   C4B16424  12.732   2.180   8.384  0.1001  0.0083 -0.3837
 1150PYPI    C116425   5.852   4.057   6.274 -0.1554 -0.2579  0.0185
 1150PYPI    C216426   6.242   4.083   6.187 -0.1654 -0.1666 -0.0004
 1150PYPI    C316427   6.032   3.763   6.071 -0.1398 -0.1255 -0.1630
 1150PYPI   PO416428   5.775   4.232   6.500 -0.0376 -0.1203 -0.0088
 1150PYPI   GL116429   5.838   4.321   6.876 -0.0056 -0.0143 -0.1600
 1150PYPI   GL216430   6.028   3.985   7.031  0.0306 -0.1971 -0.1807
 1150PYPI   C1A16431   5.739   4.405   7.288 -0.1021  0.4255 -0.2521
 1150PYPI   C2A16432   5.656   4.380   7.723 -0.1385  0.1861 -0.1638
 1150PYPI   D3A16433   5.707   4.292   8.107 -0.1599 -0.1869 -0.1229
 1150PYPI   C4A16434   5.603   4.441   8.566 -0.2665  0.2641 -0.0743
 1150PYPI   C1B16435   6.021   4.020   7.395 -0.0003  0.4692  0.1512
 1150PYPI   C2B16436   6.030   4.021   7.776  0.0195  0.0650  0.2766
 1150PYPI   C3B16437   6.127   4.060   8.193  0.2292  0.2500  0.2702
 1150PYPI   C4B16438   6.027   4.151   8.575  0.3606 -0.1037  0.2130
 1151PYPI    C116439  14.751   4.096   6.183  0.1465  0.0010 -0.1602
 1151PYPI    C216440  14.874   3.898   5.858  0.0862 -0.2342 -0.0422
 1151PYPI    C316441  14.581   3.748   6.084 -0.0344  0.0449 -0.0092
 1151PYPI   PO416442  15.034   4.115   6.299 -0.0660  0.0571  0.1026
 1151PYPI   GL116443  15.028   3.928   6.650  0.0734  0.2818  0.2093
 1151PYPI   GL216444  15.169   4.215   6.774  0.1328  0.3257 -0.2245
 1151PYPI   C1A16445  15.124   3.875   7.159  0.0186 -0.1675  0.0738
 1151PYPI   C2A16446  15.137   3.861   7.603  0.3105  0.1665 -0.1191
 1151PYPI   D3A16447  15.116   3.834   8.068 -0.1102  0.0041 -0.1754
 1151PYPI   C4A16448  14.922   4.138   8.394 -0.1134  0.0456  0.0197
 1151PYPI   C1B16449  15.190   4.365   7.239 -0.0247 -0.1959 -0.0354
 1151PYPI   C2B16450  15.219   4.362   7.675 -0.1301 -0.0486  0.3601
 1151PYPI   C3B16451  15.224   4.386   8.044  0.0623  0.1248 -0.1189
 1151PYPI   C4B16452  15.386   4.270   8.473 -0.1447 -0.1720  0.0190
 1152PYPI    C116453   6.156  15.545   6.367 -0.0261 -0.1444  0.0065
 1152PYPI    C216454   5.828  15.639   6.575 -0.0063 -0.0681  0.0034
 1152PYPI    C316455   5.825  15.666   6.176  0.1173  0.2902  0.0233
 1152PYPI   PO416456   6.222  15.337   6.504  0.0741  0.1020  0.3262
 1152PYPI   GL116457   6.431  15.329   6.862  0.1408 -0.0557  0.2630
 1152PYPI   GL216458   6.497  15.147   7.100 -0.0645 -0.2102  0.1581
 1152PYPI   C1A16459   6.613  15.636   7.196  0.2629 -0.0937  0.2552
 1152PYPI   C2A16460   6.621  15.744   7.609 -0.2677 -0.0447 -0.0649
 1152PYPI   D3A16461   6.817  15.810   7.980 -0.2295 -0.2006 -0.0142
 1152PYPI   C4A16462   6.807  15.778   8.422  0.0623  0.1823  0.0632
 1152PYPI   C1B16463   6.503  15.211   7.683 -0.2085  0.2147  0.1623
 1152PYPI   C2B16464   6.603  15.267   8.123 -0.2186 -0.0462 -0.0922
 1152PYPI   C3B16465   6.775  15.242   8.504 -0.1265  0.0073 -0.1735
 1152PYPI   C4B16466   6.769  15.432   8.844  0.0940  0.1254  0.1675
 1153PYPI    C116467   5.044   2.872   6.225 -0.1894  0.1405 -0.1010
 1153PYPI    C216468   5.404   2.996   6.102  0.0316 -0.2131  0.1711
 1153PYPI    C316469   5.210   2.711   5.899 -0.0579 -0.0836  0.0736
 1153PYPI   PO416470   5.025   3.010   6.477 -0.2672  0.1369  0.4417
 1153PYPI   GL116471   5.092   2.999   6.880 -0.1640  0.1211  0.0987
 1153PYPI   GL216472   5.026   3.272   6.886  0.1478 -0.6440  0.0945
 1153PYPI   C1A16473   5.197   2.771   7.261  0.0862  0.3085  0.0195
 1153PYPI   C2A16474   5.288   2.809   7.741  0.0574  0.0542  0.2192
 1153PYPI   D3A16475   5.344   2.789   8.156 -0.2064 -0.0508 -0.0597
 1153PYPI   C4A16476   5.140   3.031   8.461  0.2868 -0.2479  0.0455
 1153PYPI   C1B16477   4.989   3.229   7.302 -0.0073 -0.0159 -0.2303
 1153PYPI   C2B16478   4.931   3.134   7.641 -0.1296  0.3157 -0.2785
 1153PYPI   C3B16479   4.863   3.186   8.048 -0.3318 -0.0478 -0.2276
 1153PYPI   C4B16480   4.679   3.213   8.532  0.2130 -0.2599  0.0108
 1154PYPI    C116481   4.666  13.812   6.887 -0.1103 -0.0658 -0.0235
 1154PYPI    C216482   4.803  13.645   6.551 -0.0942  0.3110 -0.2095
 1154PYPI    C316483   4.448  13.829   6.552 -0.1079  0.2855 -0.0111
 1154PYPI   PO416484   4.673  13.655   7.053 -0.0249 -0.2780  0.0821
 1154PYPI   GL116485   4.367  13.453   7.219 -0.2151  0.0562 -0.1239
 1154PYPI   GL216486   4.448  13.682   7.539  0.2549  0.2260  0.5157
 1154PYPI   C1A16487   4.368  13.156   7.466 -0.0596 -0.1506  0.1127
 1154PYPI   C2A16488   4.278  13.003   7.836  0.0298 -0.1787  0.1963
 1154PYPI   D3A16489   4.362  12.755   8.077  0.0487  0.0361  0.2966
 1154PYPI   C4A16490   4.054  12.812   8.428  0.2215  0.2038 -0.0859
 1154PYPI   C1B16491   4.592  13.441   7.815 -0.5441  0.2431 -0.4818
 1154PYPI   C2B16492   4.479  13.253   8.214  0.1117 -0.1106  0.2710
 1154PYPI   C3B16493   4.278  13.226   8.540 -0.0460  0.0352 -0.3038
 1154PYPI   C4B16494   4.248  13.517   8.865  0.0245  0.0717  0.0308
 1155PYPI    C116495   6.142  16.136   6.332  0.1485  0.0652  0.3030
 1155PYPI    C216496   6.531  16.226   6.358  0.1710  0.0463  0.0553
 1155PYPI    C316497   6.279  16.479   6.179  0.1098 -0.0482  0.0071
 1155PYPI   PO416498   6.136  16.031   6.627  0.2562 -0.1127 -0.4655
 1155PYPI   GL116499   6.367  16.020   6.930 -0.1440 -0.2149  0.1386
 1155PYPI   GL216500   6.725  16.130   6.881 -0.1125  0.0704 -0.1487
 1155PYPI   C1A16501   6.259  16.000   7.359 -0.4128 -0.2043 -0.0680
 1155PYPI   C2A16502   6.290  16.107   7.746 -0.1397 -0.2685 -0.1760
 1155PYPI   D3A16503   6.485  16.122   8.151 -0.2981 -0.2409  0.1753
 1155PYPI   C4A16504   6.368  16.259   8.527  0.1235 -0.0479 -0.0354
 1155PYPI   C1B16505   6.739  16.197   7.302  0.1565  0.1292  0.2087
 1155PYPI   C2B16506   7.023  16.108   7.601 -0.0307 -0.0394  0.2411
 1155PYPI   C3B16507   7.011  16.282   8.015  0.3110 -0.1255 -0.0376
 1155PYPI   C4B16508   6.895  16.288   8.423 -0.0316 -0.2684 -0.0813
 1156PYPI    C116509   6.422  12.869   6.639  0.1053 -0.3008  0.0745
 1156PYPI    C216510   6.161  12.601   6.498 -0.0706 -0.1464  0.1027
 1156PYPI    C316511   6.254  12.923   6.280 -0.0405 -0.1095  0.1697
 1156PYPI   PO416512   6.383  12.909   6.859  0.0959  0.1529  0.0652
 1156PYPI   GL116513   6.295  13.094   7.292  0.1263  0.0295  0.2337
 1156PYPI   GL216514   6.277  13.325   7.380 -0.1217  0.3710  0.0365
 1156PYPI   C1A16515   6.485  12.964   7.673  0.3039 -0.2930 -0.0532
 1156PYPI   C2A16516   6.477  13.111   8.144 -0.1572 -0.0278  0.2002
 1156PYPI   D3A16517   6.532  13.226   8.526  0.1071  0.1681 -0.1650
 1156PYPI   C4A16518   6.647  13.567   8.511  0.1194 -0.1764 -0.0984
 1156PYPI   C1B16519   6.288  13.404   7.802  0.2326 -0.2938  0.0975
 1156PYPI   C2B16520   6.167  13.506   8.213  0.1560  0.1507 -0.1214
 1156PYPI   C3B16521   6.138  13.504   8.637 -0.3242  0.1553  0.1528
 1156PYPI   C4B16522   5.873  13.668   9.011 -0.1573 -0.2463  0.0679
 1157PYPI    C116523  12.274   6.550   6.379  0.2362  0.0607  0.0097
 1157PYPI    C216524  12.366   6.352   6.044  0.2798  0.0894  0.0045
 1157PYPI    C316525  12.452   6.192   6.400  0.0005 -0.0584  0.0087
 1157PYPI   PO416526  12.386   6.819   6.340  0.3050  0.0920  0.1153
 1157PYPI   GL116527  12.514   7.051   6.741 -0.1273 -0.0031 -0.1284
 1157PYPI   GL216528  12.783   7.154   6.748 -0.1756 -0.1543 -0.1121
 1157PYPI   C1A16529  12.560   7.002   7.156 -0.1241 -0.0187 -0.2427
 1157PYPI   C2A16530  12.545   6.919   7.637 -0.0277  0.4649 -0.0079
 1157PYPI   D3A16531  12.443   6.847   8.018 -0.1419  0.3630  0.0888
 1157PYPI   C4A16532  12.376   6.723   8.347 -0.1703  0.3549 -0.0201
 1157PYPI   C1B16533  13.096   7.192   7.156  0.0425 -0.0442 -0.1296
 1157PYPI   C2B16534  13.023   7.039   7.558  0.0980 -0.1365 -0.1099
 1157PYPI   C3B16535  12.924   7.031   8.006 -0.0820  0.1091 -0.1386
 1157PYPI   C4B16536  12.843   6.848   8.451  0.1418 -0.2422  0.0665
 1158PYPI    C116537   6.351   0.878   6.087  0.0354  0.1293 -0.0843
 1158PYPI    C216538   6.584   0.999   5.785  0.1100  0.0436 -0.0615
 1158PYPI    C316539   6.449   0.623   5.794  0.2418 -0.0013  0.0951
 1158PYPI   PO416540   6.481   0.866   6.258  0.3197 -0.1537  0.0266
 1158PYPI   GL116541   6.450   1.172   6.585 -0.1148 -0.3456  0.1389
 1158PYPI   GL216542   6.318   0.851   6.722  0.0212  0.2036  0.0842
 1158PYPI   C1A16543   6.389   1.269   6.989 -0.0393  0.0413  0.0216
 1158PYPI   C2A16544   6.300   1.442   7.469 -0.2963  0.0934  0.1258
 1158PYPI   D3A16545   6.320   1.537   7.845  0.0012 -0.1838 -0.2282
 1158PYPI   C4A16546   6.359   1.343   8.230  0.1278 -0.0239 -0.4046
 1158PYPI   C1B16547   6.298   0.799   7.120 -0.1428  0.0563  0.1369
 1158PYPI   C2B16548   6.304   0.779   7.528  0.0584  0.1153  0.1507
 1158PYPI   C3B16549   6.255   0.689   7.946 -0.0922  0.3755  0.1860
 1158PYPI   C4B16550   6.157   0.902   8.321  0.2168 -0.1365  0.1973
 1159PYPI    C116551   7.297   9.593   5.948  0.0050 -0.1641  0.1267
 1159PYPI    C216552   7.496   9.279   5.801  0.1278  0.0569 -0.1891
 1159PYPI    C316553   7.394   9.582   5.560 -0.2227  0.1408  0.0572
 1159PYPI   PO416554   7.406   9.557   6.277 -0.2874  0.0431  0.1138
 1159PYPI   GL116555   7.393   9.496   6.671  0.1762  0.1939 -0.0170
 1159PYPI   GL216556   7.558   9.702   6.894  0.0156  0.4984 -0.1553
 1159PYPI   C1A16557   7.309   9.291   7.004 -0.1476 -0.1237 -0.0666
 1159PYPI   C2A16558   7.468   9.143   7.407  0.3777 -0.1130 -0.2451
 1159PYPI   D3A16559   7.424   9.244   7.769 -0.1259 -0.1668 -0.2058
 1159PYPI   C4A16560   7.504   9.143   8.132  0.1458  0.4234 -0.0537
 1159PYPI   C1B16561   7.422   9.713   7.379  0.0110 -0.2914  0.0297
 1159PYPI   C2B16562   7.622   9.666   7.846  0.0361 -0.6104  0.0775
 1159PYPI   C3B16563   7.560   9.639   8.306 -0.0494 -0.2116 -0.1036
 1159PYPI   C4B16564   7.595   9.547   8.699 -0.0003 -0.0254  0.1826
 1160PYPI    C116565  12.916  16.347   6.051 -0.1294  0.1613 -0.2616
 1160PYPI    C216566  13.045  16.431   5.682 -0.0855  0.1550 -0.2477
 1160PYPI    C316567  12.705  16.226   5.734 -0.0466  0.0802 -0.2860
 1160PYPI   PO416568  12.906  16.489   6.200 -0.3023 -0.0486 -0.1442
 1160PYPI   GL116569  13.075  16.356   6.598  0.0003  0.1206  0.1097
 1160PYPI   GL216570  12.906  16.072   6.841  0.3765 -0.0622  0.0231
 1160PYPI   C1A16571  13.036  16.562   6.981 -0.0187  0.1854 -0.2106
 1160PYPI   C2A16572  12.966  16.562   7.366 -0.2699 -0.0490 -0.0789
 1160PYPI   D3A16573  12.884  16.502   7.784 -0.1437 -0.4760  0.1206
 1160PYPI   C4A16574  12.976  16.646   8.133 -0.0900  0.1287 -0.3042
 1160PYPI   C1B16575  12.858  16.085   7.274  0.0678  0.0905  0.0009
 1160PYPI   C2B16576  12.849  16.001   7.647 -0.0091 -0.0198 -0.1299
 1160PYPI   C3B16577  12.893  16.113   8.105 -0.0718 -0.4842 -0.2774
 1160PYPI   C4B16578  13.034  16.266   8.537  0.2162 -0.0918 -0.3017
 1161PYPI    C116579   1.508   7.965   6.635 -0.1302 -0.0402 -0.0142
 1161PYPI    C216580   1.875   8.049   6.498 -0.0908  0.0381  0.1374
 1161PYPI    C316581   1.565   8.280   6.395 -0.0615  0.0956  0.1779
 1161PYPI   PO416582   1.474   7.754   6.685 -0.0001 -0.2830 -0.0568
 1161PYPI   GL116583   1.618   7.637   7.100 -0.1889 -0.0085 -0.0440
 1161PYPI   GL216584   1.504   7.333   7.145  0.2262 -0.0763 -0.0082
 1161PYPI   C1A16585   1.373   7.650   7.497  0.1553  0.1300  0.0070
 1161PYPI   C2A16586   1.316   7.521   7.929  0.1157  0.1141 -0.0789
 1161PYPI   D3A16587   1.263   7.328   8.289  0.0493  0.0650 -0.0117
 1161PYPI   C4A16588   0.952   7.454   8.498 -0.1491  0.1161 -0.2475
 1161PYPI   C1B16589   1.597   7.215   7.582  0.1692  0.3766  0.0937
 1161PYPI   C2B16590   1.657   7.091   7.968  0.2004  0.1047  0.1051
 1161PYPI   C3B16591   1.721   7.118   8.454  0.2610 -0.1609 -0.0693
 1161PYPI   C4B16592   1.698   6.894   8.909 -0.1110  0.3665 -0.5388
 1162PYPI    C116593   3.653  15.385   6.722  0.0184  0.2009 -0.1281
 1162PYPI    C216594   3.445  15.589   6.448 -0.1890 -0.0845 -0.1873
 1162PYPI    C316595   3.256  15.342   6.700  0.0284 -0.0057  0.0576
 1162PYPI   PO416596   3.795  15.649   6.859 -0.0974  0.3559  0.0753
 1162PYPI   GL116597   3.976  15.761   7.251 -0.2362 -0.3307 -0.1655
 1162PYPI   GL216598   3.867  16.026   7.189  0.1494  0.0119 -0.0733
 1162PYPI   C1A16599   3.764  15.920   7.639 -0.0540 -0.0086 -0.1083
 1162PYPI   C2A16600   3.611  16.219   7.884  0.0476  0.1396  0.0118
 1162PYPI   D3A16601   3.425  16.266   8.180 -0.0913  0.1720  0.2489
 1162PYPI   C4A16602   3.190  16.604   8.227 -0.1197 -0.1132  0.1577
 1162PYPI   C1B16603   4.039  16.288   7.454  0.1049  0.2188  0.2033
 1162PYPI   C2B16604   4.136  16.386   7.884 -0.1180 -0.1615  0.2772
 1162PYPI   C3B16605   3.943  16.274   8.213 -0.1781  0.3686 -0.0803
 1162PYPI   C4B16606   3.825  15.793   8.219  0.1134  0.1130 -0.3631
 1163PYPI    C116607  15.480  11.124   6.794 -0.1808 -0.1078  0.0085
 1163PYPI    C216608  15.368  11.156   6.411  0.0012 -0.1238 -0.0470
 1163PYPI    C316609  15.623  11.421   6.567  0.0020 -0.1734  0.0365
 1163PYPI   PO416610  15.326  10.837   6.800  0.0092  0.0677 -0.2310
 1163PYPI   GL116611  15.414  10.667   7.209 -0.3838  0.0780  0.0230
 1163PYPI   GL216612  15.597  11.016   7.243  0.1471 -0.3295  0.2120
 1163PYPI   C1A16613  15.288  10.511   7.549 -0.1072 -0.1149  0.3302
 1163PYPI   C2A16614  15.245  10.455   8.018 -0.0312  0.0027 -0.1341
 1163PYPI   D3A16615  15.159  10.575   8.396 -0.0490 -0.0957  0.1099
 1163PYPI   C4A16616  15.162  10.529   8.771  0.0741  0.1015 -0.0529
 1163PYPI   C1B16617  15.595  10.890   7.709 -0.0763 -0.2923  0.0950
 1163PYPI   C2B16618  15.688  10.831   8.113 -0.1088 -0.0517 -0.0191
 1163PYPI   C3B16619  15.589  10.659   8.610 -0.1316 -0.1006  0.2027
 1163PYPI   C4B16620  15.719  10.643   9.073 -0.1817 -0.1969 -0.2910
 1164PYPI    C116621   5.214   5.388   6.123  0.0315 -0.1410 -0.0548
 1164PYPI    C216622   4.970   5.674   5.987 -0.1555 -0.1966  0.1569
 1164PYPI    C316623   5.348   5.656   5.858 -0.2178 -0.0164 -0.0582
 1164PYPI   PO416624   5.209   5.435   6.385 -0.0185  0.3723  0.0584
 1164PYPI   GL116625   5.439   5.267   6.625  0.2280  0.0234  0.0609
 1164PYPI   GL216626   5.485   5.652   6.747 -0.0981 -0.0617 -0.1222
 1164PYPI   C1A16627   5.347   5.181   6.981 -0.0524  0.0945 -0.2336
 1164PYPI   C2A16628   5.402   5.229   7.398  0.4162  0.0378 -0.1801
 1164PYPI   D3A16629   5.313   5.208   7.827  0.2328 -0.1459 -0.0351
 1164PYPI   C4A16630   5.443   5.641   8.056  0.1803  0.2418 -0.0304
 1164PYPI   C1B16631   5.557   5.784   7.092  0.0877  0.0230  0.0866
 1164PYPI   C2B16632   5.543   5.761   7.531  0.0278  0.3084  0.0845
 1164PYPI   C3B16633   5.598   6.150   7.832 -0.0583  0.0518 -0.1798
 1164PYPI   C4B16634   5.586   6.129   8.237 -0.1210  0.0361 -0.0005
 1165PYPI    C116635   8.970   8.677   6.080  0.1014 -0.0203  0.0963
 1165PYPI    C216636   8.814   8.368   5.880  0.0532  0.0568  0.0135
 1165PYPI    C316637   8.857   8.721   5.699 -0.0736  0.1519  0.1662
 1165PYPI   PO416638   8.917   8.677   6.292 -0.3762  0.0303  0.2078
 1165PYPI   GL116639   9.050   8.824   6.745 -0.0391 -0.1921 -0.0303
 1165PYPI   GL216640   9.405   8.872   6.798 -0.3373 -0.1461 -0.1318
 1165PYPI   C1A16641   8.734   8.633   7.103  0.1185 -0.2799 -0.0258
 1165PYPI   C2A16642   8.648   8.565   7.521 -0.2975 -0.0112  0.1575
 1165PYPI   D3A16643   8.876   8.626   7.890 -0.2300  0.0504  0.0316
 1165PYPI   C4A16644   8.826   8.632   8.365 -0.0650 -0.0592 -0.2679
 1165PYPI   C1B16645   9.244   8.809   7.233  0.0983  0.1642 -0.1889
 1165PYPI   C2B16646   9.276   8.837   7.677 -0.0092  0.0988 -0.2976
 1165PYPI   C3B16647   9.386   8.733   8.002 -0.0706 -0.1580  0.3204
 1165PYPI   C4B16648   9.459   8.765   8.364  0.1957 -0.2154 -0.0695
 1166PYPI    C116649  15.781  10.643   6.614  0.0870 -0.0130  0.1088
 1166PYPI    C216650  15.823  10.992   6.423  0.0271 -0.1665 -0.1919
 1166PYPI    C316651  15.996  10.662   6.277  0.1231 -0.2564  0.1162
 1166PYPI   PO416652  15.873  10.688   6.848 -0.0022 -0.3197 -0.0264
 1166PYPI   GL116653  16.002  10.761   7.236 -0.0664  0.4010  0.2049
 1166PYPI   GL216654  16.178  10.546   7.295  0.1875 -0.1414  0.1192
 1166PYPI   C1A16655  16.066  10.723   7.721 -0.1312 -0.0424  0.2171
 1166PYPI   C2A16656  16.179  10.759   8.188 -0.0758 -0.0437 -0.0631
 1166PYPI   D3A16657  16.034  10.840   8.635  0.1725 -0.0062 -0.1329
 1166PYPI   C4A16658  15.808  11.221   8.885 -0.1157 -0.0200  0.1544
 1166PYPI   C1B16659  16.285  10.285   7.492  0.0792 -0.0390 -0.0053
 1166PYPI   C2B16660  16.241  10.289   7.938  0.3417 -0.1896  0.1208
 1166PYPI   C3B16661  16.052  10.330   8.322 -0.0509 -0.1950 -0.0552
 1166PYPI   C4B16662  15.907  10.330   8.666  0.1450 -0.4462  0.1375
 1167PYPI    C116663  12.593   9.232   5.974  0.2810  0.2880  0.0679
 1167PYPI    C216664  12.873   9.235   5.688 -0.0688  0.0641 -0.2858
 1167PYPI    C316665  12.499   9.122   5.601 -0.2277  0.1759  0.2221
 1167PYPI   PO416666  12.721   9.140   6.145 -0.0856 -0.1560  0.0109
 1167PYPI   GL116667  12.894   9.047   6.484 -0.2444 -0.2084 -0.0380
 1167PYPI   GL216668  12.716   8.782   6.545 -0.1941  0.0301  0.1256
 1167PYPI   C1A16669  13.002   9.044   6.885  0.0703  0.0704 -0.2335
 1167PYPI   C2A16670  13.101   9.038   7.293  0.1028  0.3927 -0.0709
 1167PYPI   D3A16671  12.998   8.985   7.725 -0.0474 -0.0572  0.1263
 1167PYPI   C4A16672  13.015   8.891   8.155 -0.1478  0.0581 -0.0403
 1167PYPI   C1B16673  12.489   8.921   6.919  0.1320  0.1211  0.0416
 1167PYPI   C2B16674  12.578   8.934   7.366  0.0130  0.3063 -0.1579
 1167PYPI   C3B16675  12.531   8.746   7.855 -0.1486  0.0130  0.3902
 1167PYPI   C4B16676  12.512   8.867   8.312  0.2097  0.0503  0.1983
 1168PYPI    C116677   1.164  13.972   6.767  0.1891 -0.1490 -0.1859
 1168PYPI    C216678   1.369  14.213   6.522  0.1555  0.1087  0.0349
 1168PYPI    C316679   0.997  14.102   6.427  0.1419  0.2089 -0.0310
 1168PYPI   PO416680   1.211  14.020   6.995  0.1226 -0.1848 -0.0556
 1168PYPI   GL116681   1.235  13.741   7.436 -0.2251  0.0609 -0.3358
 1168PYPI   GL216682   1.450  13.952   7.428  0.0476 -0.2635  0.3323
 1168PYPI   C1A16683   0.935  13.587   7.680 -0.2805  0.1772  0.2356
 1168PYPI   C2A16684   1.020  13.600   8.125 -0.0372 -0.2113 -0.2348
 1168PYPI   D3A16685   1.020  13.347   8.570 -0.2479 -0.3376  0.2492
 1168PYPI   C4A16686   0.951  13.496   9.000  0.0189  0.2653  0.4688
 1168PYPI   C1B16687   1.318  13.929   7.889 -0.1923 -0.2645  0.0746
 1168PYPI   C2B16688   1.320  13.900   8.337 -0.0857 -0.0135 -0.1487
 1168PYPI   C3B16689   1.228  13.945   8.819  0.1224  0.0170 -0.1750
 1168PYPI   C4B16690   0.974  14.041   9.142 -0.1929  0.2362  0.2878
 1169PYPI    C116691  15.358  13.554   6.484  0.0955 -0.1507 -0.0497
 1169PYPI    C216692  15.219  13.464   6.120  0.0737 -0.0186 -0.0744
 1169PYPI    C316693  15.613  13.471   6.187  0.0769 -0.0770 -0.0865
 1169PYPI   PO416694  15.222  13.414   6.663  0.0819 -0.3614 -0.1037
 1169PYPI   GL116695  15.060  13.286   7.093 -0.0328  0.5222 -0.0836
 1169PYPI   GL216696  14.712  13.273   7.238  0.0488 -0.0258 -0.2739
 1169PYPI   C1A16697  15.078  13.362   7.495 -0.0901 -0.0151 -0.2851
 1169PYPI   C2A16698  15.035  13.355   7.917 -0.1802 -0.1652  0.1462
 1169PYPI   D3A16699  14.853  13.398   8.377 -0.3772  0.4275  0.1922
 1169PYPI   C4A16700  14.728  13.387   8.844 -0.0896 -0.1816 -0.0789
 1169PYPI   C1B16701  14.584  13.202   7.749 -0.2943 -0.1077 -0.1105
 1169PYPI   C2B16702  14.415  13.239   8.151 -0.4932 -0.0726  0.0296
 1169PYPI   C3B16703  14.318  13.291   8.572 -0.1403  0.2192  0.0879
 1169PYPI   C4B16704  14.276  13.394   8.995  0.0683  0.2429 -0.1611
 1170PYPI    C116705   2.264   0.087   6.836 -0.1734  0.1494 -0.3106
 1170PYPI    C216706   2.223  -0.311   6.847  0.3277  0.0915 -0.3042
 1170PYPI    C316707   2.146  -0.111   6.509 -0.0084  0.0038 -0.2832
 1170PYPI   PO416708   2.129   0.150   7.024 -0.2467 -0.3228  0.3203
 1170PYPI   GL116709   1.864  -0.027   7.361 -0.1522  0.2325  0.1180
 1170PYPI   GL216710   1.840   0.327   7.381  0.0450 -0.2220 -0.0500
 1170PYPI   C1A16711   1.694  -0.035   7.827 -0.2872  0.1229  0.0442
 1170PYPI   C2A16712   1.751   0.129   8.238 -0.1849  0.2577  0.1465
 1170PYPI   D3A16713   1.563   0.368   8.636  0.0488 -0.0379  0.3470
 1170PYPI   C4A16714   1.347   0.103   9.025 -0.0898  0.0208  0.2682
 1170PYPI   C1B16715   1.853   0.435   7.831  0.0106 -0.0246 -0.0231
 1170PYPI   C2B16716   1.713   0.636   8.238 -0.0196 -0.0606 -0.0692
 1170PYPI   C3B16717   1.785   0.783   8.626 -0.0621 -0.0935  0.0119
 1170PYPI   C4B16718   1.703   0.588   9.087 -0.2108 -0.0977 -0.0385
 1171PYPI    C116719  10.018   5.873   5.999 -0.0591 -0.0594 -0.0158
 1171PYPI    C216720   9.684   6.077   5.915 -0.0354 -0.1055 -0.2287
 1171PYPI    C316721   9.786   5.761   5.692  0.0816 -0.1722 -0.0821
 1171PYPI   PO416722  10.139   6.066   6.158 -0.1781  0.0506 -0.0254
 1171PYPI   GL116723  10.153   6.251   6.572  0.1396 -0.1034 -0.0919
 1171PYPI   GL216724   9.925   6.359   6.679 -0.0211  0.2284  0.0927
 1171PYPI   C1A16725  10.368   5.880   6.905 -0.1615 -0.0647 -0.0624
 1171PYPI   C2A16726  10.387   5.876   7.263 -0.1098 -0.1316  0.0696
 1171PYPI   D3A16727  10.318   5.767   7.610 -0.2444  0.2026  0.4820
 1171PYPI   C4A16728  10.394   5.791   8.004 -0.0192 -0.4074  0.1043
 1171PYPI   C1B16729  10.075   6.201   7.104  0.0351 -0.3430  0.1270
 1171PYPI   C2B16730  10.022   6.202   7.549 -0.2957  0.1286  0.3662
 1171PYPI   C3B16731   9.994   6.167   7.985  0.0060  0.2153 -0.0529
 1171PYPI   C4B16732   9.871   6.369   8.397 -0.1658 -0.0595  0.0189
 1172PYPI    C116733   8.244   4.504   6.154  0.0354  0.0069  0.2095
 1172PYPI    C216734   8.603   4.647   6.050 -0.0406 -0.0454 -0.1373
 1172PYPI    C316735   8.310   4.899   6.153  0.0627  0.0027  0.0433
 1172PYPI   PO416736   8.347   4.271   6.329  0.1006  0.3733 -0.1882
 1172PYPI   GL116737   8.426   4.167   6.709 -0.0781 -0.0476  0.0316
 1172PYPI   GL216738   8.235   3.875   6.795 -0.0588 -0.0640 -0.1188
 1172PYPI   C1A16739   8.457   4.200   7.150 -0.1259  0.1721 -0.0264
 1172PYPI   C2A16740   8.541   4.340   7.631  0.1996  0.0380  0.4010
 1172PYPI   D3A16741   8.524   4.525   8.007 -0.0055 -0.4280  0.0720
 1172PYPI   C4A16742   8.704   4.675   8.406 -0.0499  0.2348 -0.0030
 1172PYPI   C1B16743   8.378   3.702   7.125 -0.0221  0.2916 -0.1908
 1172PYPI   C2B16744   8.408   3.752   7.640 -0.0081 -0.1284  0.2375
 1172PYPI   C3B16745   8.431   3.787   8.152 -0.0120 -0.4617  0.0436
 1172PYPI   C4B16746   8.150   3.946   8.631 -0.1245  0.4507 -0.1262
 1173PYPI    C116747   6.955   3.764   6.131  0.2487  0.0010 -0.1360
 1173PYPI    C216748   6.834   3.990   5.824 -0.2686  0.0057  0.0613
 1173PYPI    C316749   7.154   3.754   5.784 -0.1671  0.2085 -0.3892
 1173PYPI   PO416750   6.989   3.857   6.301 -0.1184  0.0376 -0.1431
 1173PYPI   GL116751   6.934   3.845   6.704 -0.1141 -0.0549  0.0738
 1173PYPI   GL216752   7.024   4.167   6.755  0.2296 -0.2924  0.1550
 1173PYPI   C1A16753   6.974   3.877   7.128 -0.0741  0.0313  0.3443
 1173PYPI   C2A16754   7.025   3.943   7.567  0.2048  0.3954  0.0680
 1173PYPI   D3A16755   6.989   3.931   8.045 -0.0533  0.0320 -0.0802
 1173PYPI   C4A16756   7.198   3.771   8.351 -0.0290 -0.0979 -0.0112
 1173PYPI   C1B16757   7.042   4.416   7.133 -0.1544 -0.1555  0.1351
 1173PYPI   C2B16758   7.092   4.435   7.546  0.1119  0.1553 -0.0671
 1173PYPI   C3B16759   7.259   4.449   7.881  0.3171  0.1414 -0.0254
 1173PYPI   C4B16760   7.347   4.347   8.284 -0.1313  0.1497  0.0983
 1174PYPI    C116761  15.063  14.211   6.162 -0.0262 -0.0006 -0.0737
 1174PYPI    C216762  14.797  13.947   6.021 -0.0857 -0.0303  0.0911
 1174PYPI    C316763  15.000  14.182   5.768 -0.1812 -0.0911 -0.0433
 1174PYPI   PO416764  15.201  14.042   6.383  0.2876 -0.1325  0.3732
 1174PYPI   GL116765  15.115  13.920   6.803 -0.2054  0.0879 -0.2391
 1174PYPI   GL216766  14.846  13.825   6.908 -0.2487 -0.2163  0.1554
 1174PYPI   C1A16767  15.263  13.773   7.231  0.0827  0.1465  0.1011
 1174PYPI   C2A16768  15.177  13.821   7.746 -0.3008  0.4258 -0.0887
 1174PYPI   D3A16769  15.100  13.812   8.204 -0.0645  0.0566  0.0040
 1174PYPI   C4A16770  15.452  13.929   8.488 -0.0630 -0.0863  0.2811
 1174PYPI   C1B16771  14.762  13.749   7.356 -0.1056 -0.2277 -0.0287
 1174PYPI   C2B16772  14.600  13.706   7.864  0.0066 -0.2050  0.0974
 1174PYPI   C3B16773  14.476  13.779   8.232  0.2024 -0.1740  0.1721
 1174PYPI   C4B16774  14.376  13.764   8.646 -0.0237 -0.1037 -0.1006
 1175PYPI    C116775   7.213   6.405   6.330 -0.0327 -0.1818  0.1459
 1175PYPI    C216776   7.145   6.171   6.013 -0.0415  0.0372 -0.0163
 1175PYPI    C316777   7.093   6.566   5.984  0.0432  0.0682  0.2342
 1175PYPI   PO416778   7.108   6.254   6.520 -0.0915  0.0361 -0.1150
 1175PYPI   GL116779   6.960   6.345   6.861  0.2738 -0.3722 -0.0530
 1175PYPI   GL216780   6.751   6.660   6.871  0.0770  0.0196  0.1262
 1175PYPI   C1A16781   7.028   6.322   7.276 -0.0081 -0.2592  0.1947
 1175PYPI   C2A16782   6.967   6.328   7.705 -0.1746  0.3920  0.0111
 1175PYPI   D3A16783   6.943   6.415   8.104 -0.2635 -0.2473 -0.0778
 1175PYPI   C4A16784   6.931   6.763   8.401 -0.0032  0.2408 -0.1467
 1175PYPI   C1B16785   6.754   6.697   7.302  0.0538 -0.0769 -0.0656
 1175PYPI   C2B16786   6.526   6.643   7.739 -0.0700  0.0267 -0.0758
 1175PYPI   C3B16787   6.510   6.612   8.202 -0.0076 -0.1754 -0.0216
 1175PYPI   C4B16788   6.386   6.606   8.669 -0.0360  0.0042 -0.0842
 1176PYPI    C116789  10.695   8.280   6.425 -0.2433  0.0459 -0.0227
 1176PYPI    C216790  10.746   8.399   6.047 -0.1775  0.0986  0.0025
 1176PYPI    C316791  11.062   8.289   6.266 -0.1947  0.2342  0.0967
 1176PYPI   PO416792  10.541   8.095   6.490  0.2835 -0.0436  0.0711
 1176PYPI   GL116793  10.528   8.181   6.959  0.0019  0.0039  0.1068
 1176PYPI   GL216794  10.457   7.769   6.928  0.4468 -0.0678  0.1403
 1176PYPI   C1A16795  10.600   8.295   7.460  0.0857  0.2201  0.0660
 1176PYPI   C2A16796  10.529   8.195   7.917 -0.0806 -0.1714 -0.1602
 1176PYPI   D3A16797  10.515   8.197   8.339 -0.0338 -0.1973 -0.0861
 1176PYPI   C4A16798  10.561   8.656   8.580 -0.0037 -0.0386  0.1724
 1176PYPI   C1B16799  10.476   7.835   7.381  0.0412  0.0943  0.3422
 1176PYPI   C2B16800  10.408   7.688   7.813  0.0208 -0.0224  0.0095
 1176PYPI   C3B16801  10.314   7.700   8.308 -0.2693 -0.1754 -0.4417
 1176PYPI   C4B16802  10.126   7.623   8.706  0.3180 -0.3630 -0.2038
 1177PYPI    C116803  15.551   3.129   6.088  0.0001  0.0568 -0.1473
 1177PYPI    C216804  15.393   3.213   5.731  0.1067 -0.1237 -0.2385
 1177PYPI    C316805  15.775   3.303   5.806  0.0483  0.0341 -0.1231
 1177PYPI   PO416806  15.237   3.114   6.197  0.0069 -0.0618 -0.0718
 1177PYPI   GL116807  15.245   3.190   6.592 -0.1476  0.1671  0.0809
 1177PYPI   GL216808  15.249   3.511   6.710 -0.1732  0.1021  0.1752
 1177PYPI   C1A16809  15.228   2.971   6.966  0.0713 -0.2295 -0.0004
 1177PYPI   C2A16810  15.269   3.036   7.403  0.0931 -0.0758  0.0381
 1177PYPI   D3A16811  15.320   2.928   7.821  0.1701  0.3382 -0.0757
 1177PYPI   C4A16812  15.399   2.977   8.238 -0.0259 -0.0221  0.1934
 1177PYPI   C1B16813  15.417   3.440   7.105 -0.2168  0.0888  0.4589
 1177PYPI   C2B16814  15.477   3.524   7.481  0.0995  0.0067  0.1547
 1177PYPI   C3B16815  15.441   3.445   7.919  0.0050 -0.0767 -0.2661
 1177PYPI   C4B16816  15.560   3.438   8.360 -0.1697 -0.2260  0.0151
 1178PYPI    C116817  12.457   3.628   6.195 -0.3681 -0.1099  0.2757
 1178PYPI    C216818  12.173   3.582   5.917 -0.1333 -0.0434  0.0196
 1178PYPI    C316819  12.343   3.261   6.084 -0.1048 -0.0866 -0.0920
 1178PYPI   PO416820  12.337   3.767   6.414 -0.3795 -0.2688 -0.0077
 1178PYPI   GL116821  12.055   4.089   6.724 -0.1132 -0.1120  0.1563
 1178PYPI   GL216822  12.180   3.770   6.852 -0.3803  0.0110 -0.1491
 1178PYPI   C1A16823  12.222   4.354   7.035 -0.0196 -0.1432 -0.1085
 1178PYPI   C2A16824  12.340   4.421   7.489 -0.0420 -0.2836  0.3205
 1178PYPI   D3A16825  12.445   4.450   7.968 -0.1265 -0.0108 -0.2207
 1178PYPI   C4A16826  12.359   4.464   8.356 -0.1274 -0.2066 -0.0253
 1178PYPI   C1B16827  12.204   3.949   7.314 -0.1439 -0.4280  0.0094
 1178PYPI   C2B16828  12.258   3.967   7.669  0.2775 -0.0351 -0.0685
 1178PYPI   C3B16829  12.162   3.884   8.104  0.0695 -0.0460  0.2585
 1178PYPI   C4B16830  12.122   4.018   8.516  0.0271 -0.1788  0.0947
 1179PYPI    C116831  12.779   1.053   6.048 -0.0629  0.0353 -0.0558
 1179PYPI    C216832  12.679   0.707   6.220 -0.0229  0.0511 -0.0006
 1179PYPI    C316833  13.063   0.788   6.143 -0.0318  0.0855 -0.0084
 1179PYPI   PO416834  12.653   1.215   6.200 -0.0513 -0.0186 -0.0986
 1179PYPI   GL116835  12.434   1.241   6.446  0.1193 -0.2721  0.0754
 1179PYPI   GL216836  12.218   1.061   6.316 -0.1711 -0.1543 -0.0444
 1179PYPI   C1A16837  12.342   1.199   6.915 -0.1130 -0.0621  0.1615
 1179PYPI   C2A16838  12.362   1.186   7.358 -0.0837 -0.0423  0.0900
 1179PYPI   D3A16839  12.392   1.260   7.845 -0.1696 -0.0976  0.1393
 1179PYPI   C4A16840  12.357   1.034   8.135  0.2459  0.1045  0.2952
 1179PYPI   C1B16841  11.890   1.024   6.537  0.1054 -0.0676  0.4373
 1179PYPI   C2B16842  11.850   1.025   6.962 -0.0373 -0.0350  0.1209
 1179PYPI   C3B16843  11.883   1.056   7.384  0.2120  0.2761  0.3091
 1179PYPI   C4B16844  11.940   1.064   7.890 -0.0139  0.0741  0.0972
 1180ERGO   ROH16845  15.748  10.287   7.101 -0.0237  0.1865 -0.0554
 1180ERGO    R116846  15.826  10.228   7.366 -0.0648  0.1523 -0.0516
 1180ERGO    R216847  15.791  10.406   7.575 -0.2127  0.0753 -0.0126
 1180ERGO    R316848  15.661  10.196   7.689 -0.1352 -0.0242 -0.1028
 1180ERGO    R416849  15.734  10.370   7.914 -0.1808 -0.1009 -0.0241
 1180ERGO    R516850  15.779  10.158   7.894 -0.1085 -0.0790 -0.1263
 1180ERGO    C116851  15.578  10.153   8.219 -0.0895 -0.2968 -0.1153
 1180ERGO    C216852  15.447  10.152   8.541  0.1950  0.1489  0.0482
 1181ERGO   ROH16853   2.569  12.272   7.262  0.2116  0.1131 -0.0012
 1181ERGO    R116854   2.592  12.125   7.503  0.3753  0.0676 -0.0435
 1181ERGO    R216855   2.813  12.142   7.667  0.2599  0.4560  0.0835
 1181ERGO    R316856   2.628  12.201   7.857  0.0273  0.0174  0.0057
 1181ERGO    R416857   2.871  12.135   8.008  0.0879  0.4630  0.1137
 1181ERGO    R516858   2.673  12.046   8.034  0.2470  0.0470 -0.0230
 1181ERGO    C116859   2.730  12.186   8.385 -0.2306  0.0553  0.0583
 1181ERGO    C216860   2.665  12.210   8.791 -0.0292  0.0274  0.0410
 1182ERGO   ROH16861  10.933  15.280   6.697  0.0631 -0.1168  0.0011
 1182ERGO    R116862  10.961  15.449   6.922  0.1257 -0.1461  0.0137
 1182ERGO    R216863  10.750  15.510   7.090  0.1280  0.0049 -0.0509
 1182ERGO    R316864  10.919  15.419   7.282  0.0012 -0.1217  0.0044
 1182ERGO    R416865  10.716  15.571   7.428  0.2025  0.2830 -0.0900
 1182ERGO    R516866  10.932  15.598   7.440  0.2568 -0.0217 -0.1121
 1182ERGO    C116867  10.854  15.521   7.806  0.1268  0.3260 -0.0609
 1182ERGO    C216868  10.831  15.654   8.036 -0.0284  0.4382 -0.1138
 1183ERGO   ROH16869  11.468   2.273   6.409  0.0606 -0.1140  0.0539
 1183ERGO    R116870  11.362   2.376   6.650 -0.0722 -0.0610 -0.0262
 1183ERGO    R216871  11.204   2.225   6.820  0.0991 -0.1259  0.0745
 1183ERGO    R316872  11.389   2.299   7.005  0.0049  0.2304  0.0352
 1183ERGO    R416873  11.164   2.194   7.162  0.1773 -0.0950  0.0866
 1183ERGO    R516874  11.260   2.388   7.186 -0.1313  0.0760  0.0208
 1183ERGO    C116875  11.315   2.244   7.534  0.1344  0.2574  0.0568
 1183ERGO    C216876  11.393   2.226   7.903 -0.1701 -0.0442 -0.2193
 1184ERGO   ROH16877   9.314   6.286   6.623  0.0095  0.1494  0.0088
 1184ERGO    R116878   9.383   6.108   6.831  0.0077  0.0630 -0.0644
 1184ERGO    R216879   9.543   6.183   7.044  0.0619 -0.0449 -0.0687
 1184ERGO    R316880   9.334   6.090   7.191  0.0692 -0.0497 -0.0605
 1184ERGO    R416881   9.555   6.117   7.383  0.0082  0.1992 -0.0170
 1184ERGO    R516882   9.435   5.938   7.347  0.1086  0.1093  0.0739
 1184ERGO    C116883   9.366   5.991   7.719 -0.0163  0.3368  0.0207
 1184ERGO    C216884   9.476   6.057   8.007  0.1747 -0.1191  0.0448
 1185ERGO   ROH16885  16.024   6.530   7.360  0.0957  0.0530 -0.0693
 1185ERGO    R116886  16.166   6.464   7.596  0.0643  0.0918 -0.0394
 1185ERGO    R216887  16.107   6.577   7.841 -0.0981 -0.0137 -0.0285
 1185ERGO    R316888  16.088   6.317   7.919  0.0598 -0.0495 -0.1036
 1185ERGO    R416889  16.051   6.471   8.166  0.0626 -0.1442 -0.0418
 1185ERGO    R516890  16.195   6.311   8.133  0.1346 -0.0623 -0.1404
 1185ERGO    C116891  16.000   6.166   8.428  0.3044 -0.2537 -0.1200
 1185ERGO    C216892  15.895   6.084   8.693  0.0533  0.0308 -0.3125
 1186ERGO   ROH16893   8.064   4.685   6.560  0.0890 -0.0339 -0.1430
 1186ERGO    R116894   8.047   4.616   6.834  0.0346  0.0370 -0.1298
 1186ERGO    R216895   8.265   4.622   7.003  0.0414 -0.1202 -0.1405
 1186ERGO    R316896   8.105   4.782   7.153  0.1863  0.0504 -0.1622
 1186ERGO    R416897   8.280   4.648   7.347  0.1275 -0.0200 -0.1499
 1186ERGO    R516898   8.061   4.654   7.351  0.1274  0.1430 -0.1109
 1186ERGO    C116899   8.137   4.814   7.689  0.3137  0.1985 -0.1758
 1186ERGO    C216900   8.278   4.964   7.992  0.2640  0.1802  0.2419
 1187ERGO   ROH16901   1.287  13.148   7.025 -0.1646 -0.1049  0.0444
 1187ERGO    R116902   1.270  13.244   7.290 -0.0110 -0.0265  0.0272
 1187ERGO    R216903   1.076  13.159   7.467 -0.0511  0.1965  0.0950
 1187ERGO    R316904   1.290  13.101   7.625 -0.0653  0.0310  0.0549
 1187ERGO    R416905   1.066  13.131   7.812 -0.0420  0.0295  0.0823
 1187ERGO    R516906   1.258  13.235   7.820  0.0008 -0.0528  0.1234
 1187ERGO    C116907   1.262  13.061   8.160 -0.0500 -0.2231  0.0374
 1187ERGO    C216908   1.364  13.041   8.460  0.0254  0.0344  0.2106
 1188ERGO   ROH16909   5.107   9.597   7.131 -0.0826  0.1895  0.0569
 1188ERGO    R116910   5.074   9.704   7.391 -0.0255  0.1744  0.0708
 1188ERGO    R216911   5.204   9.601   7.612 -0.1122  0.0488  0.0657
 1188ERGO    R316912   5.287   9.859   7.642  0.0671 -0.0128  0.1089
 1188ERGO    R416913   5.323   9.737   7.907 -0.3041 -0.0031  0.1683
 1188ERGO    R516914   5.212   9.919   7.862 -0.1107  0.0814  0.0241
 1188ERGO    C116915   5.470  10.057   8.107 -0.2476 -0.0911  0.2686
 1188ERGO    C216916   5.761  10.135   8.288 -0.0692 -0.1748 -0.0109
 1189ERGO   ROH16917   5.569   1.239   7.072  0.0049 -0.1502  0.0107
 1189ERGO    R116918   5.415   1.202   7.307 -0.0329 -0.1845 -0.0224
 1189ERGO    R216919   5.472   1.007   7.494  0.0454 -0.0857  0.0387
 1189ERGO    R316920   5.473   1.218   7.666 -0.1467 -0.0440 -0.0051
 1189ERGO    R416921   5.405   0.987   7.833  0.3633 -0.1553  0.1034
 1189ERGO    R516922   5.292   1.172   7.817  0.0381 -0.3235  0.1581
 1189ERGO    C116923   5.366   1.173   8.191  0.3682 -0.1567  0.0999
 1189ERGO    C216924   5.467   0.924   8.425  0.0144  0.0316 -0.1179
 1190ERGO   ROH16925   0.168  11.345   7.440 -0.2903  0.1356  0.0681
 1190ERGO    R116926   0.232  11.422   7.705 -0.3282  0.2124  0.0549
 1190ERGO    R216927   0.039  11.482   7.893 -0.3702 -0.1311  0.1269
 1190ERGO    R316928   0.170  11.294   8.040 -0.0035  0.0641  0.0621
 1190ERGO    R416929   0.061  11.482   8.238 -0.2507 -0.1364  0.1199
 1190ERGO    R516930   0.269  11.418   8.219 -0.1456  0.2107  0.0417
 1190ERGO    C116931   0.197  11.305   8.576  0.1631  0.0437  0.0552
 1190ERGO    C216932   0.046  11.438   8.879 -0.3689 -0.3038 -0.1592
 1191ERGO   ROH16933   0.452  17.082   7.277  0.0608 -0.2400  0.0813
 1191ERGO    R116934   0.300  17.174   7.497  0.1831 -0.0079  0.0696
 1191ERGO    R216935   0.158  17.004   7.663 -0.1837  0.2122 -0.0140
 1191ERGO    R316936   0.301  17.128   7.858  0.0090 -0.1122  0.0596
 1191ERGO    R416937   0.057  17.036   7.992 -0.0952  0.0885  0.0269
 1191ERGO    R516938   0.137  17.239   7.991  0.1633 -0.0018  0.1684
 1191ERGO    C116939   0.133  17.171   8.366  0.1372 -0.2880  0.1199
 1191ERGO    C216940  -0.008  17.250   8.637 -0.2198 -0.0951  0.0833
 1192ERGO   ROH16941  10.928  14.215  10.948 -0.0927 -0.1507  0.0144
 1192ERGO    R116942  10.940  14.031  10.733 -0.0607 -0.0967 -0.0313
 1192ERGO    R216943  10.772  14.046  10.515 -0.1333 -0.1330  0.0172
 1192ERGO    R316944  11.005  14.046  10.375 -0.1714  0.0201 -0.0460
 1192ERGO    R416945  10.801  13.965  10.180 -0.1304 -0.3643  0.0719
 1192ERGO    R516946  10.986  13.859  10.227  0.0017 -0.1185  0.1067
 1192ERGO    C116947  11.036  13.919   9.854 -0.1645 -0.3552  0.0443
 1192ERGO    C216948  11.065  14.009   9.465  0.5080  0.1772 -0.2485
 1193ERGO   ROH16949   3.416  13.705   7.307  0.0002  0.1478  0.0138
 1193ERGO    R116950   3.420  13.709   7.590 -0.1728 -0.1784  0.0236
 1193ERGO    R216951   3.419  13.478   7.742  0.2932 -0.3713 -0.2642
 1193ERGO    R316952   3.642  13.588   7.852 -0.0233  0.0381  0.0041
 1193ERGO    R416953   3.545  13.399   8.054  0.3845 -0.6294 -0.3609
 1193ERGO    R516954   3.589  13.610   8.084 -0.1864 -0.5334  0.0468
 1193ERGO    C116955   3.827  13.457   8.339  0.1405 -0.3953 -0.1653
 1193ERGO    C216956   3.707  13.158   8.526 -0.0695  0.0076 -0.2764
 1194ERGO   ROH16957   1.273  11.857   7.354  0.1360  0.1000 -0.0516
 1194ERGO    R116958   1.274  12.002   7.597  0.0809  0.1500 -0.0809
 1194ERGO    R216959   1.061  12.161   7.676 -0.0279 -0.0012 -0.0607
 1194ERGO    R316960   1.074  12.009   7.901  0.1490  0.0514 -0.0338
 1194ERGO    R416961   0.990  12.274   7.995 -0.0099  0.0095 -0.0607
 1194ERGO    R516962   1.159  12.157   8.068  0.0951  0.1441 -0.0891
 1194ERGO    C116963   0.961  12.197   8.392  0.1667  0.0650 -0.0353
 1194ERGO    C216964   0.825  12.216   8.601 -0.1631 -0.2683 -0.3284
 1195ERGO   ROH16965   9.238  11.255   6.698  0.1624 -0.0013 -0.0342
 1195ERGO    R116966   9.205  11.319   6.972  0.1131  0.1101 -0.0659
 1195ERGO    R216967   9.103  11.140   7.156 -0.1051  0.2484 -0.0468
 1195ERGO    R316968   9.333  11.196   7.290 -0.1054  0.0999  0.0191
 1195ERGO    R416969   9.142  11.118   7.498 -0.1390 -0.0014 -0.0567
 1195ERGO    R516970   9.260  11.301   7.492 -0.0964 -0.0257  0.0863
 1195ERGO    C116971   9.381  11.158   7.824 -0.1590 -0.2863 -0.0006
 1195ERGO    C216972   9.369  11.252   8.141  0.1164  0.2310 -0.1978
 1196ERGO   ROH16973  16.928   3.624   6.867  0.1759  0.0957 -0.0256
 1196ERGO    R116974  17.028   3.780   7.081  0.0875  0.0375  0.0592
 1196ERGO    R216975  16.862   3.905   7.265  0.0116 -0.0389  0.0468
 1196ERGO    R316976  17.013   3.768   7.445 -0.0338 -0.0830  0.0505
 1196ERGO    R416977  16.838   3.935   7.608  0.1054  0.0634  0.0447
 1196ERGO    R516978  17.054   3.925   7.620  0.0996 -0.0649  0.0010
 1196ERGO    C116979  16.966   3.824   7.977  0.1173  0.0816  0.0468
 1196ERGO    C216980  16.970   3.728   8.267  0.4343 -0.0454  0.1901
 1197ERGO   ROH16981  13.541  16.227   6.739  0.1935 -0.2262  0.0805
 1197ERGO    R116982  13.433  16.271   6.997  0.2390 -0.0234  0.0669
 1197ERGO    R216983  13.340  16.066   7.156 -0.1513  0.1405  0.0633
 1197ERGO    R316984  13.512  16.172   7.338  0.0237 -0.1602  0.0786
 1197ERGO    R416985  13.299  16.053   7.499 -0.0695 -0.0035  0.0684
 1197ERGO    R516986  13.372  16.258   7.511  0.1719 -0.0925  0.1655
 1197ERGO    C116987  13.437  16.145   7.869  0.1426 -0.3697  0.0857
 1197ERGO    C216988  13.390  16.282   8.204 -0.2263 -0.0130  0.0294
 1198ERGO   ROH16989  10.925   0.916   6.092 -0.0457  0.0709 -0.1203
 1198ERGO    R116990  10.825   0.839   6.345 -0.0460  0.0321 -0.1331
 1198ERGO    R216991  10.950   0.650   6.503 -0.0159  0.0516 -0.1390
 1198ERGO    R316992  10.942   0.847   6.690 -0.0738  0.0352 -0.1228
 1198ERGO    R416993  10.909   0.599   6.843  0.1394 -0.0022 -0.1271
 1198ERGO    R516994  10.778   0.773   6.848  0.0280 -0.0832 -0.0680
 1198ERGO    C116995  10.878   0.754   7.216  0.1755 -0.0489 -0.1049
 1198ERGO    C216996  10.945   0.738   7.585 -0.0148  0.0680 -0.5033
 1199ERGO   ROH16997  14.967   0.577  10.943 -0.0404 -0.1520 -0.0859
 1199ERGO    R116998  14.982   0.511  10.668 -0.0782 -0.0939 -0.1018
 1199ERGO    R216999  14.768   0.541  10.496 -0.0405  0.1404 -0.1100
 1199ERGO    R317000  14.946   0.688  10.352  0.1004  0.0221 -0.0592
 1199ERGO    R417001  14.770   0.567  10.151  0.0215  0.2087 -0.1049
 1199ERGO    R517002  14.988   0.556  10.157  0.0134  0.0257 -0.0810
 1199ERGO    C117003  14.939   0.719   9.815  0.1898  0.1375 -0.0543
 1199ERGO    C217004  15.087   0.734   9.583  0.0411 -0.1147  0.0587
 1200ERGO   ROH17005  10.958   9.759   6.548  0.0353  0.1494  0.0713
 1200ERGO    R117006  10.992   9.878   6.803 -0.0535  0.1654  0.0756
 1200ERGO    R217007  10.783   9.914   6.980 -0.0811  0.0055  0.0735
 1200ERGO    R317008  10.945   9.778   7.149  0.0170  0.1186  0.0727
 1200ERGO    R417009  10.757   9.920   7.324 -0.1860 -0.1286  0.0693
 1200ERGO    R517010  10.975   9.926   7.335 -0.1898  0.0957  0.1297
 1200ERGO    C117011  10.895   9.796   7.684 -0.1548 -0.1003  0.0662
 1200ERGO    C217012  10.827   9.942   7.955 -0.1433  0.1914 -0.1533
 1201ERGO   ROH17013  11.813  11.261   6.830 -0.1871 -0.0180  0.0057
 1201ERGO    R117014  11.694  11.280   7.086 -0.1758 -0.1055  0.0176
 1201ERGO    R217015  11.590  11.062   7.219  0.0864 -0.2014  0.0703
 1201ERGO    R317016  11.756  11.143   7.418  0.0233  0.0214  0.0351
 1201ERGO    R417017  11.567  10.962   7.549  0.1328 -0.0303  0.1267
 1201ERGO    R517018  11.614  11.166   7.609 -0.0038  0.0371  0.0141
 1201ERGO    C117019  11.710  10.980   7.928  0.1006  0.2787  0.1265
 1201ERGO    C217020  11.667  10.938   8.215  0.2437 -0.0196 -0.1152
 1202ERGO   ROH17021   5.933   5.525   6.930  0.0918  0.0979 -0.0657
 1202ERGO    R117022   5.846   5.424   7.179  0.0585  0.0496 -0.0962
 1202ERGO    R217023   6.005   5.265   7.339  0.0437  0.0297 -0.0977
 1202ERGO    R317024   5.949   5.454   7.527  0.0040 -0.0039 -0.0760
 1202ERGO    R417025   5.995   5.207   7.680  0.0470 -0.0088 -0.1043
 1202ERGO    R517026   5.820   5.337   7.692  0.0239 -0.0452 -0.0921
 1202ERGO    C117027   5.937   5.350   8.055  0.0117 -0.0628 -0.0877
 1202ERGO    C217028   5.922   5.401   8.437  0.4240  0.2034 -0.2319
 1203ERGO   ROH17029  14.739   4.412   6.700  0.1698  0.2128  0.0337
 1203ERGO    R117030  14.820   4.562   6.926 -0.0244  0.2472  0.0837
 1203ERGO    R217031  14.642   4.699   7.087 -0.2029 -0.0036  0.1097
 1203ERGO    R317032  14.759   4.554   7.285 -0.0498  0.0729  0.0756
 1203ERGO    R417033  14.627   4.775   7.424 -0.1246 -0.0008  0.1122
 1203ERGO    R517034  14.836   4.718   7.441 -0.0878  0.1206  0.0411
 1203ERGO    C117035  14.729   4.684   7.805  0.0646  0.0726  0.0816
 1203ERGO    C217036  14.831   4.681   8.214 -0.3304  0.0845  0.1940
 1204ERGO   ROH17037   1.036   8.646   7.041  0.1988  0.1088 -0.0794
 1204ERGO    R117038   0.974   8.514   7.284  0.0123  0.1901 -0.0817
 1204ERGO    R217039   1.160   8.473   7.484 -0.0341 -0.0993 -0.0913
 1204ERGO    R317040   0.975   8.598   7.638  0.1568  0.1769 -0.0793
 1204ERGO    R417041   1.103   8.406   7.818 -0.1063 -0.0004 -0.0837
 1204ERGO    R517042   0.890   8.426   7.781 -0.0824  0.3065 -0.0647
 1204ERGO    C117043   0.896   8.486   8.158  0.0309  0.3165 -0.0680
 1204ERGO    C217044   1.089   8.569   8.507 -0.3199  0.1665  0.2469
 1205ERGO   ROH17045   0.416   9.941   7.507 -0.2433  0.2892  0.0712
 1205ERGO    R117046   0.307   9.877   7.760 -0.1043  0.0165  0.0667
 1205ERGO    R217047   0.407   9.674   7.918  0.2105  0.0735 -0.0512
 1205ERGO    R317048   0.424   9.872   8.104 -0.0208  0.0119  0.0385
 1205ERGO    R417049   0.428   9.622   8.259  0.4583 -0.0691 -0.0862
 1205ERGO    R517050   0.293   9.791   8.288  0.1936 -0.2974  0.0640
 1205ERGO    C117051   0.457   9.777   8.633  0.3855 -0.2100 -0.0225
 1205ERGO    C217052   0.483   9.657   8.941  0.0140  0.0518  0.4240
 1206ERGO   ROH17053   1.900   7.816   7.511 -0.2953  0.4985  0.0241
 1206ERGO    R117054   1.787   7.738   7.758 -0.0720  0.2053  0.0395
 1206ERGO    R217055   1.935   7.623   7.961  0.1824  0.2844 -0.1023
 1206ERGO    R317056   1.831   7.826   8.109 -0.0153  0.0638  0.0692
 1206ERGO    R417057   1.851   7.600   8.295  0.0562 -0.1272 -0.1570
 1206ERGO    R517058   1.673   7.718   8.253 -0.0082 -0.1988 -0.1073
 1206ERGO    C117059   1.704   7.776   8.629 -0.2028 -0.5740 -0.0278
 1206ERGO    C217060   1.593   7.987   8.948  0.0964  0.0804 -0.0294
 1207ERGO   ROH17061   8.485   9.941   6.793  0.0056 -0.0431  0.0536
 1207ERGO    R117062   8.494  10.086   7.036 -0.1272 -0.0089  0.0383
 1207ERGO    R217063   8.344  10.015   7.257 -0.0876 -0.1039  0.0331
 1207ERGO    R317064   8.585  10.017   7.382 -0.0977  0.1020  0.0533
 1207ERGO    R417065   8.388   9.998   7.599 -0.1054  0.0407  0.0438
 1207ERGO    R517066   8.547  10.146   7.581 -0.2030  0.1445  0.0079
 1207ERGO    C117067   8.641   9.989   7.916 -0.1253  0.3182  0.0690
 1207ERGO    C217068   8.537  10.029   8.232  0.1212 -0.1552 -0.3058
 1208ERGO   ROH17069   6.103   8.419   6.814  0.1141 -0.4182 -0.0494
 1208ERGO    R117070   6.068   8.432   7.095  0.0144 -0.2577 -0.0687
 1208ERGO    R217071   6.075   8.208   7.257  0.0753 -0.1506  0.0739
 1208ERGO    R317072   6.265   8.350   7.390 -0.0416  0.0295  0.0539
 1208ERGO    R417073   6.124   8.200   7.599  0.2458 -0.2727  0.0481
 1208ERGO    R517074   6.158   8.415   7.594 -0.0364 -0.2174  0.1425
 1208ERGO    C117075   6.331   8.328   7.923  0.2352 -0.1749  0.0143
 1208ERGO    C217076   6.240   8.395   8.249 -0.0935 -0.0393  0.0451
 1209ERGO   ROH17077   0.052   9.252   6.891  0.0425  0.0719  0.1561
 1209ERGO    R117078  -0.065   9.125   7.115  0.0175  0.0568  0.1342
 1209ERGO    R217079   0.067   8.933   7.263  0.0095  0.0652  0.1497
 1209ERGO    R317080   0.006   9.097   7.470 -0.0376  0.0537  0.1457
 1209ERGO    R417081   0.042   8.832   7.593  0.0253  0.0607  0.1497
 1209ERGO    R517082  -0.131   8.963   7.614 -0.0095  0.0191  0.1428
 1209ERGO    C117083  -0.029   8.928   7.980 -0.0098  0.0471  0.1458
 1209ERGO    C217084  -0.122   8.753   8.183  0.1141  0.1340  0.1284
 1210ERGO   ROH17085  10.778   5.539   6.311  0.1153 -0.1899  0.2382
 1210ERGO    R117086  10.669   5.459   6.559  0.0940 -0.2695  0.2028
 1210ERGO    R217087  10.821   5.343   6.757  0.1341 -0.0845  0.2787
 1210ERGO    R317088  10.720   5.544   6.910 -0.1399 -0.1681  0.2144
 1210ERGO    R417089  10.797   5.334   7.102  0.4369  0.1101  0.3099
 1210ERGO    R517090  10.601   5.430   7.085  0.2234 -0.2860  0.3963
 1210ERGO    C117091  10.687   5.517   7.446  0.3559  0.1449  0.2678
 1210ERGO    C217092  10.760   5.493   7.782 -0.0252 -0.0797  0.2795
 1211ERGO   ROH17093   4.968   7.125   7.053 -0.0657 -0.0506  0.0201
 1211ERGO    R117094   4.950   7.186   7.329  0.1998 -0.1858  0.0746
 1211ERGO    R217095   4.710   7.192   7.465  0.2168  0.4561  0.1535
 1211ERGO    R317096   4.836   7.016   7.630 -0.2449 -0.0755 -0.0340
 1211ERGO    R417097   4.667   7.176   7.808  0.3902  0.3357  0.1675
 1211ERGO    R517098   4.881   7.142   7.828  0.2900 -0.3718  0.0282
 1211ERGO    C117099   4.760   7.002   8.162  0.0577 -0.2335 -0.0002
 1211ERGO    C217100   4.777   6.994   8.586  0.1779  0.2849 -0.0022
 1212ERGO   ROH17101   9.304   7.345   6.661 -0.0593 -0.0393 -0.0861
 1212ERGO    R117102   9.430   7.435   6.899  0.0255 -0.0652 -0.1176
 1212ERGO    R217103   9.313   7.620   7.068  0.0838 -0.0704 -0.0502
 1212ERGO    R317104   9.356   7.428   7.255  0.1390 -0.1012 -0.0983
 1212ERGO    R417105   9.360   7.679   7.405  0.0740 -0.1629 -0.0346
 1212ERGO    R517106   9.514   7.526   7.406  0.1061 -0.1109 -0.0739
 1212ERGO    C117107   9.429   7.533   7.777  0.1201 -0.2458 -0.0705
 1212ERGO    C217108   9.393   7.438   8.060 -0.0689  0.1866 -0.0781
 1213ERGO   ROH17109   3.380   0.403   7.437 -0.1185 -0.0793 -0.1274
 1213ERGO    R117110   3.323   0.297   7.694 -0.1327  0.0265 -0.0879
 1213ERGO    R217111   3.494   0.328   7.909 -0.0670 -0.0301 -0.1389
 1213ERGO    R317112   3.272   0.430   8.029  0.0270  0.1467 -0.1081
 1213ERGO    R417113   3.459   0.380   8.249 -0.0636 -0.2557 -0.1017
 1213ERGO    R517114   3.254   0.308   8.234 -0.1572 -0.0006 -0.2032
 1213ERGO    C117115   3.230   0.506   8.559  0.0266 -0.2210 -0.0510
 1213ERGO    C217116   3.092   0.547   8.939 -0.1077  0.2004 -0.0579
 1214ERGO   ROH17117   8.204  17.076   6.817  0.2330  0.0365  0.0221
 1214ERGO    R117118   8.373  17.077   7.045  0.1890 -0.0649  0.0549
 1214ERGO    R217119   8.393  17.294   7.214  0.2884 -0.0775  0.0550
 1214ERGO    R317120   8.330  17.110   7.404  0.1408 -0.0367  0.0476
 1214ERGO    R417121   8.471  17.322   7.550  0.3559 -0.1674  0.0475
 1214ERGO    R517122   8.519  17.110   7.552  0.1630 -0.2173  0.0255
 1214ERGO    C117123   8.458  17.166   7.924  0.2565 -0.1814  0.0362
 1214ERGO    C217124   8.552  17.140   8.165  0.0135  0.1925  0.1531
 1215ERGO   ROH17125   6.734  10.979   6.864 -0.0030  0.1795  0.2339
 1215ERGO    R117126   6.751  11.048   7.139 -0.1438  0.1304  0.2525
 1215ERGO    R217127   6.591  10.930   7.331  0.0287 -0.1812  0.1921
 1215ERGO    R317128   6.830  10.876   7.450  0.1045  0.1738  0.2199
 1215ERGO    R417129   6.638  10.887   7.671 -0.0907 -0.6769  0.1562
 1215ERGO    R517130   6.824  11.000   7.655 -0.3254 -0.1839  0.4534
 1215ERGO    C117131   6.889  10.811   7.980 -0.0890 -0.6322  0.1613
 1215ERGO    C217132   6.987  10.803   8.399  0.0549 -0.1881  0.0483
 1216ERGO   ROH17133   6.629   9.980   6.826  0.0493 -0.2331 -0.0442
 1216ERGO    R117134   6.570  10.024   7.100 -0.0352 -0.1267 -0.0799
 1216ERGO    R217135   6.468   9.826   7.264  0.0055 -0.0869 -0.0151
 1216ERGO    R317136   6.682   9.889   7.419 -0.0606  0.0710  0.0154
 1216ERGO    R417137   6.472   9.817   7.609  0.0185 -0.2991 -0.0186
 1216ERGO    R517138   6.588  10.001   7.608 -0.1947 -0.1539  0.0904
 1216ERGO    C117139   6.676   9.871   7.956 -0.0360 -0.2744  0.0082
 1216ERGO    C217140   6.743   9.815   8.348  0.3954  0.3432 -0.2553
 1217ERGO   ROH17141   2.750   1.509   7.024 -0.1018 -0.0117  0.1178
 1217ERGO    R117142   2.713   1.665   7.258  0.0787  0.0017  0.1387
 1217ERGO    R217143   2.501   1.627   7.431 -0.0238  0.2860  0.0812
 1217ERGO    R317144   2.698   1.605   7.616 -0.0942 -0.0474  0.1241
 1217ERGO    R417145   2.460   1.678   7.770 -0.0913 -0.0474  0.1271
 1217ERGO    R517146   2.652   1.780   7.773 -0.0209 -0.1806  0.2970
 1217ERGO    C117147   2.622   1.687   8.142 -0.1966 -0.5545  0.1940
 1217ERGO    C217148   2.582   1.658   8.520 -0.1430 -0.0907  0.0509
 1218ERGO   ROH17149   3.027  14.630   7.406 -0.0230 -0.1393  0.1007
 1218ERGO    R117150   3.087  14.525   7.662 -0.0002 -0.0882  0.1162
 1218ERGO    R217151   3.272  14.641   7.831  0.0500 -0.0834  0.0552
 1218ERGO    R317152   3.065  14.639   8.007  0.0811 -0.0003  0.0933
 1218ERGO    R417153   3.301  14.577   8.169  0.0968 -0.0577  0.0562
 1218ERGO    R517154   3.116  14.461   8.158  0.0561 -0.0028  0.1019
 1218ERGO    C117155   3.123  14.539   8.531  0.1532  0.0352  0.0927
 1218ERGO    C217156   2.961  14.630   8.841  0.2402 -0.1805  0.0630
 1219ERGO   ROH17157  14.141  16.104   6.697 -0.0080  0.3155  0.0042
 1219ERGO    R117158  14.151  15.948   6.934 -0.1328  0.2175 -0.0539
 1219ERGO    R217159  14.363  15.960   7.111 -0.1341 -0.0021 -0.0374
 1219ERGO    R317160  14.167  16.013   7.292 -0.1064  0.0697 -0.0271
 1219ERGO    R417161  14.409  15.984   7.453 -0.0969  0.0187 -0.0435
 1219ERGO    R517162  14.222  15.877   7.481 -0.1262  0.0712 -0.0180
 1219ERGO    C117163  14.252  16.047   7.821 -0.0493  0.0982 -0.0375
 1219ERGO    C217164  14.325  15.979   8.079  0.1281 -0.1901  0.4424
 1220ERGO   ROH17165  11.139  15.606   6.428  0.1949 -0.1742  0.0962
 1220ERGO    R117166  11.102  15.817   6.614  0.1047 -0.1173  0.0162
 1220ERGO    R217167  10.864  15.857   6.749  0.0619 -0.1248 -0.0475
 1220ERGO    R317168  11.024  15.846   6.968  0.0196 -0.0159 -0.0118
 1220ERGO    R417169  10.781  15.983   7.060 -0.0105 -0.0164 -0.1107
 1220ERGO    R517170  10.986  16.055   7.080 -0.0286  0.0187 -0.0987
 1220ERGO    C117171  10.883  16.046   7.447 -0.0924  0.1489 -0.1139
 1220ERGO    C217172  10.889  16.036   7.785 -0.0894 -0.2870  0.3786
 1221ERGO   ROH17173   1.469   2.460   6.886 -0.2894  0.1359 -0.1932
 1221ERGO    R117174   1.323   2.440   7.128 -0.1993  0.0434 -0.1455
 1221ERGO    R217175   1.306   2.206   7.273  0.0659  0.0531 -0.0950
 1221ERGO    R317176   1.397   2.362   7.475 -0.0203  0.1779 -0.1512
 1221ERGO    R417177   1.229   2.162   7.606  0.3046 -0.0427 -0.0504
 1221ERGO    R517178   1.212   2.378   7.626  0.0372 -0.0578 -0.0493
 1221ERGO    C117179   1.269   2.283   7.991  0.3626  0.0188 -0.0773
 1221ERGO    C217180   1.263   2.236   8.370  0.0641  0.1835  0.0626
 1222ERGO   ROH17181   9.223   8.335   6.745  0.1821 -0.1071  0.1193
 1222ERGO    R117182   9.117   8.324   7.007  0.1635 -0.1357  0.1105
 1222ERGO    R217183   9.159   8.109   7.176  0.3140 -0.0695  0.1586
 1222ERGO    R317184   9.250   8.301   7.345  0.1475  0.0372  0.1296
 1222ERGO    R417185   9.141   8.093   7.520  0.2162  0.0246  0.1585
 1222ERGO    R517186   9.089   8.304   7.523  0.0891 -0.0041  0.0785
 1222ERGO    C117187   9.216   8.264   7.880  0.0029  0.1795  0.1312
 1222ERGO    C217188   9.167   8.294   8.240  0.1387 -0.1247  0.1572
 1223ERGO   ROH17189  11.428   6.305   6.678 -0.2875 -0.1228 -0.1146
 1223ERGO    R117190  11.348   6.183   6.921 -0.0941 -0.2252 -0.1015
 1223ERGO    R217191  11.526   6.055   7.088  0.1325  0.1611 -0.0427
 1223ERGO    R317192  11.423   6.224   7.274 -0.2354  0.0067 -0.0947
 1223ERGO    R417193  11.503   5.985   7.426  0.2881  0.2038 -0.0216
 1223ERGO    R517194  11.306   6.081   7.427  0.0688 -0.2123 -0.0512
 1223ERGO    C117195  11.393   6.104   7.797  0.0332  0.0838 -0.0581
 1223ERGO    C217196  11.293   6.129   8.115  0.2392  0.2781  0.0722
 1224ERGO   ROH17197  13.446  10.405   6.652  0.1312  0.0617  0.1359
 1224ERGO    R117198  13.370  10.377   6.923  0.1106 -0.0540  0.1191
 1224ERGO    R217199  13.498  10.203   7.097  0.2320  0.0220  0.1075
 1224ERGO    R317200  13.526  10.427   7.248  0.0161  0.0198  0.1538
 1224ERGO    R417201  13.477  10.213   7.442  0.1070 -0.0522  0.1021
 1224ERGO    R517202  13.367  10.401   7.425 -0.0263 -0.1281  0.0959
 1224ERGO    C117203  13.491  10.430   7.784 -0.1685 -0.0975  0.1424
 1224ERGO    C217204  13.285  10.437   8.161 -0.0002 -0.0408  0.1381
 1225ERGO   ROH17205   6.946  13.765   6.853 -0.1471 -0.2612 -0.1846
 1225ERGO    R117206   7.045  13.694   7.109 -0.0411 -0.0412 -0.1630
 1225ERGO    R217207   7.175  13.875   7.272 -0.1306  0.1484 -0.2965
 1225ERGO    R317208   6.987  13.798   7.453 -0.0383  0.1218 -0.2108
 1225ERGO    R417209   7.194  13.931   7.613  0.0673  0.0526 -0.2899
 1225ERGO    R517210   7.113  13.731   7.645  0.0620  0.0539 -0.2995
 1225ERGO    C117211   7.028  13.892   7.981  0.2691 -0.0282 -0.2055
 1225ERGO    C217212   6.972  13.874   8.394  0.1044  0.3400 -0.0559
 1226ERGO   ROH17213  12.541   5.698   6.408  0.1209 -0.0001 -0.1391
 1226ERGO    R117214  12.635   5.747   6.670 -0.0098  0.0109 -0.0942
 1226ERGO    R217215  12.476   5.856   6.868 -0.1836 -0.2213 -0.1071
 1226ERGO    R317216  12.552   5.635   7.006  0.0047 -0.1884 -0.1545
 1226ERGO    R417217  12.483   5.832   7.212 -0.2607 -0.3120 -0.1110
 1226ERGO    R517218  12.670   5.722   7.196 -0.1365 -0.1176 -0.0929
 1226ERGO    C117219  12.560   5.610   7.543 -0.1289 -0.3339 -0.1578
 1226ERGO    C217220  12.620   5.504   7.781  0.1963  0.2647  0.0515
 1227ERGO   ROH17221   7.546  10.271   6.896  0.0163  0.1226  0.1039
 1227ERGO    R117222   7.569  10.161   7.157  0.1529  0.1363  0.0959
 1227ERGO    R217223   7.804  10.173   7.303  0.1491  0.3763  0.0695
 1227ERGO    R317224   7.643  10.287   7.490  0.0496  0.1976  0.0986
 1227ERGO    R417225   7.823  10.114   7.643  0.0748  0.1524  0.0385
 1227ERGO    R517226   7.605  10.114   7.650  0.0646  0.0689 -0.0267
 1227ERGO    C117227   7.683  10.187   8.016 -0.0619 -0.1457  0.0479
 1227ERGO    C217228   7.731  10.325   8.337  0.1235  0.1439  0.4079
 1228ERGO   ROH17229   0.290  15.036   7.399 -0.0706 -0.1209 -0.0328
 1228ERGO    R117230   0.451  15.022   7.632  0.0251 -0.1657 -0.1015
 1228ERGO    R217231   0.442  15.213   7.831  0.1650 -0.1620 -0.0983
 1228ERGO    R317232   0.396  14.998   7.991  0.1721 -0.1482 -0.0773
 1228ERGO    R417233   0.473  15.213   8.175  0.0042 -0.0831 -0.0830
 1228ERGO    R517234   0.563  15.015   8.162  0.0860 -0.0515 -0.0021
 1228ERGO    C117235   0.447  15.012   8.525 -0.0828 -0.0241 -0.0543
 1228ERGO    C217236   0.314  15.200   8.842  0.3380 -0.1507  0.1253
 1229ERGO   ROH17237   1.769   9.747   7.243  0.1684  0.1908  0.0423
 1229ERGO    R117238   1.791   9.840   7.510  0.0177  0.0688  0.0985
 1229ERGO    R217239   1.577   9.840   7.685 -0.0286 -0.2152  0.0459
 1229ERGO    R317240   1.748   9.700   7.843  0.0568 -0.1479  0.0144
 1229ERGO    R417241   1.640   9.908   8.018  0.0606 -0.1447  0.0155
 1229ERGO    R517242   1.850   9.865   7.982  0.0608 -0.0988 -0.0451
 1229ERGO    C117243   1.836   9.815   8.360  0.1926 -0.0404 -0.0317
 1229ERGO    C217244   1.946   9.917   8.587  0.0831 -0.3130  0.0422
 1230ERGO   ROH17245  15.338  12.084   7.159  0.2844  0.0237 -0.0231
 1230ERGO    R117246  15.228  11.970   7.393  0.2732  0.0371 -0.0226
 1230ERGO    R217247  15.384  11.871   7.599  0.2617  0.0911  0.0082
 1230ERGO    R317248  15.234  12.040   7.750  0.2143  0.0847 -0.0299
 1230ERGO    R417249  15.321  11.832   7.936  0.0920  0.0283 -0.0291
 1230ERGO    R517250  15.117  11.897   7.901  0.1168  0.0692 -0.1167
 1230ERGO    C117251  15.144  11.967   8.274 -0.0514 -0.0143 -0.0868
 1230ERGO    C217252  15.132  11.961   8.591  0.3643  0.0095  0.1843
 1231ERGO   ROH17253  16.464  15.271   7.094 -0.1190 -0.0670  0.0135
 1231ERGO    R117254  16.420  15.228   7.370  0.1196 -0.2519  0.0251
 1231ERGO    R217255  16.612  15.116   7.536  0.5168  0.2410 -0.0815
 1231ERGO    R317256  16.568  15.341   7.682 -0.0519  0.1052 -0.0184
 1231ERGO    R417257  16.653  15.142   7.878  0.4527  0.2530 -0.0740
 1231ERGO    R517258  16.473  15.262   7.886  0.1384 -0.1958 -0.0397
 1231ERGO    C117259  16.637  15.367   8.214 -0.1187  0.1325 -0.0103
 1231ERGO    C217260  16.548  15.470   8.586 -0.0624  0.1836  0.0314
 1232ERGO   ROH17261   1.512  14.772   7.208 -0.0328 -0.1041 -0.1354
 1232ERGO    R117262   1.599  14.843   7.468  0.0325 -0.1101 -0.1560
 1232ERGO    R217263   1.450  15.004   7.636 -0.0003 -0.2505 -0.0540
 1232ERGO    R317264   1.480  14.797   7.809  0.2116 -0.2708 -0.1127
 1232ERGO    R417265   1.466  15.033   7.980 -0.1037 -0.3270 -0.0419
 1232ERGO    R517266   1.623  14.882   7.981  0.0805 -0.1473 -0.0589
 1232ERGO    C117267   1.505  14.855   8.342  0.0350 -0.3906 -0.0899
 1232ERGO    C217268   1.439  14.759   8.676  0.1181  0.1522  0.1226
 1233ERGO   ROH17269   9.820  12.685   6.697 -0.1100  0.1351  0.1221
 1233ERGO    R117270   9.657  12.653   6.926  0.0388 -0.1226  0.1971
 1233ERGO    R217271   9.738  12.507   7.147  0.3526 -0.0369  0.1506
 1233ERGO    R317272   9.678  12.737   7.280  0.0881 -0.1276  0.1938
 1233ERGO    R417273   9.730  12.541   7.491  0.2007 -0.1248  0.1562
 1233ERGO    R517274   9.553  12.665   7.470  0.0926 -0.2912  0.1310
 1233ERGO    C117275   9.671  12.776   7.816 -0.1359 -0.2612  0.2000
 1233ERGO    C217276   9.751  12.795   8.090  0.0689  0.0079  0.1304
 1234ERGO   ROH17277  13.053  13.581   6.824  0.2330  0.0410  0.1132
 1234ERGO    R117278  13.042  13.697   7.082  0.1369 -0.0181  0.1368
 1234ERGO    R217279  12.804  13.728   7.220  0.0689  0.0429  0.0153
 1234ERGO    R317280  12.937  13.592   7.414 -0.0908 -0.0618  0.0522
 1234ERGO    R417281  12.726  13.737   7.557 -0.0281  0.0790 -0.0085
 1234ERGO    R517282  12.939  13.741   7.601 -0.0416 -0.0759  0.0597
 1234ERGO    C117283  12.805  13.614   7.935 -0.2344  0.0020  0.0123
 1234ERGO    C217284  12.710  13.622   8.275 -0.0533  0.1791 -0.3906
 1235ERGO   ROH17285  14.358   5.317   6.351  0.0723 -0.0195  0.1961
 1235ERGO    R117286  14.496   5.401   6.584  0.0576  0.1046  0.1611
 1235ERGO    R217287  14.453   5.647   6.703 -0.0157  0.1318  0.0793
 1235ERGO    R317288  14.407   5.495   6.924  0.0443  0.1919  0.1334
 1235ERGO    R417289  14.489   5.756   7.029 -0.2215  0.3155  0.0434
 1235ERGO    R517290  14.576   5.563   7.079 -0.0661  0.4138  0.1614
 1235ERGO    C117291  14.468   5.678   7.426 -0.2851  0.4787  0.0732
 1235ERGO    C217292  14.512   5.648   7.796 -0.0528  0.0224 -0.0545
 1236ERGO   ROH17293  15.784  15.998   7.245 -0.1635 -0.0653  0.0328
 1236ERGO    R117294  15.694  15.951   7.509 -0.0733  0.0814  0.0903
 1236ERGO    R217295  15.859  15.852   7.707 -0.0513  0.0217  0.0409
 1236ERGO    R317296  15.776  16.073   7.842  0.1737  0.1246  0.0157
 1236ERGO    R417297  15.798  15.864   8.047 -0.1101  0.1024  0.0280
 1236ERGO    R517298  15.623  15.989   8.006  0.0391  0.3044 -0.0134
 1236ERGO    C117299  15.684  16.079   8.371  0.0669  0.2460 -0.0032
 1236ERGO    C217300  15.585  16.158   8.691 -0.1638 -0.0394 -0.0679
 1237ERGO   ROH17301   1.032  10.820   7.061  0.1314  0.0954 -0.0902
 1237ERGO    R117302   1.000  10.879   7.336  0.0521  0.0017 -0.0790
 1237ERGO    R217303   1.021  10.686   7.533  0.2075 -0.0265 -0.1230
 1237ERGO    R317304   1.204  10.859   7.637  0.0431  0.1154 -0.0650
 1237ERGO    R417305   1.049  10.767   7.868  0.1476 -0.1361 -0.0910
 1237ERGO    R517306   1.086  10.974   7.810 -0.0626 -0.0731 -0.0087
 1237ERGO    C117307   1.237  10.976   8.160 -0.0416 -0.0665 -0.0178
 1237ERGO    C217308   1.250  11.071   8.454  0.3503  0.2423 -0.3225
 1238ERGO   ROH17309   0.150   3.557  11.130 -0.3190  0.1361 -0.0238
 1238ERGO    R117310   0.200   3.407  10.895 -0.1363  0.0936  0.0403
 1238ERGO    R217311   0.043   3.427  10.669 -0.0347 -0.0369 -0.0453
 1238ERGO    R317312   0.281   3.478  10.548  0.0041  0.0356  0.0609
 1238ERGO    R417313   0.088   3.466  10.328  0.0740  0.1762 -0.0085
 1238ERGO    R517314   0.273   3.351  10.344  0.0663  0.1635 -0.0216
 1238ERGO    C117315   0.337   3.535  10.016  0.1737  0.3685  0.1126
 1238ERGO    C217316   0.380   3.530   9.665 -0.1478  0.0609  0.1353
 1239ERGO   ROH17317  15.703   5.020   6.652 -0.0705 -0.0257 -0.1339
 1239ERGO    R117318  15.818   5.080   6.903  0.0050 -0.0363 -0.1654
 1239ERGO    R217319  15.679   5.209   7.104  0.0649 -0.0443 -0.1173
 1239ERGO    R317320  15.755   4.993   7.251  0.1086 -0.0507 -0.1497
 1239ERGO    R417321  15.756   5.216   7.441 -0.2028 -0.1260 -0.0520
 1239ERGO    R517322  15.920   5.078   7.401 -0.0694  0.0100  0.0162
 1239ERGO    C117323  15.873   5.017   7.775 -0.3179 -0.1795 -0.0444
 1239ERGO    C217324  15.661   4.918   8.063 -0.0997 -0.1842 -0.0890
 1240ERGO   ROH17325  12.675   6.561   6.655 -0.1178 -0.0502 -0.0203
 1240ERGO    R117326  12.490   6.554   6.869 -0.1089 -0.0758 -0.0131
 1240ERGO    R217327  12.446   6.327   7.020 -0.0075 -0.0583  0.0458
 1240ERGO    R317328  12.503   6.494   7.227 -0.0712  0.0189  0.0015
 1240ERGO    R417329  12.364   6.269   7.351  0.0302 -0.0073  0.0641
 1240ERGO    R517330  12.313   6.479   7.371 -0.0586 -0.0249  0.0122
 1240ERGO    C117331  12.369   6.392   7.738 -0.0076  0.0949  0.0331
 1240ERGO    C217332  12.346   6.306   8.029 -0.1290  0.0472 -0.3174
 1241ERGO   ROH17333  14.306   6.712   6.559  0.1032 -0.0524  0.0562
 1241ERGO    R117334  14.191   6.652   6.811  0.0378 -0.1031  0.0165
 1241ERGO    R217335  14.244   6.416   6.946  0.0354 -0.1195  0.0065
 1241ERGO    R317336  14.313   6.585   7.147 -0.0457 -0.1278  0.0392
 1241ERGO    R417337  14.260   6.330   7.281  0.1726 -0.1889 -0.0186
 1241ERGO    R517338  14.171   6.523   7.330  0.0466 -0.2747  0.0530
 1241ERGO    C117339  14.334   6.439   7.664  0.1765 -0.2372 -0.0025
 1241ERGO    C217340  14.230   6.438   7.926 -0.2591 -0.4059 -0.3520
 1242ERGO   ROH17341   1.317   0.172   7.199  0.0537 -0.1392 -0.1266
 1242ERGO    R117342   1.367   0.139   7.476 -0.0532 -0.1027 -0.1025
 1242ERGO    R217343   1.419   0.353   7.643 -0.0333 -0.0883 -0.1281
 1242ERGO    R317344   1.213   0.248   7.787 -0.1212  0.0155 -0.1761
 1242ERGO    R417345   1.359   0.418   7.977 -0.0542 -0.0886 -0.1316
 1242ERGO    R517346   1.308   0.208   8.004 -0.1823 -0.0630 -0.1630
 1242ERGO    C117347   1.131   0.358   8.307 -0.1490  0.0087 -0.1787
 1242ERGO    C217348   0.973   0.405   8.701  0.1269  0.0250 -0.0877
 1243ERGO   ROH17349   7.061  12.473   7.111 -0.2714  0.0193  0.0447
 1243ERGO    R117350   7.183  12.286   7.286 -0.1339  0.1226  0.0616
 1243ERGO    R217351   7.254  12.350   7.546 -0.2530  0.1753  0.0831
 1243ERGO    R317352   7.102  12.133   7.606 -0.0630  0.0271  0.0338
 1243ERGO    R417353   7.273  12.169   7.840 -0.0443  0.0802  0.0118
 1243ERGO    R517354   7.250  11.987   7.724  0.0818  0.1036 -0.0512
 1243ERGO    C117355   7.142  11.859   8.067  0.2556 -0.1145 -0.0759
 1243ERGO    C217356   7.160  11.726   8.354  0.1875 -0.0663  0.0639
 1244ERGO   ROH17357   1.907  13.753   7.304 -0.0959  0.2997 -0.1063
 1244ERGO    R117358   1.978  13.898   7.536 -0.0976  0.1820 -0.0307
 1244ERGO    R217359   1.796  13.958   7.736 -0.0747 -0.0104  0.0501
 1244ERGO    R317360   1.982  13.839   7.895  0.0067 -0.0413 -0.0671
 1244ERGO    R417361   1.773  13.930   8.079  0.0826 -0.1044  0.0540
 1244ERGO    R517362   1.986  13.974   8.093  0.0869 -0.0937 -0.0319
 1244ERGO    C117363   1.933  13.802   8.429  0.2505 -0.1882 -0.0537
 1244ERGO    C217364   1.809  13.854   8.679  0.3281 -0.0619  0.2146
 1245ERGO   ROH17365   5.389  10.617   7.085 -0.0754  0.0255 -0.0989
 1245ERGO    R117366   5.410  10.734   7.342  0.0613 -0.1266 -0.0396
 1245ERGO    R217367   5.251  10.945   7.423  0.2228 -0.0607  0.1091
 1245ERGO    R317368   5.193  10.779   7.630  0.1553 -0.1329  0.0330
 1245ERGO    R417369   5.158  11.048   7.740  0.2690 -0.1652  0.1572
 1245ERGO    R517370   5.282  10.889   7.823  0.2046 -0.2571  0.0838
 1245ERGO    C117371   5.048  10.951   8.118  0.2326 -0.2938  0.1138
 1245ERGO    C217372   5.064  10.825   8.579  0.4878 -0.3826 -0.3632
 1246ERGO   ROH17373   6.749   7.597   6.710  0.0474 -0.1279  0.0248
 1246ERGO    R117374   6.895   7.591   6.953  0.0523 -0.2499  0.0197
 1246ERGO    R217375   6.880   7.793   7.141  0.3899 -0.1294 -0.0741
 1246ERGO    R317376   6.817   7.588   7.308  0.0621  0.0473  0.0259
 1246ERGO    R417377   6.983   7.768   7.470  0.4047 -0.1656 -0.0818
 1246ERGO    R517378   7.015   7.555   7.438  0.0306 -0.2404  0.0047
 1246ERGO    C117379   6.984   7.562   7.818  0.1055 -0.0208  0.0077
 1246ERGO    C217380   7.048   7.642   8.228  0.0160  0.2232  0.0299
 1247ERGO   ROH17381   4.874   5.631   6.786  0.0938 -0.0392 -0.0778
 1247ERGO    R117382   5.031   5.573   7.014 -0.0185 -0.2000 -0.0397
 1247ERGO    R217383   5.065   5.752   7.222  0.1928 -0.1931 -0.0773
 1247ERGO    R317384   4.976   5.544   7.373 -0.1150 -0.0412 -0.0406
 1247ERGO    R417385   5.044   5.753   7.567  0.4620 -0.1919 -0.0588
 1247ERGO    R517386   5.116   5.547   7.567  0.0502 -0.3477 -0.1466
 1247ERGO    C117387   4.948   5.558   7.909  0.3297 -0.0486 -0.0137
 1247ERGO    C217388   5.029   5.609   8.293 -0.0973 -0.0387 -0.2292
 1248ERGO   ROH17389  16.115   9.104   6.734 -0.3671 -0.1190 -0.1531
 1248ERGO    R117390  16.131   9.094   7.016 -0.1724 -0.0512 -0.1610
 1248ERGO    R217391  16.199   9.313   7.170 -0.3281  0.0533 -0.2510
 1248ERGO    R317392  15.965   9.257   7.296 -0.1825 -0.1943 -0.0800
 1248ERGO    R417393  16.150   9.330   7.511 -0.1465  0.2276 -0.2309
 1248ERGO    R517394  16.032   9.148   7.499  0.0995  0.0384 -0.0348
 1248ERGO    C117395  15.902   9.287   7.829  0.0959  0.0967 -0.0588
 1248ERGO    C217396  15.911   9.290   8.191  0.2869  0.1584 -0.0483
 1249ERGO   ROH17397   9.831  11.139   6.763 -0.1366 -0.2403 -0.0502
 1249ERGO    R117398   9.978  11.002   6.962  0.1656  0.1139 -0.0151
 1249ERGO    R217399  10.176  11.124   7.113 -0.1919  0.6294  0.0794
 1249ERGO    R317400  10.028  11.032   7.321 -0.0440  0.2097  0.0045
 1249ERGO    R417401  10.291  11.082   7.436 -0.1499  0.5975  0.0582
 1249ERGO    R517402  10.179  10.896   7.448  0.1832  0.3881 -0.0824
 1249ERGO    C117403  10.220  10.970   7.819  0.0132  0.1849 -0.0243
 1249ERGO    C217404  10.281  11.033   8.188  0.2224 -0.1161  0.2168
 1250ERGO   ROH17405   4.958   2.168   7.202 -0.1084  0.3254  0.0662
 1250ERGO    R117406   5.063   2.116   7.460 -0.0924  0.2773  0.0497
 1250ERGO    R217407   5.210   2.302   7.601 -0.0313  0.2285  0.0476
 1250ERGO    R317408   5.024   2.255   7.794 -0.0207  0.2578  0.0670
 1250ERGO    R417409   5.251   2.374   7.937  0.0679  0.1042  0.0633
 1250ERGO    R517410   5.153   2.185   7.984 -0.0165  0.1344  0.0223
 1250ERGO    C117411   5.101   2.371   8.313  0.1356  0.0594  0.0907
 1250ERGO    C217412   5.372   2.492   8.583  0.1734 -0.1198  0.3397
 1251ERGO   ROH17413   1.548  16.240   7.272 -0.1284  0.0580  0.0880
 1251ERGO    R117414   1.492  16.363   7.521 -0.1461 -0.1559  0.1905
 1251ERGO    R217415   1.448  16.217   7.752  0.2359 -0.3490  0.1458
 1251ERGO    R317416   1.647  16.374   7.850  0.0672 -0.0918  0.0910
 1251ERGO    R417417   1.497  16.288   8.086  0.2274 -0.2810  0.1336
 1251ERGO    R517418   1.546  16.493   8.031 -0.0439 -0.2138  0.1144
 1251ERGO    C117419   1.713  16.477   8.373  0.0641  0.0002  0.0750
 1251ERGO    C217420   1.780  16.427   8.717  0.2018 -0.1844  0.0355
 1252ERGO   ROH17421  14.077   9.152   6.487  0.0337 -0.1824  0.0710
 1252ERGO    R117422  14.174   9.240   6.739  0.0436 -0.0381  0.0186
 1252ERGO    R217423  14.032   9.412   6.901 -0.0323 -0.0845  0.0071
 1252ERGO    R317424  14.068   9.216   7.086  0.1541 -0.0070  0.0541
 1252ERGO    R417425  14.013   9.457   7.243 -0.1470 -0.0364 -0.0055
 1252ERGO    R517426  14.184   9.324   7.265 -0.0009  0.1602  0.0548
 1252ERGO    C117427  14.037   9.299   7.616 -0.0388  0.0644  0.0313
 1252ERGO    C217428  14.023   9.274   7.883  0.0177 -0.1876 -0.1381
 1253ERGO   ROH17429   8.735   0.065   6.706  0.2130 -0.1699  0.0784
 1253ERGO    R117430   8.900   0.065   6.936  0.1008  0.0652  0.1636
 1253ERGO    R217431   8.907   0.276   7.115 -0.3022  0.0761  0.1842
 1253ERGO    R317432   8.852   0.081   7.296 -0.1119 -0.0211  0.1387
 1253ERGO    R417433   8.939   0.309   7.457 -0.1511 -0.0512  0.1827
 1253ERGO    R517434   9.020   0.107   7.465 -0.0468 -0.0078  0.0652
 1253ERGO    C117435   8.907   0.146   7.827  0.1156 -0.2166  0.1390
 1253ERGO    C217436   9.056   0.154   8.140 -0.0265  0.3104 -0.0453
 1254ERGO   ROH17437   7.656   8.873  10.851 -0.1645 -0.2544  0.0561
 1254ERGO    R117438   7.637   8.756  10.594 -0.2213 -0.1936  0.0323
 1254ERGO    R217439   7.422   8.800  10.427 -0.1931 -0.0431  0.0347
 1254ERGO    R317440   7.615   8.875  10.251 -0.1474 -0.1139  0.0546
 1254ERGO    R417441   7.389   8.792  10.083 -0.2193  0.1101  0.0333
 1254ERGO    R517442   7.594   8.719  10.070 -0.2698 -0.0328 -0.0040
 1254ERGO    C117443   7.552   8.858   9.718 -0.1916  0.1328  0.0510
 1254ERGO    C217444   7.555   8.918   9.485  0.1766  0.0806  0.1961
 1255ERGO   ROH17445  16.733  16.356   7.244 -0.3846  0.3363 -0.1368
 1255ERGO    R117446  16.792  16.318   7.518 -0.1678  0.3364 -0.1812
 1255ERGO    R217447  16.640  16.430   7.720 -0.2340  0.0316 -0.0566
 1255ERGO    R317448  16.625  16.173   7.807  0.2203 -0.0271 -0.1283
 1255ERGO    R417449  16.630  16.333   8.052 -0.0521 -0.0746 -0.0817
 1255ERGO    R517450  16.763  16.168   8.002  0.2428  0.1643 -0.1349
 1255ERGO    C117451  16.611  16.036   8.326  0.4803 -0.1916 -0.1635
 1255ERGO    C217452  16.484  16.052   8.646 -0.4366 -0.2714  0.0292
 1256ERGO   ROH17453   8.560   4.671   6.558  0.2471  0.3241  0.0376
 1256ERGO    R117454   8.648   4.570   6.808  0.1679  0.2373  0.0309
 1256ERGO    R217455   8.887   4.435   6.838  0.1312  0.1747  0.0493
 1256ERGO    R317456   8.931   4.622   7.029  0.1304  0.1140  0.1092
 1256ERGO    R417457   8.964   4.366   7.167  0.0317  0.0709  0.0515
 1256ERGO    R517458   8.833   4.529   7.227  0.0581  0.0878  0.0609
 1256ERGO    C117459   9.051   4.501   7.539 -0.0267 -0.0464  0.1089
 1256ERGO    C217460   9.107   4.535   7.869 -0.1377 -0.0735  0.1560
 1257ERGO   ROH17461  16.621  10.462   7.053 -0.2117 -0.0211  0.0383
 1257ERGO    R117462  16.756  10.412   7.296 -0.0225  0.0751 -0.0441
 1257ERGO    R217463  16.847  10.614   7.461 -0.2008  0.1448 -0.0247
 1257ERGO    R317464  16.701  10.482   7.649  0.0582 -0.1071  0.0051
 1257ERGO    R417465  16.811  10.714   7.791 -0.1785 -0.0106  0.0250
 1257ERGO    R517466  16.828  10.505   7.850  0.1220 -0.0082 -0.0487
 1257ERGO    C117467  16.654  10.647   8.158  0.0774 -0.3376  0.0818
 1257ERGO    C217468  16.608  10.639   8.392  0.0774  0.2385 -0.0577
 1258ERGO   ROH17469  16.106  13.291   7.038  0.0320  0.1435  0.0978
 1258ERGO    R117470  16.023  13.392   7.289 -0.0064 -0.0789  0.1755
 1258ERGO    R217471  15.957  13.227   7.501  0.3031 -0.2626  0.1272
 1258ERGO    R317472  16.143  13.376   7.632  0.1513 -0.0656  0.1243
 1258ERGO    R417473  15.952  13.296   7.840  0.3342 -0.4591  0.1697
 1258ERGO    R517474  16.017  13.499   7.794  0.0299 -0.3300  0.2458
 1258ERGO    C117475  16.123  13.477   8.160  0.2099 -0.3885  0.1916
 1258ERGO    C217476  15.914  13.475   8.505 -0.1018  0.0877  0.0791
 1259ERGO   ROH17477   6.506   3.623   6.820 -0.1318  0.1139  0.0148
 1259ERGO    R117478   6.499   3.755   7.070 -0.1205  0.0126  0.0684
 1259ERGO    R217479   6.326   3.682   7.273 -0.0461 -0.1285  0.0782
 1259ERGO    R317480   6.555   3.665   7.419 -0.0072 -0.1040  0.0218
 1259ERGO    R417481   6.340   3.685   7.618  0.0190 -0.3134  0.0787
 1259ERGO    R517482   6.518   3.812   7.605 -0.0400 -0.2218  0.1118
 1259ERGO    C117483   6.563   3.670   7.956  0.0934 -0.3980  0.0261
 1259ERGO    C217484   6.646   3.736   8.294  0.0198  0.1258  0.0483
 1260ERGO   ROH17485   2.362   0.343   7.425  0.1306  0.0423  0.0797
 1260ERGO    R117486   2.452   0.505   7.640  0.1320 -0.1252  0.2089
 1260ERGO    R217487   2.285   0.678   7.776  0.2079  0.0322  0.1125
 1260ERGO    R317488   2.375   0.542   7.993 -0.1419 -0.1452  0.1525
 1260ERGO    R417489   2.269   0.793   8.101  0.3531  0.0936  0.0979
 1260ERGO    R517490   2.468   0.711   8.135  0.1758 -0.3267  0.1657
 1260ERGO    C117491   2.344   0.733   8.495  0.1093 -0.0372  0.1270
 1260ERGO    C217492   2.307   0.808   8.826  0.2174 -0.0228  0.0926
 1261ERGO   ROH17493   2.173   4.292   6.710  0.1807  0.0575  0.0969
 1261ERGO    R117494   2.165   4.432   6.955 -0.0213  0.0704  0.0849
 1261ERGO    R217495   2.035   4.335   7.178  0.1177 -0.1017  0.0945
 1261ERGO    R317496   2.276   4.374   7.297  0.0678  0.2584  0.0884
 1261ERGO    R417497   2.083   4.378   7.518  0.0819 -0.1958  0.1122
 1261ERGO    R517498   2.231   4.532   7.472 -0.1878  0.0909  0.1765
 1261ERGO    C117499   2.337   4.441   7.827  0.0141  0.0873  0.1169
 1261ERGO    C217500   2.305   4.492   8.148  0.2117  0.0792 -0.1503
 1262ERGO   ROH17501   3.566   4.544   7.029 -0.0006  0.1321  0.0093
 1262ERGO    R117502   3.642   4.389   7.253 -0.1834 -0.0357 -0.0410
 1262ERGO    R217503   3.811   4.485   7.450  0.1223 -0.3776 -0.1241
 1262ERGO    R317504   3.607   4.413   7.615  0.0596  0.0188 -0.0192
 1262ERGO    R417505   3.846   4.406   7.784  0.1340 -0.3807 -0.1268
 1262ERGO    R517506   3.702   4.245   7.756 -0.1753 -0.1313 -0.0340
 1262ERGO    C117507   3.675   4.292   8.134  0.0820 -0.0104 -0.0299
 1262ERGO    C217508   3.773   4.281   8.465  0.0567 -0.2259 -0.1983
 1263ERGO   ROH17509  11.017   2.879   6.523  0.0316  0.1247  0.0604
 1263ERGO    R117510  10.860   2.822   6.752  0.0756  0.0097  0.0619
 1263ERGO    R217511  10.873   2.579   6.886  0.2747  0.0302  0.0763
 1263ERGO    R317512  10.922   2.739   7.100  0.1392  0.0835  0.0693
 1263ERGO    R417513  10.803   2.498   7.214  0.1781  0.0548  0.0624
 1263ERGO    R517514  10.737   2.702   7.246  0.0934  0.0405  0.0049
 1263ERGO    C117515  10.809   2.600   7.606 -0.0055  0.1193  0.0479
 1263ERGO    C217516  10.988   2.554   7.861 -0.0163  0.0028 -0.2315
 1264ERGO   ROH17517  11.443   1.051   6.189 -0.1524  0.0973  0.0906
 1264ERGO    R117518  11.305   0.966   6.421 -0.0689 -0.0620  0.0839
 1264ERGO    R217519  11.404   0.771   6.591  0.1534  0.0564  0.0963
 1264ERGO    R317520  11.368   0.963   6.779 -0.0870  0.0224  0.0874
 1264ERGO    R417521  11.419   0.719   6.932 -0.0122  0.0515  0.1035
 1264ERGO    R517522  11.249   0.852   6.955 -0.1160 -0.0650  0.0118
 1264ERGO    C117523  11.394   0.868   7.308 -0.3343  0.0167  0.0994
 1264ERGO    C217524  11.394   0.930   7.617  0.2550  0.2480  0.1478
 1265ERGO   ROH17525  17.126  12.248   7.170 -0.3533  0.1356  0.0827
 1265ERGO    R117526  17.054  12.357   7.421 -0.1699  0.1818  0.1159
 1265ERGO    R217527  16.969  12.201   7.632 -0.2726  0.2448  0.1206
 1265ERGO    R317528  17.170  12.328   7.765 -0.1029  0.0228  0.0811
 1265ERGO    R417529  16.963  12.278   7.969 -0.1975  0.3974  0.0880
 1265ERGO    R517530  17.056  12.470   7.921  0.0789  0.2524  0.0116
 1265ERGO    C117531  17.148  12.441   8.290  0.0058  0.2779  0.0318
 1265ERGO    C217532  17.010  12.473   8.607 -0.2748 -0.1666  0.0236
 1266ERGO   ROH17533  10.893   4.255   6.225 -0.3700 -0.0136 -0.0598
 1266ERGO    R117534  10.932   4.170   6.492 -0.1533  0.0226 -0.0801
 1266ERGO    R217535  10.974   4.348   6.701 -0.2273  0.0596 -0.1076
 1266ERGO    R317536  10.764   4.216   6.812 -0.0412 -0.1514  0.0086
 1266ERGO    R417537  10.939   4.277   7.037 -0.2321  0.5592  0.0056
 1266ERGO    R517538  10.861   4.082   6.984  0.1482  0.3055  0.2860
 1266ERGO    C117539  10.722   4.113   7.337 -0.0601  0.6520  0.1805
 1266ERGO    C217540  10.730   4.136   7.666 -0.0811  0.3176 -0.0821
 1267ERGO   ROH17541   6.077   0.380   6.838  0.0731  0.0255 -0.0280
 1267ERGO    R117542   6.099   0.238   7.082  0.1842 -0.0013 -0.0513
 1267ERGO    R217543   6.288   0.301   7.275  0.1317  0.1209 -0.0329
 1267ERGO    R317544   6.070   0.317   7.436  0.1119 -0.0848 -0.0388
 1267ERGO    R417545   6.288   0.234   7.614  0.1551 -0.0169 -0.0608
 1267ERGO    R517546   6.096   0.135   7.589  0.2204 -0.1303 -0.1117
 1267ERGO    C117547   6.084   0.211   7.963  0.1502 -0.2902 -0.0826
 1267ERGO    C217548   6.101   0.303   8.218 -0.1979  0.0603 -0.3618
 1268ERGO   ROH17549   2.123  10.690   6.979  0.0408 -0.1001 -0.0417
 1268ERGO    R117550   2.196  10.808   7.226 -0.0137 -0.0896 -0.0309
 1268ERGO    R217551   2.011  10.861   7.426 -0.0421 -0.1713 -0.0362
 1268ERGO    R317552   2.182  10.714   7.578  0.0060 -0.1176 -0.0375
 1268ERGO    R417553   2.015  10.856   7.771 -0.0145 -0.1430 -0.0358
 1268ERGO    R517554   2.233  10.855   7.764 -0.0142 -0.0900 -0.0523
 1268ERGO    C117555   2.178  10.715   8.115  0.0467 -0.0762 -0.0367
 1268ERGO    C217556   2.220  10.712   8.444 -0.2590  0.0850  0.1376
 1269ERGO   ROH17557  10.857  12.094   6.637 -0.0676  0.2491 -0.0395
 1269ERGO    R117558  10.839  12.040   6.914 -0.1087  0.2491 -0.0417
 1269ERGO    R217559  11.050  11.936   7.060 -0.1970  0.0470 -0.0525
 1269ERGO    R317560  11.007  12.153   7.216  0.0056  0.0801 -0.0407
 1269ERGO    R417561  11.062  11.937   7.405 -0.1990  0.0155 -0.0528
 1269ERGO    R517562  10.889  12.068   7.406 -0.0769  0.1791 -0.0471
 1269ERGO    C117563  11.029  12.142   7.753 -0.0101  0.0282 -0.0418
 1269ERGO    C217564  11.012  12.200   8.056  0.0909  0.3165  0.1691
 1270ERGO   ROH17565   5.848  12.390   7.476  0.1644 -0.1247  0.0298
 1270ERGO    R117566   5.750  12.485   7.724  0.0669 -0.0885 -0.0211
 1270ERGO    R217567   5.723  12.322   7.946  0.1124 -0.0266  0.0348
 1270ERGO    R317568   5.876  12.513   8.065 -0.0094  0.0976 -0.0078
 1270ERGO    R417569   5.822  12.320   8.278  0.2404  0.0361 -0.0031
 1270ERGO    R517570   5.786  12.534   8.285  0.0565  0.0023  0.0265
 1270ERGO    C117571   6.023  12.498   8.581  0.2006  0.1892 -0.0652
 1270ERGO    C217572   6.086  12.493   8.817 -0.2732  0.1917 -0.1060
 1271ERGO   ROH17573  14.842  12.349   7.215  0.0785  0.1558 -0.0322
 1271ERGO    R117574  14.873  12.260   7.482  0.0791  0.1692 -0.0291
 1271ERGO    R217575  14.994  12.414   7.677 -0.0199  0.2193 -0.0162
 1271ERGO    R317576  14.763  12.368   7.812 -0.0158  0.1157 -0.0405
 1271ERGO    R417577  14.974  12.335   8.013  0.0009  0.1017 -0.0413
 1271ERGO    R517578  14.817  12.192   7.964  0.0326  0.0726 -0.0976
 1271ERGO    C117579  14.745  12.246   8.335  0.0170 -0.0640 -0.0788
 1271ERGO    C217580  14.646  12.322   8.637  0.0202  0.3228  0.0189
 1272ERGO   ROH17581   3.230   0.910   7.370 -0.1256  0.1462 -0.0268
 1272ERGO    R117582   3.372   0.840   7.604 -0.2433 -0.1114 -0.0316
 1272ERGO    R217583   3.450   1.026   7.792  0.1409 -0.2443 -0.0651
 1272ERGO    R317584   3.317   0.863   7.964 -0.1687  0.0346 -0.0259
 1272ERGO    R417585   3.447   1.061   8.136  0.5302 -0.3522 -0.0444
 1272ERGO    R517586   3.462   0.844   8.153 -0.0365 -0.4262 -0.1497
 1272ERGO    C117587   3.320   0.927   8.497  0.4663 -0.1531  0.0044
 1272ERGO    C217588   3.241   1.084   8.832  0.0235 -0.2077  0.1253
 1273ERGO   ROH17589  11.767  17.130   6.365 -0.1995 -0.0366 -0.0481
 1273ERGO    R117590  11.637  17.087   6.613 -0.0528 -0.1925  0.0054
 1273ERGO    R217591  11.762  16.965   6.827  0.2280  0.0700  0.0060
 1273ERGO    R317592  11.686  17.191   6.958 -0.1134 -0.0137 -0.0407
 1273ERGO    R417593  11.704  16.987   7.167  0.0944  0.0440 -0.0153
 1273ERGO    R517594  11.533  17.115   7.125 -0.0612 -0.1912 -0.0789
 1273ERGO    C117595  11.599  17.212   7.488 -0.3040 -0.0494 -0.0716
 1273ERGO    C217596  11.660  17.180   7.737 -0.1253 -0.2385  0.0072
 1274ERGO   ROH17597  16.782   7.058   6.974 -0.1821  0.0709  0.0184
 1274ERGO    R117598  16.806   7.174   7.231 -0.2284 -0.0001  0.0553
 1274ERGO    R217599  16.661   7.083   7.449 -0.1410 -0.1725  0.0443
 1274ERGO    R317600  16.907   7.063   7.562 -0.1121 -0.0454  0.0049
 1274ERGO    R417601  16.721   7.057   7.788 -0.0914 -0.3837  0.0202
 1274ERGO    R517602  16.891   7.191   7.764 -0.2089 -0.2139  0.1069
 1274ERGO    C117603  16.987   7.023   8.093 -0.0350 -0.3873 -0.0309
 1274ERGO    C217604  17.012   7.006   8.425 -0.1069  0.0701  0.0441
 1275ERGO   ROH17605  14.760   3.493   6.627 -0.1431 -0.0098  0.0968
 1275ERGO    R117606  14.746   3.487   6.909 -0.1528 -0.0927  0.0951
 1275ERGO    R217607  14.741   3.251   7.053  0.0695 -0.1354  0.0379
 1275ERGO    R317608  14.953   3.363   7.182 -0.0446  0.0413  0.0746
 1275ERGO    R417609  14.767   3.288   7.396  0.0184 -0.1935  0.0478
 1275ERGO    R517610  14.854   3.485   7.363 -0.1725 -0.0986  0.1000
 1275ERGO    C117611  14.980   3.414   7.716 -0.1186 -0.0613  0.0880
 1275ERGO    C217612  14.987   3.276   8.087 -0.0632 -0.1250  0.0045
 1276ERGO   ROH17613  14.775   2.786   7.083  0.2914 -0.0031 -0.0631
 1276ERGO    R117614  14.689   2.854   7.343  0.3071  0.1064 -0.0864
 1276ERGO    R217615  14.643   2.665   7.540 -0.0395  0.1556 -0.1156
 1276ERGO    R317616  14.817   2.818   7.682  0.1456 -0.1113 -0.0459
 1276ERGO    R417617  14.662   2.673   7.885 -0.2516  0.2074 -0.1038
 1276ERGO    R517618  14.690   2.889   7.873  0.1396  0.1627 -0.1449
 1276ERGO    C117619  14.835   2.821   8.219 -0.2014 -0.0129 -0.0315
 1276ERGO    C217620  14.660   2.779   8.577 -0.0609  0.0859  0.0134
 1277ERGO   ROH17621   9.365  14.089   6.549 -0.1474 -0.1515  0.0131
 1277ERGO    R117622   9.509  13.989   6.772  0.0086 -0.1098 -0.0677
 1277ERGO    R217623   9.630  14.154   6.958 -0.0696 -0.0725 -0.0512
 1277ERGO    R317624   9.483  14.009   7.134  0.1077 -0.2581 -0.0510
 1277ERGO    R417625   9.656  14.175   7.301 -0.0397 -0.0975 -0.0517
 1277ERGO    R517626   9.635  13.959   7.312  0.1905 -0.1254 -0.0819
 1277ERGO    C117627   9.533  14.052   7.667  0.1444 -0.2863 -0.0519
 1277ERGO    C217628   9.426  14.069   7.977 -0.0911 -0.0150 -0.0606
 1278ERGO   ROH17629  11.779   1.945   6.459  0.0041  0.0061  0.0175
 1278ERGO    R117630  11.679   2.023   6.712 -0.1363 -0.1240  0.0031
 1278ERGO    R217631  11.537   1.852   6.876  0.0810 -0.3187 -0.0109
 1278ERGO    R317632  11.726   1.921   7.058 -0.0349 -0.0496  0.0124
 1278ERGO    R417633  11.501   1.821   7.218  0.0530 -0.2978 -0.0113
 1278ERGO    R517634  11.601   2.013   7.241 -0.1862 -0.1661 -0.0281
 1278ERGO    C117635  11.659   1.868   7.589 -0.0721 -0.0331  0.0103
 1278ERGO    C217636  11.702   1.848   7.965  0.0369 -0.1289  0.1356
 1279ERGO   ROH17637  12.940  13.104   6.892 -0.1969  0.2161 -0.0621
 1279ERGO    R117638  12.836  13.219   7.129 -0.2439 -0.0379  0.0436
 1279ERGO    R217639  12.625  13.107   7.268 -0.1458 -0.2919 -0.0119
 1279ERGO    R317640  12.799  13.120   7.477 -0.1272 -0.3321 -0.0242
 1279ERGO    R417641  12.535  13.104   7.602 -0.1523  0.0494 -0.0061
 1279ERGO    R517642  12.687  13.255   7.640  0.0181 -0.0862 -0.1188
 1279ERGO    C117643  12.646  13.113   7.992 -0.1387  0.2103 -0.0142
 1279ERGO    C217644  12.697  13.123   8.355  0.1553 -0.0729  0.2286
 1280ERGO   ROH17645   1.050   7.499   6.870 -0.1694 -0.0462 -0.0395
 1280ERGO    R117646   1.026   7.471   7.150  0.0040  0.0883 -0.0102
 1280ERGO    R217647   0.876   7.270   7.268 -0.0819  0.2612  0.1750
 1280ERGO    R317648   1.109   7.217   7.398 -0.0328  0.1199  0.0356
 1280ERGO    R417649   0.900   7.102   7.568 -0.0269  0.4338  0.2695
 1280ERGO    R517650   1.054   7.243   7.630  0.1615  0.3276  0.0635
 1280ERGO    C117651   1.132   6.954   7.866  0.0511  0.4016  0.1938
 1280ERGO    C217652   1.136   6.866   8.176  0.0347  0.1840  0.1865
 1281ERGO   ROH17653  12.191   0.565   6.369 -0.1839  0.0016 -0.1392
 1281ERGO    R117654  12.311   0.607   6.621 -0.0117 -0.0154 -0.2154
 1281ERGO    R217655  12.186   0.745   6.825  0.2144  0.1737 -0.1891
 1281ERGO    R317656  12.238   0.519   6.967  0.0859  0.1701 -0.1488
 1281ERGO    R417657  12.194   0.727   7.170 -0.2024  0.1191 -0.1773
 1281ERGO    R517658  12.367   0.595   7.154 -0.1609  0.1626  0.0215
 1281ERGO    C117659  12.248   0.505   7.504 -0.5657  0.0839 -0.1325
 1281ERGO    C217660  12.283   0.742   7.703  0.0526 -0.1174  0.1828
 1282ERGO   ROH17661  15.034  11.103   7.117 -0.1721  0.1491 -0.0713
 1282ERGO    R117662  15.058  10.952   7.356  0.0263  0.1505 -0.0885
 1282ERGO    R217663  15.176  11.053   7.584 -0.0879  0.2752 -0.0849
 1282ERGO    R317664  14.940  10.981   7.699  0.0034 -0.0327 -0.0796
 1282ERGO    R417665  15.125  11.015   7.924 -0.0577  0.3244 -0.0743
 1282ERGO    R517666  15.004  10.839   7.881  0.2018  0.1235 -0.0213
 1282ERGO    C117667  14.874  10.925   8.229  0.0455  0.0639 -0.0631
 1282ERGO    C217668  14.692  10.839   8.521  0.0585 -0.2150 -0.0152
 1283ERGO   ROH17669  11.781  12.745   6.687 -0.0054  0.1760  0.1158
 1283ERGO    R117670  11.680  12.844   6.932  0.1051  0.1282  0.1812
 1283ERGO    R217671  11.563  12.681   7.122  0.0218  0.1179  0.1182
 1283ERGO    R317672  11.748  12.794   7.286  0.1281 -0.0925  0.1478
 1283ERGO    R417673  11.529  12.713   7.464  0.0177  0.1196  0.1179
 1283ERGO    R517674  11.618  12.912   7.449  0.2322  0.0314  0.1454
 1283ERGO    C117675  11.682  12.838   7.818  0.1150 -0.0769  0.1456
 1283ERGO    C217676  11.590  12.867   8.227 -0.0175  0.0765 -0.2664
 1284ERGO   ROH17677   8.876   6.363   6.745 -0.2301  0.1297  0.0284
 1284ERGO    R117678   9.031   6.352   6.982 -0.1794 -0.0859 -0.0132
 1284ERGO    R217679   9.056   6.567   7.153  0.0737 -0.1574  0.0368
 1284ERGO    R317680   8.971   6.388   7.339 -0.0514 -0.1244  0.0140
 1284ERGO    R417681   9.121   6.590   7.492 -0.2335 -0.0340  0.0919
 1284ERGO    R517682   9.153   6.374   7.494 -0.1806 -0.0307  0.1840
 1284ERGO    C117683   9.080   6.435   7.864 -0.5298  0.0689  0.1027
 1284ERGO    C217684   9.045   6.383   8.149 -0.4285 -0.0889 -0.0852
 1285ERGO   ROH17685   2.991   9.078   7.185  0.0601  0.1017  0.1484
 1285ERGO    R117686   3.030   9.187   7.443  0.0031  0.0245  0.1907
 1285ERGO    R217687   2.883   9.106   7.662 -0.0692 -0.0198  0.1307
 1285ERGO    R317688   3.128   9.062   7.771 -0.1032 -0.0826  0.1812
 1285ERGO    R417689   2.941   9.024   7.993 -0.1480 -0.0033  0.1483
 1285ERGO    R517690   3.114   9.157   7.990 -0.1108 -0.0584  0.1668
 1285ERGO    C117691   3.205   8.936   8.287 -0.2257 -0.0527  0.2060
 1285ERGO    C217692   3.277   8.800   8.673 -0.3206 -0.0351 -0.1033
 1286ERGO   ROH17693   7.505   6.009   6.846 -0.0909  0.0188  0.0201
 1286ERGO    R117694   7.417   5.910   7.097 -0.3286  0.0848 -0.0345
 1286ERGO    R217695   7.577   5.912   7.322 -0.3628 -0.3016  0.0015
 1286ERGO    R317696   7.367   6.045   7.431 -0.1423  0.0579  0.0041
 1286ERGO    R417697   7.484   5.893   7.654 -0.3759 -0.1031  0.0104
 1286ERGO    R517698   7.275   5.891   7.589 -0.3872  0.2288  0.0298
 1286ERGO    C117699   7.232   6.008   7.950 -0.1766  0.3499  0.0181
 1286ERGO    C217700   7.162   6.030   8.270 -0.0870  0.1171 -0.0554
 1287ERGO   ROH17701   4.674  12.363   7.587 -0.2146 -0.1112 -0.2135
 1287ERGO    R117702   4.429  12.381   7.726 -0.2643 -0.1400 -0.2944
 1287ERGO    R217703   4.292  12.159   7.816 -0.0747 -0.1479 -0.0006
 1287ERGO    R317704   4.304  12.288   8.056 -0.2430  0.2163 -0.1820
 1287ERGO    R417705   4.068  12.114   8.076  0.1476 -0.2928  0.1689
 1287ERGO    R517706   4.075  12.329   8.112 -0.3149 -0.2179 -0.1350
 1287ERGO    C117707   3.949  12.208   8.451  0.1189 -0.0352  0.0973
 1287ERGO    C217708   3.651  12.092   8.619 -0.2590 -0.0312  0.1432
 1288ERGO   ROH17709  12.050   3.263   6.834 -0.0159 -0.0382  0.1192
 1288ERGO    R117710  12.176   3.327   7.080 -0.0256 -0.0236  0.1179
 1288ERGO    R217711  12.064   3.499   7.264 -0.1247 -0.1744  0.1851
 1288ERGO    R317712  12.100   3.290   7.434  0.0648 -0.1968  0.1228
 1288ERGO    R417713  12.072   3.523   7.609 -0.2732 -0.2714  0.1981
 1288ERGO    R517714  12.235   3.379   7.610 -0.0937 -0.0871  0.2009
 1288ERGO    C117715  12.111   3.341   7.969 -0.1816 -0.3489  0.1473
 1288ERGO    C217716  12.114   3.352   8.337 -0.0773 -0.0521 -0.0049
 1289ERGO   ROH17717   4.545   4.781   6.804  0.0073  0.0151  0.0351
 1289ERGO    R117718   4.432   4.953   6.998  0.1159  0.0858  0.0370
 1289ERGO    R217719   4.266   4.862   7.200 -0.0432  0.2044 -0.0357
 1289ERGO    R317720   4.445   4.988   7.360  0.0353 -0.0113  0.0493
 1289ERGO    R417721   4.256   4.863   7.545 -0.1229  0.1037 -0.0375
 1289ERGO    R517722   4.314   5.073   7.542  0.0709  0.0515  0.0439
 1289ERGO    C117723   4.419   4.982   7.897 -0.0955 -0.1574  0.0412
 1289ERGO    C217724   4.468   4.865   8.217  0.2226 -0.1893  0.0753
 1290ERGO   ROH17725  12.815   0.920   6.610 -0.0710 -0.1349  0.0914
 1290ERGO    R117726  12.700   0.838   6.855 -0.0531  0.0388  0.1590
 1290ERGO    R217727  12.838   0.687   7.041 -0.1150 -0.0226  0.1513
 1290ERGO    R317728  12.767   0.888   7.209  0.1192  0.0892  0.1207
 1290ERGO    R417729  12.873   0.679   7.385  0.0916  0.0836  0.1346
 1290ERGO    R517730  12.679   0.777   7.402  0.1632  0.2175  0.2178
 1290ERGO    C117731  12.828   0.864   7.743  0.4316  0.2504  0.0963
 1290ERGO    C217732  12.811   0.825   8.120  0.2183 -0.0142  0.0501
 1291ERGO   ROH17733   1.355   3.483   6.836  0.0384 -0.0410 -0.0274
 1291ERGO    R117734   1.211   3.537   7.074 -0.0802 -0.0156 -0.1046
 1291ERGO    R217735   1.191   3.355   7.281 -0.1289  0.0318 -0.0698
 1291ERGO    R317736   1.287   3.561   7.429 -0.2446  0.0909 -0.0754
 1291ERGO    R417737   1.120   3.406   7.615 -0.1613  0.0016 -0.0715
 1291ERGO    R517738   1.105   3.620   7.574 -0.2805 -0.0065 -0.0784
 1291ERGO    C117739   1.169   3.630   7.949 -0.2889  0.0396 -0.0776
 1291ERGO    C217740   1.164   3.659   8.266 -0.0726 -0.0444 -0.1958
 1292ERGO   ROH17741  12.802   4.601   6.389 -0.1579  0.0185  0.1083
 1292ERGO    R117742  12.776   4.698   6.653 -0.3229 -0.0025  0.0996
 1292ERGO    R217743  12.587   4.602   6.830 -0.0509 -0.4396  0.1574
 1292ERGO    R317744  12.803   4.561   6.989  0.0991  0.1016  0.1167
 1292ERGO    R417745  12.598   4.666   7.170 -0.1358 -0.3471  0.1447
 1292ERGO    R517746  12.799   4.744   7.144 -0.3082  0.1380  0.0844
 1292ERGO    C117747  12.808   4.665   7.517 -0.0443  0.2150  0.0991
 1292ERGO    C217748  12.910   4.703   7.851  0.2758 -0.0101  0.1014
 1293ERGO   ROH17749  13.585   6.110   6.380  0.0518 -0.1797  0.0328
 1293ERGO    R117750  13.455   6.049   6.623 -0.0022 -0.2155 -0.0057
 1293ERGO    R217751  13.512   5.822   6.770  0.2045 -0.0662  0.1373
 1293ERGO    R317752  13.553   6.001   6.971 -0.1273  0.0857  0.0775
 1293ERGO    R417753  13.527   5.742   7.106  0.3965  0.0412  0.1562
 1293ERGO    R517754  13.413   5.923   7.149  0.0309 -0.1538  0.1128
 1293ERGO    C117755  13.574   5.863   7.490  0.1968  0.2463  0.1111
 1293ERGO    C217756  13.639   5.781   7.848 -0.1458  0.0306  0.2129
 1294ERGO   ROH17757  14.215   1.327   6.651 -0.2767 -0.2636  0.0454
 1294ERGO    R117758  14.172   1.521   6.852 -0.0686 -0.1974  0.0281
 1294ERGO    R217759  13.952   1.516   7.020 -0.0406  0.0160  0.0742
 1294ERGO    R317760  14.141   1.523   7.215  0.0061 -0.1199  0.0344
 1294ERGO    R417761  13.886   1.519   7.359  0.0344  0.0220  0.0890
 1294ERGO    R517762  14.047   1.663   7.384  0.1287 -0.0792  0.0695
 1294ERGO    C117763  14.025   1.527   7.740  0.1219 -0.1021  0.0602
 1294ERGO    C217764  14.017   1.512   8.048 -0.0005  0.0335  0.0035
 1295ERGO   ROH17765   9.785   5.219   6.474 -0.0638 -0.1017  0.0096
 1295ERGO    R117766   9.660   5.303   6.714  0.0146 -0.0405  0.0297
 1295ERGO    R217767   9.567   5.124   6.904 -0.0634  0.0044  0.0333
 1295ERGO    R317768   9.725   5.270   7.071  0.0413 -0.0930  0.0205
 1295ERGO    R417769   9.535   5.135   7.248 -0.0590  0.0555  0.0318
 1295ERGO    R517770   9.576   5.349   7.240  0.0945  0.0281  0.0131
 1295ERGO    C117771   9.663   5.279   7.605  0.0420 -0.0063  0.0190
 1295ERGO    C217772   9.640   5.167   7.910  0.2460  0.0317  0.4113
 1296ERGO   ROH17773   5.848  13.705   7.442 -0.1015 -0.0656 -0.0190
 1296ERGO    R117774   5.943  13.818   7.683  0.0103 -0.0700 -0.0603
 1296ERGO    R217775   5.843  14.053   7.787  0.1568  0.0037 -0.0821
 1296ERGO    R317776   5.804  13.901   8.009  0.1237  0.0650 -0.0457
 1296ERGO    R417777   5.861  14.169   8.112 -0.0013  0.1173 -0.1127
 1296ERGO    R517778   5.963  13.985   8.167  0.0379  0.1685 -0.0136
 1296ERGO    C117779   5.836  14.094   8.510 -0.1245  0.2411 -0.0964
 1296ERGO    C217780   5.650  14.105   8.874 -0.0077  0.1097  0.0619
 1297ERGO   ROH17781   0.596   7.798   6.779  0.1754  0.2198 -0.0651
 1297ERGO    R117782   0.526   7.794   7.053  0.0428  0.1426 -0.1018
 1297ERGO    R217783   0.508   7.560   7.198  0.1644  0.1247 -0.1365
 1297ERGO    R317784   0.682   7.687   7.365 -0.0267  0.2513 -0.0255
 1297ERGO    R417785   0.573   7.464   7.524  0.3203 -0.0949 -0.2282
 1297ERGO    R517786   0.576   7.676   7.580 -0.0165 -0.1268 -0.0253
 1297ERGO    C117787   0.775   7.527   7.869  0.2316 -0.1041 -0.1773
 1297ERGO    C217788   0.756   7.301   8.067  0.0343  0.0849 -0.3730
 1298ERGO   ROH17789   0.831   0.947   7.015  0.0652 -0.0331  0.1029
 1298ERGO    R117790   0.689   1.078   7.221 -0.0174 -0.0384  0.0489
 1298ERGO    R217791   0.492   0.954   7.369 -0.0142 -0.0677  0.0221
 1298ERGO    R317792   0.643   1.034   7.580 -0.0872  0.0096  0.0467
 1298ERGO    R417793   0.372   1.011   7.688 -0.0545 -0.3808  0.0670
 1298ERGO    R517794   0.502   1.185   7.700 -0.2639 -0.2228  0.1420
 1298ERGO    C117795   0.445   1.120   8.072 -0.1465 -0.4906  0.1163
 1298ERGO    C217796   0.442   1.141   8.420 -0.2617 -0.4796 -0.1060
 1299ERGO   ROH17797   1.801  15.145   7.016  0.4145 -0.2284  0.0648
 1299ERGO    R117798   1.884  15.262   7.260  0.2156 -0.2170  0.1290
 1299ERGO    R217799   1.705  15.354   7.450  0.0585 -0.3195  0.0346
 1299ERGO    R317800   1.844  15.189   7.615  0.0360 -0.2752  0.0977
 1299ERGO    R417801   1.716  15.382   7.794  0.0425 -0.2059  0.0260
 1299ERGO    R517802   1.928  15.334   7.786  0.0381 -0.2253  0.0540
 1299ERGO    C117803   1.853  15.243   8.149  0.0122 -0.0981  0.0802
 1299ERGO    C217804   1.649  15.360   8.337  0.0985  0.2554  0.2724
 1300ERGO   ROH17805  15.380  17.027   6.860  0.2029  0.1715  0.0642
 1300ERGO    R117806  15.464  16.952   7.119  0.1445  0.1294  0.0718
 1300ERGO    R217807  15.414  17.107   7.342  0.0720  0.0830  0.0918
 1300ERGO    R317808  15.305  16.876   7.438  0.0690  0.0530  0.0152
 1300ERGO    R417809  15.352  17.041   7.676 -0.0962  0.0376  0.0525
 1300ERGO    R517810  15.421  16.837   7.643 -0.0367  0.0582  0.0737
 1300ERGO    C117811  15.215  16.787   7.960 -0.1970 -0.0169 -0.0421
 1300ERGO    C217812  15.199  16.844   8.351  0.1998  0.1306  0.2466
 1301ERGO   ROH17813   4.164  10.194   7.299  0.1167  0.1185 -0.0575
 1301ERGO    R117814   4.099  10.051   7.534 -0.0418  0.2203 -0.0369
 1301ERGO    R217815   4.250   9.840   7.627 -0.3193 -0.0002 -0.0570
 1301ERGO    R317816   4.255   9.985   7.856 -0.0640  0.0131 -0.0685
 1301ERGO    R417817   4.325   9.711   7.939 -0.6521 -0.1305 -0.0278
 1301ERGO    R517818   4.166   9.836   8.022 -0.4126  0.2115 -0.0733
 1301ERGO    C117819   4.372   9.773   8.336 -0.6064 -0.1940 -0.0215
 1301ERGO    C217820   4.612   9.530   8.534  0.0024 -0.1027 -0.1652
 1302ERGO   ROH17821   4.540   3.360   6.986 -0.1179  0.2291  0.0583
 1302ERGO    R117822   4.559   3.529   7.212 -0.1559  0.1325  0.1351
 1302ERGO    R217823   4.362   3.543   7.405 -0.1154 -0.0698  0.1930
 1302ERGO    R317824   4.568   3.489   7.574 -0.0420 -0.0357  0.1147
 1302ERGO    R417825   4.346   3.566   7.750 -0.0077 -0.1287  0.2019
 1302ERGO    R517826   4.547   3.652   7.748 -0.0327 -0.0687  0.1476
 1302ERGO    C117827   4.531   3.528   8.108  0.1238 -0.1310  0.1336
 1302ERGO    C217828   4.388   3.641   8.380 -0.1032  0.3611 -0.4337
 1303ERGO   ROH17829  10.250   1.673   6.171  0.1980  0.0003 -0.0357
 1303ERGO    R117830  10.127   1.639   6.424  0.1289  0.0435 -0.0640
 1303ERGO    R217831  10.139   1.401   6.564  0.1124  0.0783 -0.0115
 1303ERGO    R317832  10.237   1.561   6.762  0.0377  0.1284 -0.0130
 1303ERGO    R417833  10.082   1.356   6.902  0.2019 -0.0016 -0.0061
 1303ERGO    R517834  10.060   1.571   6.923  0.0538 -0.0137  0.0198
 1303ERGO    C117835  10.141   1.478   7.284  0.1839 -0.0010 -0.0045
 1303ERGO    C217836  10.179   1.410   7.643 -0.1243  0.0600  0.0780
 1304ERGO   ROH17837  12.294   7.971   6.884  0.1001 -0.1469  0.0988
 1304ERGO    R117838  12.231   7.813   7.110  0.0821 -0.0725  0.1475
 1304ERGO    R217839  12.406   7.782   7.322  0.0827 -0.0327  0.1597
 1304ERGO    R317840  12.194   7.868   7.468  0.0943  0.0416  0.1304
 1304ERGO    R417841  12.357   7.716   7.658  0.0406  0.0396  0.1667
 1304ERGO    R517842  12.145   7.686   7.616  0.0402  0.0827  0.1587
 1304ERGO    C117843  12.129   7.759   7.991  0.0270  0.1513  0.1433
 1304ERGO    C217844  12.215   7.814   8.326 -0.3255  0.0408 -0.1393
 1305ERGO   ROH17845  14.949  14.411   6.938  0.0058  0.1789  0.1118
 1305ERGO    R117846  14.940  14.250   7.171  0.1007  0.0754  0.0481
 1305ERGO    R217847  15.089  14.307   7.397  0.1488  0.0153  0.0477
 1305ERGO    R317848  14.847  14.295   7.520  0.1760 -0.0866  0.0862
 1305ERGO    R417849  15.041  14.299   7.739  0.1826  0.0715  0.0517
 1305ERGO    R517850  14.883  14.153   7.709  0.2668 -0.0131  0.1126
 1305ERGO    C117851  14.786  14.284   8.054  0.2280  0.0085  0.0901
 1305ERGO    C217852  14.665  14.345   8.350 -0.1115  0.0992 -0.0100
 1306ERGO   ROH17853  15.739   3.150   6.579  0.0633  0.0548 -0.0612
 1306ERGO    R117854  15.718   3.085   6.853  0.3612 -0.2299 -0.1012
 1306ERGO    R217855  15.938   3.018   7.008  0.6755  0.4939 -0.1983
 1306ERGO    R317856  15.846   3.218   7.167 -0.0762  0.0552 -0.0354
 1306ERGO    R417857  15.937   3.011   7.353  0.6733  0.2039 -0.2020
 1306ERGO    R517858  15.740   3.104   7.349  0.3062 -0.4942 -0.1297
 1306ERGO    C117859  15.849   3.194   7.704 -0.0336 -0.3768 -0.0510
 1306ERGO    C217860  15.805   3.067   7.954  0.0457 -0.1659 -0.1821
 1307ERGO   ROH17861   6.804   0.873   6.990  0.1020  0.0368  0.1590
 1307ERGO    R117862   6.843   1.027   7.224 -0.0106  0.0127  0.1957
 1307ERGO    R217863   6.644   1.068   7.411 -0.0761 -0.0832  0.1539
 1307ERGO    R317864   6.831   0.971   7.583 -0.0875 -0.0526  0.1819
 1307ERGO    R417865   6.618   1.077   7.755 -0.1386 -0.1169  0.1494
 1307ERGO    R517866   6.830   1.127   7.765 -0.1554 -0.0701  0.1932
 1307ERGO    C117867   6.779   0.991   8.117 -0.1857 -0.1077  0.1731
 1307ERGO    C217868   6.692   0.976   8.463  0.1605  0.0863  0.2077
 1308ERGO   ROH17869   4.106   1.650   7.153  0.2839 -0.1362 -0.0052
 1308ERGO    R117870   4.196   1.761   7.397  0.0770 -0.1070  0.0596
 1308ERGO    R217871   4.101   2.001   7.496 -0.0774 -0.1437 -0.0012
 1308ERGO    R317872   4.048   1.852   7.717 -0.1749 -0.1649 -0.0379
 1308ERGO    R417873   4.109   2.119   7.820 -0.0748 -0.2090  0.0229
 1308ERGO    R517874   4.202   1.932   7.881 -0.1636 -0.2625  0.0010
 1308ERGO    C117875   4.063   2.048   8.217 -0.1648 -0.2668  0.0026
 1308ERGO    C217876   4.079   2.054   8.474 -0.5212 -0.1474 -0.0521
 1309ERGO   ROH17877   0.465   2.958   6.837 -0.1320 -0.2252 -0.0498
 1309ERGO    R117878   0.302   2.868   7.050 -0.1373 -0.1320 -0.0142
 1309ERGO    R217879   0.405   2.792   7.296 -0.1394 -0.0651  0.0082
 1309ERGO    R317880   0.229   2.976   7.390 -0.1108 -0.0088 -0.0472
 1309ERGO    R417881   0.259   2.784   7.609 -0.1135  0.0721  0.0246
 1309ERGO    R517882   0.072   2.848   7.518 -0.1139  0.0580  0.0160
 1309ERGO    C117883   0.009   2.951   7.880 -0.0716  0.2048 -0.0178
 1309ERGO    C217884   0.000   2.889   8.277  0.3051 -0.0605  0.0138
 1310ERGO   ROH17885  10.806  14.302   6.763 -0.0624  0.1222 -0.0626
 1310ERGO    R117886  10.638  14.368   6.980 -0.1210 -0.2557  0.0156
 1310ERGO    R217887  10.622  14.213   7.208  0.3319 -0.3044  0.0325
 1310ERGO    R317888  10.680  14.447   7.333 -0.1309 -0.1603 -0.0066
 1310ERGO    R417889  10.599  14.266   7.549  0.1265 -0.2429  0.0090
 1310ERGO    R517890  10.517  14.464   7.507 -0.2164 -0.4021 -0.0671
 1310ERGO    C117891  10.640  14.518   7.864 -0.4276 -0.0718 -0.0415
 1310ERGO    C217892  10.685  14.657   8.186 -0.0841  0.0751 -0.0557
 1311ERGO   ROH17893  15.483   6.013   6.676 -0.2460 -0.1910  0.0818
 1311ERGO    R117894  15.401   5.959   6.942 -0.1110 -0.1581  0.1307
 1311ERGO    R217895  15.497   5.744   7.086  0.0525 -0.0739  0.1514
 1311ERGO    R317896  15.562   5.935   7.267  0.0358  0.0078  0.0719
 1311ERGO    R417897  15.605   5.682   7.409  0.0751  0.0715  0.1722
 1311ERGO    R517898  15.482   5.849   7.476  0.0569  0.0823  0.1104
 1311ERGO    C117899  15.728   5.826   7.767  0.0725  0.2328  0.1097
 1311ERGO    C217900  15.790   5.973   8.033  0.2254 -0.0324 -0.0031
 1312ERGO   ROH17901  12.822   3.626   6.614  0.0007  0.1106 -0.0243
 1312ERGO    R117902  13.018   3.634   6.817 -0.0275 -0.0892  0.0113
 1312ERGO    R217903  13.026   3.832   7.009  0.2017 -0.0359 -0.0538
 1312ERGO    R317904  13.022   3.622   7.181 -0.1157  0.0219  0.0174
 1312ERGO    R417905  13.074   3.856   7.351  0.5251 -0.0126 -0.0976
 1312ERGO    R517906  13.193   3.673   7.341  0.1326 -0.2826 -0.1354
 1312ERGO    C117907  13.099   3.672   7.711  0.4156  0.0552 -0.0563
 1312ERGO    C217908  13.045   3.590   8.174  0.1773 -0.0742  0.0354
 1313ERGO   ROH17909   5.210   7.982   6.841 -0.1075  0.0123 -0.1266
 1313ERGO    R117910   5.285   8.050   7.105  0.0322  0.1158 -0.1916
 1313ERGO    R217911   5.180   8.267   7.239 -0.1069  0.0074 -0.1241
 1313ERGO    R317912   5.119   8.081   7.427  0.2559 -0.0503 -0.0571
 1313ERGO    R417913   5.197   8.319   7.580 -0.3066  0.2069 -0.1418
 1313ERGO    R517914   5.280   8.118   7.601  0.1384  0.3883 -0.0300
 1313ERGO    C117915   5.151   8.175   7.956 -0.0822  0.2689 -0.0894
 1313ERGO    C217916   5.192   7.993   8.224  0.2238  0.0825 -0.2447
 1314ERGO   ROH17917   3.578   6.758   6.896  0.1035 -0.1489  0.0083
 1314ERGO    R117918   3.413   6.763   7.125  0.0700 -0.0588 -0.0169
 1314ERGO    R217919   3.395   6.550   7.300 -0.0775 -0.0531 -0.0208
 1314ERGO    R317920   3.460   6.738   7.485  0.0019 -0.0905 -0.0105
 1314ERGO    R417921   3.346   6.518   7.641  0.1469 -0.1527  0.0041
 1314ERGO    R517922   3.284   6.727   7.647  0.1082 -0.1683  0.1000
 1314ERGO    C117923   3.378   6.676   8.013  0.3520 -0.2459  0.0281
 1314ERGO    C217924   3.403   6.572   8.317  0.2168 -0.3767 -0.0946
 1315ERGO   ROH17925  10.623   3.075   6.478  0.2522 -0.1504 -0.0265
 1315ERGO    R117926  10.588   3.188   6.735  0.1565 -0.0654 -0.0772
 1315ERGO    R217927  10.419   3.078   6.924  0.0532  0.0252 -0.1229
 1315ERGO    R317928  10.642   3.083   7.079 -0.0188  0.0331 -0.0171
 1315ERGO    R417929  10.419   3.065   7.269 -0.1108 -0.1470 -0.1272
 1315ERGO    R517930  10.578   3.214   7.270 -0.1628 -0.0822  0.0205
 1315ERGO    C117931  10.628   3.062   7.616 -0.2738 -0.2399 -0.0304
 1315ERGO    C217932  10.642   3.010   7.894 -0.0241 -0.2173 -0.2464
 1316ERGO   ROH17933   0.817  14.008   7.334 -0.1403 -0.0309 -0.0150
 1316ERGO    R117934   0.869  14.102   7.596 -0.0090 -0.0119 -0.0473
 1316ERGO    R217935   0.669  14.143   7.782  0.0820  0.0185  0.0450
 1316ERGO    R317936   0.823  13.979   7.935  0.1434  0.0210 -0.0138
 1316ERGO    R417937   0.699  14.164   8.126  0.1942  0.0050  0.0362
 1316ERGO    R517938   0.912  14.123   8.105  0.1905  0.0193 -0.0366
 1316ERGO    C117939   0.861  14.023   8.470  0.3171 -0.0004 -0.0241
 1316ERGO    C217940   0.661  14.197   8.768 -0.2550 -0.0769  0.0679
 1317ERGO   ROH17941  12.033  16.160   6.441  0.1618  0.1619 -0.0057
 1317ERGO    R117942  12.086  16.265   6.699  0.0812  0.0687  0.0486
 1317ERGO    R217943  11.887  16.367   6.862  0.0499  0.1042 -0.0138
 1317ERGO    R317944  11.986  16.189   7.040 -0.1100  0.0191 -0.0197
 1317ERGO    R417945  11.851  16.388   7.205 -0.1342 -0.0007 -0.0258
 1317ERGO    R517946  12.056  16.322   7.226 -0.1742 -0.0703  0.0648
 1317ERGO    C117947  11.923  16.233   7.572 -0.3916 -0.1416 -0.0384
 1317ERGO    C217948  11.924  16.335   7.921  0.0586  0.1774  0.0405
 1318ERGO   ROH17949  15.510   1.233   6.790 -0.0240 -0.1588  0.0706
 1318ERGO    R117950  15.327   1.147   6.988 -0.0256 -0.1581  0.0710
 1318ERGO    R217951  15.386   0.944   7.167  0.0003 -0.1149  0.1214
 1318ERGO    R317952  15.317   1.132   7.351 -0.0524 -0.0863  0.0713
 1318ERGO    R417953  15.333   0.882   7.503  0.2580  0.0131  0.1872
 1318ERGO    R517954  15.164   1.020   7.497  0.1375 -0.1426  0.2218
 1318ERGO    C117955  15.239   1.022   7.871  0.3585  0.1145  0.1784
 1318ERGO    C217956  15.245   1.101   8.104 -0.1028  0.2360 -0.1482
 1319ERGO   ROH17957  11.825  10.348   6.676 -0.0420  0.1134 -0.0105
 1319ERGO    R117958  11.859  10.166   6.890  0.1160  0.0931 -0.0521
 1319ERGO    R217959  12.030  10.215   7.102  0.0000  0.2390  0.0104
 1319ERGO    R317960  11.807  10.166   7.250  0.0115 -0.0684 -0.0662
 1319ERGO    R417961  12.023  10.189   7.446 -0.0843  0.2229  0.0078
 1319ERGO    R517962  11.883  10.024   7.427  0.1460  0.0297 -0.0446
 1319ERGO    C117963  11.811  10.129   7.786 -0.1224 -0.0749 -0.0657
 1319ERGO    C217964  11.925  10.068   8.037 -0.4917  0.1778 -0.1327
 1320ERGO   ROH17965  16.707  13.997   7.095  0.0009  0.0809 -0.1515
 1320ERGO    R117966  16.823  13.996   7.353 -0.1572 -0.1694 -0.0783
 1320ERGO    R217967  16.948  14.218   7.461  0.2781 -0.4349 -0.0165
 1320ERGO    R317968  16.774  14.176   7.666  0.0472 -0.0383 -0.1189
 1320ERGO    R417969  17.022  14.264   7.795  0.0827 -0.3105  0.0119
 1320ERGO    R517970  16.910  14.083   7.840 -0.2221 -0.1201  0.0551
 1320ERGO    C117971  16.902  14.251   8.182 -0.2476  0.1341 -0.0676
 1320ERGO    C217972  16.995  14.368   8.488 -0.1221  0.3430  0.4063
 1321ERGO   ROH17973   3.236  15.406  11.493  0.1370  0.2347  0.0279
 1321ERGO    R117974   3.273  15.458  11.217  0.1228  0.0866 -0.0003
 1321ERGO    R217975   3.419  15.291  11.053  0.0916 -0.0073  0.0849
 1321ERGO    R317976   3.191  15.292  10.904  0.0883 -0.0658  0.0848
 1321ERGO    R417977   3.409  15.283  10.707  0.1128  0.0158  0.0819
 1321ERGO    R517978   3.245  15.427  10.714  0.0597 -0.0269  0.0935
 1321ERGO    C117979   3.189  15.279  10.366  0.1219 -0.0259  0.0801
 1321ERGO    C217980   3.241  15.330  10.013 -0.1736  0.2976 -0.0050
 1322ERGO   ROH17981  12.462   9.366   6.563 -0.0919  0.0478 -0.0066
 1322ERGO    R117982  12.642   9.384   6.781 -0.0097  0.1175 -0.0793
 1322ERGO    R217983  12.622   9.579   6.976 -0.0305  0.0866 -0.0483
 1322ERGO    R317984  12.622   9.365   7.144  0.1497  0.0660 -0.0727
 1322ERGO    R417985  12.635   9.598   7.321 -0.1742  0.0616 -0.0408
 1322ERGO    R517986  12.771   9.428   7.320  0.0178  0.2129 -0.0126
 1322ERGO    C117987  12.643   9.408   7.679 -0.0888  0.0276 -0.0594
 1322ERGO    C217988  12.681   9.259   7.966 -0.0959 -0.1044 -0.0587
 1323ERGO   ROH17989   9.377  12.492  10.895 -0.1632 -0.0958 -0.0925
 1323ERGO    R117990   9.359  12.396  10.629 -0.2061 -0.0976 -0.0907
 1323ERGO    R217991   9.192  12.509  10.440 -0.1048  0.0211 -0.1187
 1323ERGO    R317992   9.421  12.528  10.296 -0.0698 -0.1566 -0.0885
 1323ERGO    R417993   9.209  12.504  10.095 -0.0601 -0.0038 -0.1147
 1323ERGO    R517994   9.388  12.380  10.111 -0.1554 -0.1373 -0.0867
 1323ERGO    C117995   9.435  12.518   9.758 -0.0012 -0.1851 -0.0841
 1323ERGO    C217996   9.476  12.528   9.442 -0.1186  0.0285 -0.1605
 1324ERGO   ROH17997   4.298  15.373   7.264  0.0032 -0.0796  0.0879
 1324ERGO    R117998   4.366  15.486   7.514  0.0303 -0.1071  0.0942
 1324ERGO    R217999   4.189  15.498   7.726  0.0103 -0.0186  0.0795
 1324ERGO    R318000   4.389  15.371   7.858 -0.0631 -0.1145  0.0967
 1324ERGO    R418001   4.212  15.469   8.069  0.0212  0.0490  0.0836
 1324ERGO    R518002   4.426  15.504   8.054  0.0391 -0.0940  0.0598
 1324ERGO    C118003   4.413  15.333   8.394 -0.0412 -0.0016  0.1022
 1324ERGO    C218004   4.343  15.235   8.671  0.0961 -0.0140  0.1116
 1325ERGO   ROH18005   2.363   6.897   6.831  0.2344 -0.0711  0.0212
 1325ERGO    R118006   2.483   6.877   7.087  0.1142  0.0697  0.0899
 1325ERGO    R218007   2.452   7.070   7.282 -0.2635  0.0139  0.0896
 1325ERGO    R318008   2.368   6.860   7.432 -0.0670 -0.1152  0.0231
 1325ERGO    R418009   2.516   7.030   7.619 -0.2074 -0.0382  0.0730
 1325ERGO    R518010   2.549   6.817   7.582 -0.0168 -0.0005 -0.0010
 1325ERGO    C118011   2.474   6.808   7.956  0.0097 -0.1897  0.0009
 1325ERGO    C218012   2.535   6.949   8.279  0.0566  0.1172  0.0506
 1326ERGO   ROH18013   5.110  14.552   7.620  0.1764  0.1099  0.1773
 1326ERGO    R118014   4.928  14.469   7.820  0.0767  0.0291  0.0557
 1326ERGO    R218015   4.989  14.275   8.005  0.0505  0.0753  0.1198
 1326ERGO    R318016   4.917  14.467   8.184 -0.1782  0.0569  0.0490
 1326ERGO    R418017   4.919  14.217   8.339  0.4197  0.1570  0.2164
 1326ERGO    R518018   4.754  14.360   8.323  0.1315 -0.1666  0.2478
 1326ERGO    C118019   4.809  14.364   8.700  0.4199  0.1873  0.2062
 1326ERGO    C218020   4.738  14.518   9.074  0.0433 -0.1020  0.0343
 1327ERGO   ROH18021   1.989   9.351   7.293 -0.1656 -0.0617 -0.0448
 1327ERGO    R118022   1.936   9.383   7.569 -0.2105 -0.0535 -0.0546
 1327ERGO    R218023   1.747   9.233   7.702 -0.0997 -0.1797 -0.0419
 1327ERGO    R318024   1.955   9.176   7.868 -0.0668  0.0157 -0.0141
 1327ERGO    R418025   1.720   9.185   8.044 -0.1348 -0.3645 -0.0690
 1327ERGO    R518026   1.906   9.298   8.068 -0.2806 -0.1320  0.0286
 1327ERGO    C118027   1.901   9.105   8.398 -0.1243 -0.2886 -0.0587
 1327ERGO    C218028   1.823   9.050   8.699  0.3263 -0.0957 -0.0568
 1328ERGO   ROH18029  11.683  14.799   6.631 -0.1071 -0.0762 -0.1085
 1328ERGO    R118030  11.593  14.699   6.880  0.0544 -0.1848 -0.0937
 1328ERGO    R218031  11.766  14.640   7.088  0.1543  0.1041 -0.0988
 1328ERGO    R318032  11.603  14.807   7.228 -0.0985 -0.1275 -0.1047
 1328ERGO    R418033  11.754  14.663   7.433  0.2430  0.2019 -0.1007
 1328ERGO    R518034  11.537  14.680   7.420  0.1943 -0.1861 -0.0329
 1328ERGO    C118035  11.595  14.833   7.764  0.0574  0.0415 -0.1074
 1328ERGO    C218036  11.712  14.881   8.109 -0.0624 -0.1315  0.1593
 1329ERGO   ROH18037  10.418   8.667   6.626  0.2788 -0.0933 -0.0542
 1329ERGO    R118038  10.612   8.746   6.816  0.2044 -0.0286 -0.0046
 1329ERGO    R218039  10.556   8.925   7.019  0.1087 -0.0032 -0.0527
 1329ERGO    R318040  10.653   8.726   7.177  0.0914  0.0397  0.0128
 1329ERGO    R418041  10.540   8.921   7.365  0.1111  0.1135 -0.0507
 1329ERGO    R518042  10.742   8.839   7.368  0.1039  0.0955 -0.0255
 1329ERGO    C118043  10.621   8.731   7.714  0.0963  0.2219  0.0119
 1329ERGO    C218044  10.648   8.714   8.093  0.1799 -0.0430 -0.0993
 1330ERGO   ROH18045  13.088  14.046   6.761 -0.0018  0.1060 -0.0744
 1330ERGO    R118046  13.094  14.172   7.015  0.1559  0.0051 -0.0262
 1330ERGO    R218047  12.867  14.213   7.166  0.2074  0.2055  0.0019
 1330ERGO    R318048  13.010  14.082   7.357  0.0733 -0.0304 -0.0559
 1330ERGO    R418049  12.802  14.225   7.506  0.3023  0.2312  0.0190
 1330ERGO    R518050  13.017  14.234   7.541  0.3268 -0.0722 -0.0279
 1330ERGO    C118051  12.899  14.110   7.882  0.2318  0.0248 -0.0252
 1330ERGO    C218052  12.740  14.167   8.206  0.0277 -0.3538 -0.0280
 1331ERGO   ROH18053  14.168   4.318   6.773 -0.2629 -0.0621  0.1052
 1331ERGO    R118054  14.314   4.372   7.009 -0.1259 -0.1609  0.0447
 1331ERGO    R218055  14.237   4.565   7.191  0.1086 -0.0735  0.0542
 1331ERGO    R318056  14.250   4.359   7.367 -0.0017 -0.0673  0.0706
 1331ERGO    R418057  14.194   4.595   7.532 -0.0220 -0.0494  0.0363
 1331ERGO    R518058  14.357   4.453   7.560 -0.0607 -0.0792  0.1086
 1331ERGO    C118059  14.181   4.418   7.897 -0.2016 -0.0296  0.0413
 1331ERGO    C218060  14.151   4.503   8.236 -0.0324 -0.1479  0.0251
 1332ERGO   ROH18061  11.423  11.722   9.138  0.1134 -0.1191 -0.0829
 1332ERGO    R118062  11.483  11.997   9.108  0.1153 -0.1156 -0.0510
 1332ERGO    R218063  11.616  12.098   8.888  0.0207 -0.0744 -0.0928
 1332ERGO    R318064  11.400  12.262   8.873  0.0210 -0.0615  0.0434
 1332ERGO    R418065  11.628  12.438   8.827  0.0089 -0.0391  0.0971
 1332ERGO    R518066  11.472  12.466   8.975  0.0414 -0.1202  0.1429
 1332ERGO    C118067  11.432  12.789   8.777  0.0023 -0.0064  0.3355
 1332ERGO    C218068  11.502  13.064   8.716  0.1641 -0.0265  0.0354
 1333ERGO   ROH18069   4.428  15.934   7.205  0.2070  0.0132 -0.0170
 1333ERGO    R118070   4.440  16.018   7.475  0.3120 -0.0248 -0.0112
 1333ERGO    R218071   4.257  15.936   7.665  0.2561  0.1288 -0.0093
 1333ERGO    R318072   4.481  15.860   7.800  0.1962 -0.0923 -0.0265
 1333ERGO    R418073   4.282  15.911   8.009  0.1613 -0.1832 -0.0201
 1333ERGO    R518074   4.481  15.997   7.996  0.2108 -0.2570  0.0984
 1333ERGO    C118075   4.506  15.826   8.336  0.0498 -0.5724 -0.0427
 1333ERGO    C218076   4.641  15.754   8.570 -0.0742  0.1301 -0.1355
 1334ERGO   ROH18077   5.247   4.233   6.840  0.0881 -0.2025  0.0247
 1334ERGO    R118078   5.179   4.332   7.097  0.0942 -0.1228 -0.0035
 1334ERGO    R218079   5.031   4.184   7.278  0.0626 -0.0519  0.0324
 1334ERGO    R318080   5.242   4.236   7.442  0.0667 -0.0423  0.0233
 1334ERGO    R418081   5.022   4.172   7.624  0.0619  0.0256  0.0351
 1334ERGO    R518082   5.146   4.350   7.629  0.0823  0.0093 -0.0026
 1334ERGO    C118083   5.214   4.213   7.978  0.0655  0.0798  0.0281
 1334ERGO    C218084   5.210   4.276   8.332  0.1161  0.1871 -0.1355
 1335ERGO   ROH18085   6.103   2.089   7.005 -0.0579 -0.2571 -0.0556
 1335ERGO    R118086   6.035   2.131   7.277 -0.0415 -0.0884 -0.0759
 1335ERGO    R218087   6.075   1.939   7.472 -0.2167 -0.0454  0.0065
 1335ERGO    R318088   6.210   2.140   7.596 -0.0541 -0.1081 -0.0686
 1335ERGO    R418089   6.095   1.982   7.814 -0.1208  0.0221 -0.0079
 1335ERGO    R518090   6.073   2.197   7.784  0.0211  0.0307 -0.0548
 1335ERGO    C118091   6.234   2.195   8.130  0.0877  0.0026 -0.0868
 1335ERGO    C218092   6.188   2.112   8.544  0.0862  0.1867  0.1134
 1336ERGO   ROH18093  16.814   1.249   7.157 -0.2338  0.3135 -0.0983
 1336ERGO    R118094  16.696   1.339   7.398 -0.1498  0.0583  0.0426
 1336ERGO    R218095  16.672   1.178   7.622  0.0657 -0.1356 -0.0643
 1336ERGO    R318096  16.802   1.383   7.744  0.0232 -0.1584  0.0180
 1336ERGO    R418097  16.647   1.255   7.957 -0.1419 -0.1117 -0.0846
 1336ERGO    R518098  16.644   1.466   7.904 -0.0626 -0.1185 -0.0927
 1336ERGO    C118099  16.754   1.493   8.268 -0.3026 -0.1193 -0.0192
 1336ERGO    C218100  16.572   1.470   8.651  0.1641  0.0788  0.2883
 1337ERGO   ROH18101  13.352  11.441   7.010  0.0019 -0.0506  0.0595
 1337ERGO    R118102  13.242  11.483   7.267 -0.0342  0.0151  0.0345
 1337ERGO    R218103  13.083  11.295   7.394 -0.0286  0.0330  0.0753
 1337ERGO    R318104  13.264  11.324   7.594 -0.0536  0.1164  0.0848
 1337ERGO    R418105  13.006  11.304   7.730 -0.0584  0.0806  0.0663
 1337ERGO    R518106  13.154  11.462   7.755 -0.0998  0.1199  0.0479
 1337ERGO    C118107  13.131  11.337   8.114 -0.0992  0.1866  0.0698
 1337ERGO    C218108  13.057  11.346   8.424  0.2201  0.4106  0.1736
 1338ERGO   ROH18109   3.308   4.885   6.836 -0.0133 -0.0334  0.0647
 1338ERGO    R118110   3.297   4.915   7.117 -0.0932 -0.0843  0.0678
 1338ERGO    R218111   3.146   4.749   7.278  0.0353 -0.2539  0.0182
 1338ERGO    R318112   3.382   4.714   7.408  0.0473 -0.0458  0.0537
 1338ERGO    R418113   3.179   4.697   7.619  0.0310 -0.1620  0.0319
 1338ERGO    R518114   3.353   4.828   7.616 -0.0685 -0.0266  0.0280
 1338ERGO    C118115   3.420   4.635   7.938  0.0397  0.0869  0.0733
 1338ERGO    C218116   3.356   4.641   8.310 -0.1694 -0.3073  0.0488
 1339ERGO   ROH18117   1.722   3.909  10.205 -0.0447 -0.0610 -0.1004
 1339ERGO    R118118   1.559   3.892   9.974  0.0587 -0.0958 -0.1721
 1339ERGO    R218119   1.357   4.073   9.921 -0.0917 -0.2551 -0.1564
 1339ERGO    R318120   1.488   4.101   9.685 -0.0241 -0.0120 -0.0919
 1339ERGO    R418121   1.207   4.149   9.619 -0.0237 -0.0791 -0.1464
 1339ERGO    R518122   1.340   4.006   9.522  0.0694  0.0530 -0.2163
 1339ERGO    C118123   1.244   4.220   9.221  0.0795  0.2515 -0.0799
 1339ERGO    C218124   1.115   4.303   8.898 -0.0965 -0.1975 -0.0888
 1340ERGO   ROH18125   0.966   4.793   6.680 -0.0902  0.0114  0.0691
 1340ERGO    R118126   0.834   4.712   6.917 -0.1398 -0.0656  0.0155
 1340ERGO    R218127   0.930   4.510   7.079 -0.1027 -0.0291  0.0387
 1340ERGO    R318128   0.912   4.700   7.273 -0.2659 -0.0486  0.0444
 1340ERGO    R418129   0.980   4.454   7.417 -0.0994 -0.0056  0.0423
 1340ERGO    R518130   0.812   4.587   7.458 -0.2039 -0.1306  0.0284
 1340ERGO    C118131   0.991   4.599   7.795 -0.2508 -0.0102  0.0498
 1340ERGO    C218132   0.921   4.589   8.124 -0.2436  0.1175 -0.0243
 1341ERGO   ROH18133  12.469   3.416   6.743 -0.0869  0.0038  0.0401
 1341ERGO    R118134  12.631   3.442   6.974 -0.0952  0.1327  0.0333
 1341ERGO    R218135  12.588   3.638   7.165 -0.2549  0.0907  0.0494
 1341ERGO    R318136  12.582   3.426   7.334 -0.0649  0.0724  0.0330
 1341ERGO    R418137  12.597   3.660   7.510  0.0756  0.0433  0.0464
 1341ERGO    R518138  12.730   3.488   7.512  0.0968  0.0635 -0.1013
 1341ERGO    C118139  12.597   3.474   7.870  0.4463 -0.0015  0.0293
 1341ERGO    C218140  12.549   3.553   8.184  0.3336  0.1760  0.1419
 1342ERGO   ROH18141  16.246   7.851   6.754 -0.3475  0.0628 -0.0578
 1342ERGO    R118142  16.258   7.885   7.035 -0.1466  0.0761 -0.0670
 1342ERGO    R218143  16.164   8.111   7.162 -0.1940  0.0161  0.0002
 1342ERGO    R318144  16.020   7.931   7.306  0.0362 -0.0742  0.1238
 1342ERGO    R418145  16.110   8.130   7.503 -0.3565  0.2840 -0.0374
 1342ERGO    R518146  16.138   7.914   7.514 -0.0103  0.3307  0.1943
 1342ERGO    C118147  15.943   7.972   7.837 -0.2351  0.3551  0.0568
 1342ERGO    C218148  15.936   7.903   8.179  0.0920 -0.1053 -0.2268
 1343ERGO   ROH18149  12.644  12.184   6.842 -0.4467  0.0527 -0.2298
 1343ERGO    R118150  12.487  12.184   7.077 -0.2274 -0.0021 -0.0808
 1343ERGO    R218151  12.497  11.981   7.263 -0.0109 -0.0145 -0.1117
 1343ERGO    R318152  12.547  12.184   7.436  0.1057 -0.0239 -0.1321
 1343ERGO    R418153  12.402  11.985   7.595 -0.1323  0.1219 -0.1461
 1343ERGO    R518154  12.350  12.196   7.572  0.0586  0.1699 -0.2058
 1343ERGO    C118155  12.394  12.179   7.951 -0.0935  0.1926 -0.1852
 1343ERGO    C218156  12.347  12.112   8.262 -0.1526 -0.0894  0.0908
 1344ERGO   ROH18157   2.376  17.015   7.316  0.1883  0.0821 -0.0018
 1344ERGO    R118158   2.282  17.046   7.581 -0.0055  0.0620 -0.0665
 1344ERGO    R218159   2.451  17.043   7.800 -0.1521  0.1439  0.0496
 1344ERGO    R318160   2.333  17.282   7.853 -0.2851  0.1008 -0.0450
 1344ERGO    R418161   2.361  17.153   8.115 -0.0032  0.3139  0.0338
 1344ERGO    R518162   2.178  17.235   8.030 -0.1247  0.1189  0.1034
 1344ERGO    C118163   2.199  17.442   8.349 -0.0413  0.3726 -0.0641
 1344ERGO    C218164   2.050  17.532   8.705 -0.1855  0.0221 -0.1831
 1345ERGO   ROH18165   2.740  15.611   7.486 -0.0883 -0.2476 -0.0043
 1345ERGO    R118166   2.752  15.498   7.745  0.0011 -0.1829  0.0202
 1345ERGO    R218167   2.904  15.608   7.948  0.0411 -0.1104 -0.0486
 1345ERGO    R318168   2.668  15.602   8.083  0.0795 -0.1139  0.0190
 1345ERGO    R418169   2.869  15.653   8.289  0.1556 -0.2631 -0.0157
 1345ERGO    R518170   2.720  15.495   8.290  0.1151 -0.2262 -0.0468
 1345ERGO    C118171   2.628  15.674   8.614  0.2583 -0.3552  0.0669
 1345ERGO    C218172   2.454  15.681   8.964 -0.2754  0.1340 -0.2392
 1346ERGO   ROH18173   9.870   4.144   6.339 -0.0988  0.0241  0.0930
 1346ERGO    R118174   9.922   4.271   6.587 -0.1113  0.0054  0.1055
 1346ERGO    R218175   9.729   4.297   6.783 -0.1002 -0.0805  0.1314
 1346ERGO    R318176   9.917   4.176   6.939 -0.0458 -0.0467  0.0918
 1346ERGO    R418177   9.736   4.308   7.129 -0.1303 -0.2367  0.1377
 1346ERGO    R518178   9.953   4.331   7.119 -0.1445 -0.1113  0.1650
 1346ERGO    C118179   9.916   4.201   7.476 -0.0968 -0.2958  0.1041
 1346ERGO    C218180   9.947   4.199   7.840  0.2363  0.1971 -0.1993
 1347ERGO   ROH18181  12.238   2.080   6.589  0.2634 -0.1764  0.0166
 1347ERGO    R118182  12.106   2.005   6.828  0.1635 -0.1212 -0.0209
 1347ERGO    R218183  12.223   1.840   7.016  0.1087 -0.0281  0.0934
 1347ERGO    R318184  12.164   2.044   7.185 -0.0205  0.0175 -0.0044
 1347ERGO    R418185  12.266   1.831   7.359 -0.0061  0.1158  0.1127
 1347ERGO    R518186  12.076   1.937   7.380 -0.0518  0.0601  0.0066
 1347ERGO    C118187  12.236   2.018   7.717 -0.1942  0.2424  0.0322
 1347ERGO    C218188  12.175   1.957   8.038  0.0242 -0.1051  0.0632
 1348ERGO   ROH18189   0.795  16.191   6.985  0.0044  0.2258 -0.0817
 1348ERGO    R118190   0.623  16.204   7.210  0.0180  0.1564 -0.0662
 1348ERGO    R218191   0.611  16.003   7.400  0.0433  0.1035 -0.1147
 1348ERGO    R318192   0.662  16.207   7.572  0.0444  0.0643 -0.0691
 1348ERGO    R418193   0.533  16.003   7.737 -0.0124  0.0627 -0.1278
 1348ERGO    R518194   0.473  16.211   7.718  0.0241  0.0710 -0.1006
 1348ERGO    C118195   0.536  16.194   8.094 -0.0438  0.0018 -0.0926
 1348ERGO    C218196   0.544  16.343   8.311 -0.0900 -0.3718  0.1280
 1349W        W18197   6.979   0.859   3.196 -0.0391  0.1651 -0.2017
 1350W        W18198   2.771   3.834  14.828  0.0075  0.5027  0.1229
 1351W        W18199  14.554   9.635  16.555  0.0203  0.0364 -0.4098
 1352W        W18200   1.148   5.285  16.378 -0.0897  0.0762  0.1471
 1353W        W18201   5.000  10.548  12.542 -0.0140  0.0913  0.0646
 1354W        W18202  13.876   4.746  17.167 -0.0349  0.3665  0.1639
 1355W        W18203   9.573  11.220  17.552 -0.1345 -0.0029 -0.1516
 1356W        W18204   9.618  14.324  16.215 -0.2885  0.1460  0.1734
 1357W        W18205  16.366   0.130  14.040 -0.1673  0.2853  0.1637
 1358W        W18206  14.848   4.621   2.627  0.1139 -0.1099  0.0099
 1359W        W18207  13.287  11.581  11.828 -0.0307 -0.1299 -0.1336
 1360W        W18208  15.935   1.241   0.396 -0.0074 -0.2840 -0.0166
 1361W        W18209   6.281  16.595  15.408  0.2916 -0.0928  0.0020
 1362W        W18210   8.861   8.448   1.137 -0.0583 -0.0168  0.1591
 1363W        W18211   5.116   3.557  13.705  0.1734 -0.1113  0.4966
 1364W        W18212   6.048   8.955   1.798 -0.2111  0.1830 -0.0412
 1365W        W18213  10.138  16.338  13.312  0.0138  0.1613 -0.1466
 1366W        W18214  14.922   7.901  12.360 -0.0520 -0.2773 -0.0222
 1367W        W18215   9.681   7.098   4.410  0.0760  0.0670  0.1919
 1368W        W18216   0.113   1.293   2.551 -0.0340 -0.1420  0.1314
 1369W        W18217   3.089   3.123   2.503 -0.1362 -0.2264 -0.1509
 1370W        W18218  14.472   3.347   1.050 -0.0970 -0.0188 -0.1545
 1371W        W18219   7.963   9.446   0.534 -0.1779  0.0153  0.0637
 1372W        W18220   6.071  12.750   0.118  0.2192 -0.2120 -0.0908
 1373W        W18221   4.800   8.691  14.613  0.1295 -0.1976 -0.3450
 1374W        W18222  14.731   6.471   2.964 -0.2540  0.2917 -0.1030
 1375W        W18223  14.292  13.463   5.828  0.0295  0.0932 -0.0414
 1376W        W18224   8.725   5.683   2.411  0.0113  0.1416 -0.0458
 1377W        W18225  15.961   6.211  17.390  0.1173  0.0990 -0.1867
 1378W        W18226  10.142  13.733   2.783 -0.0354  0.2261 -0.0391
 1379W        W18227  16.547   5.663   4.165 -0.1984 -0.2219 -0.1254
 1380W        W18228   2.399   2.298   1.716  0.0596  0.2174 -0.2717
 1381W        W18229   3.104   4.901  15.561  0.2726  0.3638  0.1960
 1382W        W18230  10.503   9.465  12.449 -0.1725 -0.0855  0.0063
 1383W        W18231  14.973   4.767  13.770 -0.0744  0.2023 -0.0502
 1384W        W18232  13.217   3.574  16.458  0.2334 -0.0107  0.5284
 1385W        W18233  10.548   7.260  16.204 -0.1721  0.0395  0.1044
 1386W        W18234  13.830  10.902  12.859  0.0725 -0.2752  0.2600
 1387W        W18235  14.893   4.385  15.177  0.1426 -0.1522 -0.4264
 1388W        W18236  16.928   7.725   2.569  0.2591  0.0058 -0.2033
 1389W        W18237  15.666   2.209  15.558 -0.2203 -0.2532  0.0396
 1390W        W18238  11.206   3.757   4.370  0.0862 -0.1290  0.1365
 1391W        W18239   9.717  14.954  11.078  0.0855  0.2258 -0.2781
 1392W        W18240  12.895   2.029   0.056 -0.1410  0.2079 -0.0977
 1393W        W18241  13.977   4.658  13.479  0.1521 -0.1701  0.0852
 1394W        W18242   0.277  13.664   0.047 -0.0861 -0.0266  0.0322
 1395W        W18243  13.617  14.677   2.193 -0.2129 -0.2928  0.0570
 1396W        W18244   2.906  10.535   3.227 -0.0889 -0.0856 -0.3585
 1397W        W18245  11.651  12.000  13.555  0.0409  0.0129  0.1123
 1398W        W18246   9.601   2.198   5.872 -0.2376  0.1059  0.0663
 1399W        W18247   4.457   1.764   5.541  0.2394 -0.0160  0.0454
 1400W        W18248   7.156   6.012  15.696 -0.2294 -0.1065 -0.0450
 1401W        W18249   3.588  15.811  16.019  0.1140 -0.0111  0.1421
 1402W        W18250  12.173   2.852  12.039 -0.1415 -0.0279 -0.1857
 1403W        W18251   3.214   0.492  12.685  0.1142  0.3898  0.0420
 1404W        W18252  12.283   8.683   4.424  0.1529  0.1985 -0.2359
 1405W        W18253   3.000  11.446   5.707 -0.0509 -0.0166 -0.0931
 1406W        W18254   3.911  10.874   6.164 -0.1609  0.2405 -0.2502
 1407W        W18255   2.967  16.843   2.461 -0.2506  0.3157 -0.0240
 1408W        W18256  10.518  13.873  15.902 -0.1441 -0.1722 -0.1196
 1409W        W18257   3.547  15.934   4.955  0.3369  0.2099 -0.2293
 1410W        W18258  13.174  13.880   3.724  0.0675  0.1872  0.2621
 1411W        W18259   2.618   0.142   3.902  0.0742 -0.0486 -0.2395
 1412W        W18260  16.611   1.976  14.993  0.1453  0.2210 -0.3932
 1413W        W18261   1.399  16.236   5.903 -0.3090  0.0782 -0.0742
 1414W        W18262   7.600  14.930   4.293 -0.0724 -0.0116  0.2236
 1415W        W18263   9.488   7.042  15.366 -0.1281 -0.2778 -0.0554
 1416W        W18264   6.209   8.134  14.029 -0.3425  0.1306  0.0558
 1417W        W18265  10.096  12.184   1.872  0.1604  0.1432 -0.1616
 1418W        W18266   5.173   1.035  14.560 -0.0225  0.0197  0.1086
 1419W        W18267  14.839  15.155   4.069 -0.1104 -0.2022  0.2214
 1420W        W18268  14.226  12.578   3.031  0.1836  0.0436 -0.0256
 1421W        W18269   5.369   3.559   3.476 -0.1526 -0.0310 -0.0620
 1422W        W18270   5.997   6.778   4.998  0.1479 -0.1988 -0.0674
 1423W        W18271   9.855  13.566   4.549  0.1049  0.1908 -0.1019
 1424W        W18272   3.725   9.963   1.499 -0.3286  0.2880 -0.0113
 1425W        W18273   1.519   4.256   5.412 -0.0437 -0.0565 -0.0943
 1426W        W18274   4.806  10.678  16.873 -0.1813  0.3190  0.0134
 1427W        W18275   6.220   3.025   2.590 -0.2016 -0.0202  0.0304
 1428W        W18276   4.044   8.683  16.441 -0.0540 -0.3788  0.0954
 1429W        W18277  16.222  12.409   6.844  0.1508  0.2012  0.1445
 1430W        W18278   3.014  15.415   2.927 -0.1535  0.3542 -0.0603
 1431W        W18279   9.728   2.814   3.914  0.4940 -0.1183  0.0823
 1432W        W18280   5.404   9.009  16.748  0.0633 -0.3639 -0.1101
 1433W        W18281   6.515   8.307   0.167  0.0573  0.1608  0.3398
 1434W        W18282   9.980  11.092   3.838  0.2993 -0.0422 -0.1860
 1435W        W18283   7.269   6.654   0.825 -0.0858  0.1944  0.0128
 1436W        W18284   5.396  13.801   2.495 -0.1479 -0.3795 -0.0379
 1437W        W18285   9.364  11.278  13.647  0.0146 -0.0646  0.0011
 1438W        W18286  12.964   4.325   2.997 -0.1089 -0.0571  0.1215
 1439W        W18287   2.063  12.040  15.548 -0.2333  0.1192 -0.2851
 1440W        W18288  17.025   4.978  14.159 -0.1366 -0.0108 -0.0938
 1441W        W18289  13.571   1.209   2.905 -0.1386 -0.2062  0.2133
 1442W        W18290   1.321  16.686  13.105 -0.3240 -0.2990 -0.2442
 1443W        W18291   0.585  13.116   3.119 -0.0411 -0.4205  0.0570
 1444W        W18292   5.161  15.560   1.434  0.0506  0.0609  0.2609
 1445W        W18293   8.093   2.442  12.275 -0.1250 -0.0155  0.0380
 1446W        W18294   3.848  16.508  16.975  0.0591 -0.0701 -0.2432
 1447W        W18295  15.389  14.728  17.457 -0.1197  0.1992 -0.1280
 1448W        W18296   3.361  14.386   3.673 -0.1085  0.1855 -0.0540
 1449W        W18297  16.694   1.355   0.549  0.0751  0.1273  0.3445
 1450W        W18298  13.365  16.688   1.253 -0.0348  0.1963  0.0627
 1451W        W18299   7.334  14.137  16.087  0.0070 -0.1042  0.1308
 1452W        W18300  16.415   0.063   3.475 -0.2120 -0.2273 -0.0375
 1453W        W18301   8.952   9.932   1.955  0.5155 -0.1411 -0.4276
 1454W        W18302   1.730  12.703  12.253  0.0111 -0.1097 -0.1075
 1455W        W18303  15.400  14.803  15.364 -0.0294 -0.1308  0.2525
 1456W        W18304   7.459  15.116  14.198  0.1231  0.1677  0.2104
 1457W        W18305  13.491   3.345  15.090  0.0044 -0.0640 -0.1366
 1458W        W18306   3.748   7.625   2.847  0.0666  0.1121 -0.1424
 1459W        W18307   7.388   6.019   4.237  0.1603 -0.1486  0.0893
 1460W        W18308   2.774   7.461   2.240 -0.2955  0.0751 -0.1891
 1461W        W18309   4.738  12.035   4.957 -0.2298 -0.1685 -0.2681
 1462W        W18310   4.066   1.954   6.723  0.1068 -0.0340 -0.0555
 1463W        W18311  15.400  11.809   3.278  0.0864 -0.1077  0.0986
 1464W        W18312  12.326   8.541  17.530  0.1400 -0.2155 -0.3259
 1465W        W18313  15.023   2.360   2.282  0.0434 -0.3594 -0.0546
 1466W        W18314   5.016  12.703  15.741 -0.4231 -0.1487 -0.0521
 1467W        W18315   7.976  13.301   2.646 -0.5544 -0.3396  0.0240
 1468W        W18316   9.293  14.028  16.579  0.2040  0.3013 -0.2547
 1469W        W18317   9.056   0.166  17.152 -0.2238 -0.1780  0.3443
 1470W        W18318   2.265  13.323  17.086  0.1372 -0.0928 -0.3070
 1471W        W18319  13.500  15.922  17.294  0.0633  0.0378  0.0893
 1472W        W18320   9.392  13.629  13.614 -0.0313  0.0731 -0.0950
 1473W        W18321   2.190   9.393   2.280 -0.1411  0.0454 -0.2776
 1474W        W18322   8.717  16.642  14.372  0.2678  0.0484 -0.2698
 1475W        W18323  10.239  13.812   4.446 -0.0569 -0.1134  0.2385
 1476W        W18324   6.927   2.032  15.832 -0.0542 -0.2722  0.1041
 1477W        W18325  13.925   3.775  17.063 -0.0164  0.1543  0.0285
 1478W        W18326  11.799   6.822   3.758  0.0391  0.2598 -0.0825
 1479W        W18327   3.100  12.407   2.961  0.1751  0.0220 -0.1685
 1480W        W18328  15.647   1.837   1.063  0.1205  0.2631 -0.0695
 1481W        W18329   8.985  12.597   1.464  0.0841 -0.1214 -0.0969
 1482W        W18330   1.282   3.129  16.587 -0.2107  0.0663 -0.2117
 1483W        W18331   5.885   6.673  12.411 -0.3079  0.0901 -0.0873
 1484W        W18332   2.902   9.296  15.785 -0.1876  0.2700  0.1619
 1485W        W18333  13.608  13.987  16.448 -0.1654 -0.0486  0.1025
 1486W        W18334   3.091  10.865   5.795  0.0661  0.2125 -0.1901
 1487W        W18335   9.095   9.779   0.006  0.1984 -0.1274 -0.0935
 1488W        W18336  15.706   4.013   5.274 -0.2963 -0.0477  0.0028
 1489W        W18337   7.665   9.857  12.822 -0.0656 -0.0739  0.0911
 1490W        W18338  14.858   6.203  12.206  0.2345 -0.2834 -0.3104
 1491W        W18339  11.377   9.409   4.774 -0.0083  0.2412  0.0227
 1492W        W18340   4.419   3.637  14.573 -0.2365 -0.4376 -0.2706
 1493W        W18341   2.192  15.863   1.712 -0.2726  0.0450 -0.3844
 1494W        W18342   1.373   3.772  16.163  0.0792  0.0546 -0.1139
 1495W        W18343  14.902  16.915  16.037 -0.0458  0.0524  0.0540
 1496W        W18344   0.045   1.175   0.714 -0.3573  0.0559  0.0592
 1497W        W18345  12.509  14.419  14.387 -0.0586 -0.0373  0.0476
 1498W        W18346   9.977   7.848  16.806 -0.0188  0.1958  0.0360
 1499W        W18347  11.420  12.777  14.310 -0.1160  0.0182 -0.1544
 1500W        W18348  10.508   7.393  14.988 -0.0654  0.0167  0.1397
 1501W        W18349  16.937   7.571   0.981 -0.1849 -0.1232 -0.0516
 1502W        W18350  11.232  10.161   3.658  0.1221  0.2160 -0.0458
 1503W        W18351   1.999   2.989  17.599  0.0266 -0.0095 -0.0089
 1504W        W18352   4.609   2.278  16.847  0.0816  0.2439  0.2624
 1505W        W18353   9.062   9.958   4.341 -0.0241 -0.2654 -0.2506
 1506W        W18354  13.710   5.925   1.437  0.1016 -0.0092  0.2581
 1507W        W18355  10.455   4.868   3.357 -0.0476 -0.0340  0.1943
 1508W        W18356  15.506  12.931  17.103 -0.2580  0.1144  0.0335
 1509W        W18357   7.235   3.602  15.909  0.0449 -0.1674 -0.0508
 1510W        W18358  11.036  16.171  12.465 -0.2004  0.1897  0.1544
 1511W        W18359  14.092  12.161   2.054 -0.2180  0.1268  0.1041
 1512W        W18360   7.749  10.455   4.335  0.2675 -0.1628  0.1338
 1513W        W18361   2.071   2.618  12.889 -0.0632 -0.0721 -0.2198
 1514W        W18362   3.745   9.490   3.488 -0.1861  0.2397 -0.2238
 1515W        W18363   8.876   2.753   2.272 -0.1274  0.0255  0.3580
 1516W        W18364  16.463   6.163  16.676 -0.2016 -0.1779 -0.0988
 1517W        W18365  16.976  16.662  16.251  0.0082 -0.0511  0.0865
 1518W        W18366   6.020   6.246  12.165 -0.0471 -0.1343  0.1328
 1519W        W18367   1.647   3.352   2.913 -0.2422  0.2844 -0.4479
 1520W        W18368   8.416   5.046  17.094 -0.0872  0.0747  0.0767
 1521W        W18369   3.142   2.770   3.656 -0.1772  0.1707  0.0496
 1522W        W18370   2.008  11.038   1.516  0.0786  0.0251 -0.2279
 1523W        W18371   9.674  16.499   3.888  0.1106 -0.0371 -0.0427
 1524W        W18372   6.382   0.058   1.270 -0.2656 -0.0126 -0.1092
 1525W        W18373  10.791  13.786  16.292 -0.1418 -0.0629  0.2442
 1526W        W18374   2.763   8.742  12.109 -0.1486  0.3664 -0.2083
 1527W        W18375   2.391   6.075  16.227 -0.0329 -0.1167 -0.3579
 1528W        W18376   8.529   1.306  14.925 -0.3017  0.1808 -0.3089
 1529W        W18377  13.871   2.085  14.982 -0.0140 -0.0845  0.0787
 1530W        W18378  10.460   4.915  13.791  0.4207  0.3681 -0.4142
 1531W        W18379  16.124   4.890   0.093 -0.1450 -0.0213 -0.1616
 1532W        W18380  16.712  13.334  12.508  0.1990 -0.1617  0.3454
 1533W        W18381  10.529  13.254  15.185 -0.1515  0.0207 -0.2056
 1534W        W18382   0.403  16.754   3.749  0.1501  0.0016  0.0316
 1535W        W18383   2.198  14.743   0.099  0.2799 -0.4352 -0.0343
 1536W        W18384   6.607   5.563  15.333 -0.0092 -0.1686  0.1844
 1537W        W18385   0.072   0.466   3.749 -0.0062  0.0838 -0.3443
 1538W        W18386   4.987   1.614  13.658  0.1457 -0.1304  0.1585
 1539W        W18387   4.744  16.577  13.827  0.1714  0.1000 -0.0186
 1540W        W18388   0.002   5.700  17.683  0.2445 -0.1760  0.0778
 1541W        W18389  17.114   3.331  16.439  0.0481 -0.0594 -0.2002
 1542W        W18390  16.446  17.110   5.605 -0.0532 -0.3908 -0.0672
 1543W        W18391   0.634  10.238   0.973 -0.0806 -0.0607  0.0725
 1544W        W18392   3.856   7.924  11.543  0.0213 -0.1524  0.1804
 1545W        W18393  16.496   5.470   1.675  0.3465  0.0825  0.1613
 1546W        W18394   5.861   8.837   4.656  0.1066 -0.4856  0.3924
 1547W        W18395  13.886   8.074  16.981 -0.5349 -0.1314 -0.1503
 1548W        W18396   3.706  13.004   0.630 -0.1639 -0.0650  0.1164
 1549W        W18397  16.042  15.461  16.698 -0.3617  0.2486  0.0174
 1550W        W18398   0.233  16.555   1.577  0.1847  0.1516 -0.0420
 1551W        W18399   6.690  15.525   2.020  0.0662 -0.2646  0.0876
 1552W        W18400  10.476   0.091  12.410  0.2766  0.1963  0.1030
 1553W        W18401   4.607  14.262   4.635  0.0027  0.2470  0.0992
 1554W        W18402  10.415   8.349   0.165 -0.0510 -0.0364  0.3907
 1555W        W18403   6.497  11.163  13.458 -0.5202  0.0409 -0.0830
 1556W        W18404  13.520  10.215   5.217  0.0740  0.1442  0.1980
 1557W        W18405   9.038  10.864  13.890  0.0001  0.0770 -0.1801
 1558W        W18406  14.640   6.327  12.640 -0.1317  0.0117 -0.0627
 1559W        W18407   7.261   0.335   6.376 -0.0964 -0.0670 -0.3557
 1560W        W18408   7.540   7.087   1.657  0.1300 -0.0777 -0.0855
 1561W        W18409   9.030  11.663  13.562  0.3379  0.0248 -0.1120
 1562W        W18410   9.321   7.247   4.076 -0.0985  0.0559 -0.1607
 1563W        W18411   6.980  13.264   4.632 -0.3054  0.0801  0.0600
 1564W        W18412  16.690  15.724   0.571  0.2776 -0.0631 -0.0278
 1565W        W18413  16.476  11.332  12.419 -0.1267 -0.1000  0.3855
 1566W        W18414  15.402   8.343  16.010 -0.1129 -0.1126 -0.0633
 1567W        W18415  11.565   5.910  14.603 -0.1768 -0.1296 -0.0107
 1568W        W18416  11.436   9.139   0.681  0.0895  0.0197  0.1749
 1569W        W18417   2.709  12.475  15.141 -0.2623  0.1116  0.2831
 1570W        W18418   6.098   3.996  15.305  0.1555  0.0062  0.0844
 1571W        W18419   0.760  10.371  13.752  0.1593  0.0836  0.1402
 1572W        W18420   6.439  16.847   4.858 -0.0550  0.0823  0.1309
 1573W        W18421   8.783  11.415  16.709  0.1135 -0.0741  0.0602
 1574W        W18422   0.351   3.845  16.001  0.1579 -0.2495  0.0235
 1575W        W18423  16.307   9.782  13.091  0.0606 -0.1044  0.2963
 1576W        W18424  16.748   7.797  17.616 -0.1579 -0.1025 -0.0097
 1577W        W18425   1.616   3.729  14.970  0.3551  0.2099  0.2632
 1578W        W18426  14.213   0.477  16.097 -0.0202 -0.0847  0.1810
 1579W        W18427   7.515  10.569  14.886  0.0752  0.0530  0.0561
 1580W        W18428  16.689  12.067   2.645  0.2310  0.0135  0.0690
 1581W        W18429  11.066   1.070  14.271 -0.1687 -0.0788  0.3256
 1582W        W18430   6.667   0.998  13.752  0.0304 -0.1807 -0.1233
 1583W        W18431  14.498   1.117   2.280 -0.0488 -0.1391  0.0251
 1584W        W18432  16.270  11.655  15.676 -0.0338 -0.0780 -0.1827
 1585W        W18433   7.828  11.659   4.709  0.0725  0.0633 -0.4317
 1586W        W18434   2.852  16.937  16.796  0.1017  0.2367 -0.3059
 1587W        W18435   9.776  16.614  13.671 -0.4550  0.2330  0.2342
 1588W        W18436   2.003   7.089   4.725 -0.1602  0.2159 -0.0289
 1589W        W18437   9.513   3.281   3.867 -0.3076 -0.1269 -0.4335
 1590W        W18438   3.005   9.727  15.576 -0.0837  0.1078  0.2593
 1591W        W18439  16.653   1.976  14.459 -0.1849  0.2599  0.1731
 1592W        W18440   4.532   4.476   1.963 -0.2264 -0.2589 -0.1666
 1593W        W18441  15.785   1.822  14.854  0.0165  0.1936 -0.0446
 1594W        W18442  10.845   4.356   5.011  0.0916  0.0363  0.2156
 1595W        W18443   2.361   3.594   5.593 -0.3326 -0.2129  0.1723
 1596W        W18444   4.031   5.398  14.527  0.1160  0.0481 -0.2215
 1597W        W18445   0.658   7.301   4.873  0.0827  0.2208  0.3709
 1598W        W18446   2.840   3.226  13.817 -0.1701  0.1359 -0.1646
 1599W        W18447   8.026   7.135   4.802 -0.0814  0.0294  0.1887
 1600W        W18448   8.648   4.668  16.851  0.0870  0.0693  0.1052
 1601W        W18449  11.791   1.050  13.211  0.0797 -0.1743 -0.0721
 1602W        W18450  11.461   2.257   3.621 -0.2705  0.1339  0.0290
 1603W        W18451  16.127  13.061   1.879  0.0330  0.0115 -0.2450
 1604W        W18452   1.938   6.712  17.574  0.0926 -0.0650 -0.0559
 1605W        W18453   8.392  12.850  17.610 -0.0104  0.1904  0.0180
 1606W        W18454  10.572   5.837   2.119  0.0325 -0.0388 -0.0189
 1607W        W18455  14.020  15.576   2.529  0.0772 -0.2430  0.1602
 1608W        W18456   4.215   9.219  15.282 -0.1049  0.0095  0.0232
 1609W        W18457   6.074   6.366  17.602 -0.3229 -0.2944 -0.3254
 1610W        W18458  16.971   1.044  12.070 -0.2350 -0.0343 -0.0276
 1611W        W18459   2.574  17.134   6.118  0.3042 -0.0022  0.0821
 1612W        W18460   4.848  13.903   5.293  0.1093 -0.0187 -0.0264
 1613W        W18461   9.339   7.426   1.900 -0.0691 -0.2705 -0.1478
 1614W        W18462   5.955  11.922  13.452  0.2814 -0.2179 -0.1853
 1615W        W18463   6.909  12.520  17.238 -0.0467  0.1012  0.1211
 1616W        W18464  15.591   5.168  15.431  0.3591  0.4563 -0.1034
 1617W        W18465  12.725  10.253  17.424  0.0647  0.1351  0.0611
 1618W        W18466   6.041   8.766  14.568  0.2819 -0.0681 -0.0209
 1619W        W18467   4.886  16.386   4.074 -0.1810 -0.1709  0.1047
 1620W        W18468  16.999  14.760  14.898  0.1710  0.0937 -0.1768
 1621W        W18469   6.781  14.072   4.953 -0.0906  0.0496 -0.2146
 1622W        W18470   2.917  15.870  15.322 -0.0030 -0.0994  0.0604
 1623W        W18471  12.182   6.458   4.544  0.0873 -0.2093 -0.2819
 1624W        W18472  14.179   8.158   5.577 -0.1748 -0.1258 -0.1175
 1625W        W18473  14.098   8.372  14.988 -0.0388 -0.4932  0.2330
 1626W        W18474  13.191  12.816  14.185 -0.2340 -0.1746  0.1067
 1627W        W18475  15.696   3.070  13.978 -0.1621 -0.1852 -0.1712
 1628W        W18476  11.302  14.256   1.538  0.2571 -0.0394  0.0677
 1629W        W18477   7.634   6.839   3.049 -0.0851 -0.2947 -0.2456
 1630W        W18478   4.038   0.151   6.040  0.0583  0.1285  0.0353
 1631W        W18479   3.950  13.682   4.977 -0.0005 -0.1037 -0.0880
 1632W        W18480   9.891   5.154   6.005 -0.1775 -0.0513  0.0268
 1633W        W18481  16.678  10.064  12.066 -0.0443  0.2945 -0.1154
 1634W        W18482  11.322   3.237  13.045  0.1977  0.3355 -0.1901
 1635W        W18483   8.801  16.144  16.161  0.0280 -0.2941  0.3957
 1636W        W18484   4.902   0.484  11.366  0.4046  0.2212  0.2558
 1637W        W18485   8.139   1.162  14.713  0.0906 -0.1525 -0.1645
 1638W        W18486   6.362   7.042   0.578  0.0917 -0.0101  0.1576
 1639W        W18487  11.913  13.440  15.560  0.1231 -0.4386 -0.0760
 1640W        W18488  17.137  12.450   1.542  0.2725  0.0595 -0.1531
 1641W        W18489   4.825   3.955  14.664  0.1891  0.0953  0.1636
 1642W        W18490  13.784  14.319   0.941 -0.1567 -0.2849 -0.4146
 1643W        W18491   1.405  15.951   6.309  0.0184  0.4105 -0.2173
 1644W        W18492   1.458   8.583  14.100 -0.1485  0.2825 -0.2883
 1645W        W18493   5.906   1.066   6.279 -0.1286  0.0628  0.1766
 1646W        W18494   6.158   1.502   3.976 -0.3475  0.0188 -0.0095
 1647W        W18495   3.239   6.373  15.202 -0.0997  0.1457  0.0093
 1648W        W18496  14.666  12.231  13.501 -0.1019  0.3525  0.0112
 1649W        W18497   1.846  13.517   2.589  0.1326 -0.0587  0.0798
 1650W        W18498   1.694   6.593   5.233  0.4687  0.1815 -0.1904
 1651W        W18499   5.951   7.413   1.016  0.1075 -0.3310  0.0091
 1652W        W18500  12.841  14.376  16.705 -0.0909  0.2693  0.1375
 1653W        W18501   1.899  15.341  16.265  0.2449 -0.0295 -0.0385
 1654W        W18502   8.279  13.919   1.943 -0.0970 -0.0276  0.2355
 1655W        W18503   3.797  16.842   2.080  0.1103  0.2702 -0.0075
 1656W        W18504   1.198   6.454   1.882  0.0500  0.1586 -0.0506
 1657W        W18505   8.322   7.667   0.357  0.2896 -0.0517  0.3264
 1658W        W18506  14.305   2.692   5.661 -0.0419  0.0517 -0.1676
 1659W        W18507   5.795  11.422  15.749 -0.0984  0.0619 -0.1029
 1660W        W18508  16.905   4.112   0.676 -0.0360 -0.1564 -0.3004
 1661W        W18509  10.746  13.134  13.530 -0.1706 -0.1876 -0.0193
 1662W        W18510   4.072   5.022   2.793 -0.0959 -0.0200 -0.0119
 1663W        W18511   5.316   0.263   1.206 -0.1155  0.0213 -0.0225
 1664W        W18512  15.064   7.693   4.512  0.1027 -0.2337  0.1907
 1665W        W18513   4.421   2.355   6.752  0.0845 -0.0602  0.0597
 1666W        W18514   2.904   7.488  12.722  0.2456 -0.0038 -0.0215
 1667W        W18515  12.897   0.119   5.111 -0.3234 -0.0261  0.1334
 1668W        W18516   2.245  12.794   1.137 -0.0489 -0.2742  0.1611
 1669W        W18517   1.669   6.631  14.023  0.0329 -0.0304 -0.1234
 1670W        W18518   1.833  13.734  13.588 -0.1597  0.0110  0.2257
 1671W        W18519  15.691   0.542  16.532  0.1470  0.0355  0.0459
 1672W        W18520  15.620   8.422   4.438 -0.1137  0.2193  0.4821
 1673W        W18521   1.342   9.819   0.377  0.1619 -0.0406 -0.0080
 1674W        W18522   1.383   6.027   4.116  0.0935 -0.0221  0.1691
 1675W        W18523  13.928  14.736  14.594 -0.2989 -0.2001 -0.2455
 1676W        W18524  15.486  13.684  16.546  0.0140 -0.2791  0.0454
 1677W        W18525  12.525  16.022  12.545 -0.1583 -0.1297  0.3101
 1678W        W18526  14.909  10.937   3.635  0.1082 -0.1873  0.2267
 1679W        W18527   9.964  10.321   3.133  0.0430  0.0841 -0.3105
 1680W        W18528   8.751   0.872  12.310  0.0800  0.4679 -0.0558
 1681W        W18529   4.189  10.486  14.366 -0.4690  0.1045 -0.0409
 1682W        W18530  15.302  16.829   4.935 -0.0385  0.1174 -0.2600
 1683W        W18531  13.868   7.845   4.546 -0.1249  0.0490  0.2819
 1684W        W18532  17.047  10.681   0.908 -0.0890  0.1660  0.1882
 1685W        W18533  12.421   9.407  15.202  0.0380 -0.0900 -0.2382
 1686W        W18534  11.821  15.738  13.248 -0.0222  0.0598 -0.0929
 1687W        W18535   1.056   1.493  16.178 -0.1249  0.0322  0.2342
 1688W        W18536   7.252  15.062   5.510  0.0163 -0.0329  0.3451
 1689W        W18537   9.755  12.941   5.299  0.0614  0.1330 -0.2247
 1690W        W18538  17.042  16.194   1.774 -0.1000 -0.3086 -0.0390
 1691W        W18539   3.805   5.122   4.554 -0.0597  0.0533 -0.2581
 1692W        W18540  12.818   9.078   2.345  0.1112  0.2571 -0.0116
 1693W        W18541   2.747  15.028   3.025 -0.5095 -0.0482 -0.1207
 1694W        W18542   4.490   2.106   2.458 -0.5139  0.1154 -0.1424
 1695W        W18543  15.041  15.433   0.988  0.1292 -0.2618 -0.1635
 1696W        W18544  17.166   0.890   2.239  0.0323 -0.1643 -0.2184
 1697W        W18545   3.254   2.780  17.389  0.1988 -0.1283 -0.3276
 1698W        W18546  10.107  13.091  15.919  0.0614  0.3230  0.3316
 1699W        W18547   4.125  13.597   1.592  0.2832 -0.1036  0.1494
 1700W        W18548  10.580   0.135  13.994  0.1633  0.1488 -0.0157
 1701W        W18549   1.647   5.917  16.864  0.2097  0.0388 -0.0756
 1702W        W18550   9.732   5.599  12.543  0.1174  0.0720 -0.0502
 1703W        W18551  17.158   2.241   0.675  0.3969  0.0724  0.2106
 1704W        W18552   4.804   7.486   1.024 -0.0258 -0.5120 -0.0274
 1705W        W18553  13.502  17.023  15.161 -0.0735  0.1572 -0.3521
 1706W        W18554   6.399  11.769  14.694 -0.0672 -0.2248  0.3624
 1707W        W18555   4.267   4.284  15.596 -0.3371 -0.2822 -0.1132
 1708W        W18556   7.243  10.444   0.743 -0.1286 -0.2543  0.1523
 1709W        W18557   0.846  12.642  17.369  0.1739 -0.1785  0.0772
 1710W        W18558   2.271   9.819   6.043 -0.0369 -0.0792  0.0737
 1711W        W18559   9.007   6.399   1.013  0.3916  0.3284 -0.0215
 1712W        W18560   6.302   5.148   0.310 -0.0024 -0.3465  0.0440
 1713W        W18561   8.022   8.065  17.503 -0.1045  0.1659  0.2109
 1714W        W18562   9.219   0.150  15.343 -0.2778 -0.2184  0.0233
 1715W        W18563  10.765  15.385  15.747 -0.2755  0.0347  0.0057
 1716W        W18564   6.530  13.227   0.548  0.0710  0.1482  0.0371
 1717W        W18565   3.219  13.258   5.657  0.0509 -0.0329 -0.0651
 1718W        W18566   7.750   3.989  14.607  0.0780  0.1083 -0.0858
 1719W        W18567  17.138  15.812   4.065 -0.0489 -0.2933  0.1997
 1720W        W18568  14.725   3.764   3.869  0.2970 -0.0282  0.0910
 1721W        W18569   9.245  12.117  15.563 -0.4380  0.2634  0.2183
 1722W        W18570  13.275  15.551  14.297  0.1287 -0.1358  0.1059
 1723W        W18571  10.076  12.860   0.644 -0.4425  0.1115  0.2743
 1724W        W18572  12.624   7.338  15.521  0.2198  0.0983 -0.0097
 1725W        W18573   5.053   8.020   4.201 -0.1720 -0.0968 -0.3544
 1726W        W18574  13.777   6.032   3.074  0.3524 -0.2098 -0.0842
 1727W        W18575  12.937  12.558  15.778 -0.0371 -0.3770  0.0590
 1728W        W18576   0.796  14.008  16.431 -0.3811 -0.1074 -0.0402
 1729W        W18577   4.364  10.628  16.153  0.5323 -0.2060 -0.0448
 1730W        W18578  12.350  14.459   0.986 -0.2511 -0.0828  0.0307
 1731W        W18579   3.778   6.347   4.133 -0.2645  0.0935 -0.0324
 1732W        W18580   2.166  13.640  14.509  0.0084 -0.2311  0.2392
 1733W        W18581  13.212  16.468  12.630  0.1140 -0.2231 -0.1430
 1734W        W18582  10.373  15.177   2.336 -0.4184 -0.0470 -0.2752
 1735W        W18583   2.749  12.695  17.776  0.0578  0.3156 -0.3768
 1736W        W18584   6.146   5.892   4.610  0.1015  0.0406  0.0179
 1737W        W18585   4.739   2.219   1.179  0.1544 -0.0439  0.1066
 1738W        W18586   2.032  17.005   1.049 -0.0195  0.0340 -0.3181
 1739W        W18587   1.753   2.412   2.515  0.1120  0.1158  0.3235
 1740W        W18588   6.810  16.016  14.898  0.2054 -0.0962 -0.2871
 1741W        W18589   8.859   1.861  15.732 -0.0145 -0.1318  0.3300
 1742W        W18590  10.026  11.948  16.580  0.0161  0.1244  0.2400
 1743W        W18591   2.350   6.809  13.002 -0.0862 -0.2249  0.0432
 1744W        W18592   0.688   5.202   1.671  0.0530 -0.0687  0.1572
 1745W        W18593   0.068   3.412  14.332 -0.4072 -0.0142 -0.0337
 1746W        W18594  15.860  16.709   1.282 -0.2253  0.1436 -0.1537
 1747W        W18595   9.260  11.350   2.608 -0.1770  0.1775  0.0832
 1748W        W18596   5.083  16.459   1.480  0.1130  0.0283 -0.1468
 1749W        W18597   4.201   7.420   0.259  0.0097  0.1434  0.0923
 1750W        W18598   1.833   4.674  16.910  0.1203 -0.2963  0.3754
 1751W        W18599  14.668  12.853   1.141 -0.2194 -0.0586  0.3041
 1752W        W18600   9.980   3.583  15.336 -0.0373  0.2210  0.3288
 1753W        W18601  10.812   6.562   4.469  0.1654 -0.0321  0.0230
 1754W        W18602  14.659   3.591   1.469  0.0433 -0.1653 -0.1151
 1755W        W18603  10.895  15.688  17.675  0.2005  0.1085  0.2759
 1756W        W18604   1.814   5.812   3.435 -0.1457  0.1873  0.0779
 1757W        W18605   6.721  10.067  17.300 -0.1915 -0.0886  0.2235
 1758W        W18606   8.656   4.106   4.794  0.0161  0.0359 -0.1477
 1759W        W18607   0.816   2.872   5.630  0.3214 -0.0233 -0.3580
 1760W        W18608   4.724  16.509   0.027 -0.1236  0.0505  0.0623
 1761W        W18609   1.682  14.376  14.329 -0.0006  0.2750  0.1722
 1762W        W18610  13.454   2.954  16.698  0.0982  0.3022  0.4266
 1763W        W18611   1.989  13.608   6.077 -0.2831  0.2629  0.1442
 1764W        W18612  16.616  16.779   3.399  0.0004 -0.0155 -0.0784
 1765W        W18613  14.750   8.990  15.191 -0.0899  0.1715  0.0872
 1766W        W18614  11.053  10.633   0.478 -0.1815  0.1337  0.1099
 1767W        W18615  15.746  12.454   5.251 -0.1347  0.1638  0.4945
 1768W        W18616  10.334  11.429   5.565 -0.1403 -0.1733  0.0762
 1769W        W18617   2.493   8.479  17.681  0.2238  0.1242 -0.0272
 1770W        W18618  13.198  10.715   1.388 -0.1527 -0.0934  0.2112
 1771W        W18619   4.010  12.431  17.106 -0.2931  0.1165  0.1334
 1772W        W18620  14.779  11.702  12.149  0.2333 -0.1139 -0.1579
 1773W        W18621  14.848  14.818  14.640 -0.0170  0.1954  0.3329
 1774W        W18622   4.411   8.591   4.557 -0.2481  0.1472  0.2567
 1775W        W18623  10.654   9.047   5.302  0.0079 -0.2452 -0.2407
 1776W        W18624   4.276   1.666   2.562 -0.3155  0.0810 -0.0933
 1777W        W18625   9.091  12.029   3.400  0.3057 -0.1065  0.0908
 1778W        W18626   9.804   5.461   3.536  0.3026  0.2611  0.2272
 1779W        W18627  15.107   1.859  17.672  0.2004  0.1124  0.0165
 1780W        W18628   6.673  12.648   2.756  0.1662  0.0528  0.0347
 1781W        W18629   8.080  16.178   1.166  0.0854 -0.2003 -0.0105
 1782W        W18630  14.745  15.045   2.727 -0.1472 -0.0528  0.2641
 1783W        W18631  16.103   5.625   4.673  0.2431 -0.1080 -0.0268
 1784W        W18632   6.832  11.467   0.199 -0.1038  0.0000  0.2233
 1785W        W18633   9.546   4.894  16.620 -0.4274 -0.1404 -0.3156
 1786W        W18634   9.507   9.372   5.532 -0.1097 -0.3170  0.2218
 1787W        W18635  14.738  10.612  12.827 -0.1973 -0.0537 -0.1520
 1788W        W18636   3.844  12.941  16.970  0.4154  0.0298  0.2481
 1789W        W18637   6.982  16.978  16.344  0.0359 -0.2057 -0.0837
 1790W        W18638  17.084   9.971   1.703 -0.2702  0.4704  0.0838
 1791W        W18639   1.118   8.398  12.488 -0.1939  0.2756  0.2628
 1792W        W18640   0.189  12.862   2.229 -0.1184  0.1608  0.3751
 1793W        W18641  14.637   7.587  15.020  0.1924  0.2489 -0.3025
 1794W        W18642   8.097  11.340   2.972  0.2476 -0.1438 -0.1837
 1795W        W18643  11.509   1.059  11.929 -0.1897  0.1355  0.0373
 1796W        W18644   8.101  13.328  14.278  0.1770  0.0856  0.1094
 1797W        W18645  12.945  17.054   0.600 -0.1148  0.0176 -0.0975
 1798W        W18646   5.994   0.878  11.443  0.0680  0.0548 -0.1000
 1799W        W18647   9.431   2.074  11.889  0.1039  0.1349 -0.1498
 1800W        W18648  16.723   6.503   0.500  0.0302 -0.0745  0.1606
 1801W        W18649  11.769  14.800   0.428  0.0771  0.0597 -0.1120
 1802W        W18650  10.454   3.976   0.049 -0.0278  0.2296  0.1028
 1803W        W18651   8.765  16.855   2.785 -0.5983  0.1720 -0.0544
 1804W        W18652   5.729  13.919   4.708  0.2353 -0.2370 -0.1113
 1805W        W18653   8.696  14.158  16.319 -0.1718  0.0350  0.2247
 1806W        W18654   5.020   5.852   2.528 -0.1145  0.2094 -0.1639
 1807W        W18655   1.441   7.521  13.945 -0.2356 -0.1839 -0.1457
 1808W        W18656   8.562  10.055   4.236  0.0752 -0.1127  0.3143
 1809W        W18657  15.598   4.976   2.272  0.2558  0.1803  0.0197
 1810W        W18658  11.153  16.888   4.561  0.0183  0.2303  0.0823
 1811W        W18659   8.862  13.325  15.807 -0.2238 -0.2728  0.3618
 1812W        W18660   7.667  15.085   0.819 -0.0716  0.0301 -0.0691
 1813W        W18661  16.494  11.536   3.914 -0.0281 -0.0094  0.1501
 1814W        W18662   8.700   0.158   3.495 -0.1179 -0.1320 -0.0522
 1815W        W18663   4.401   6.475  14.639 -0.1548 -0.2444 -0.2755
 1816W        W18664   0.021  14.780   4.147 -0.2317  0.4947  0.0934
 1817W        W18665  14.645   3.469   3.449  0.1868  0.1935 -0.2753
 1818W        W18666   4.166  10.504   0.981  0.1081 -0.0484  0.0738
 1819W        W18667  10.903  12.098   4.812 -0.1538 -0.2612  0.0463
 1820W        W18668  12.135   5.162  11.751 -0.0621  0.0076 -0.1968
 1821W        W18669   0.692   1.890   1.342  0.2363  0.0338  0.0984
 1822W        W18670  12.710  16.750   4.444 -0.0871  0.1078 -0.1936
 1823W        W18671   8.696   6.839  10.948  0.1205  0.0357  0.0747
 1824W        W18672  14.847   5.507  13.163 -0.2638 -0.1886  0.1206
 1825W        W18673   1.754  14.085   5.952  0.1064  0.3641 -0.2187
 1826W        W18674  15.355   4.365  13.473  0.1154  0.1249  0.2646
 1827W        W18675   2.675   7.982  16.038  0.1042 -0.3642 -0.1576
 1828W        W18676   2.238   8.904  13.446  0.0475 -0.4491 -0.1884
 1829W        W18677   1.220  13.233  12.707 -0.3143 -0.1047  0.2809
 1830W        W18678   4.845   6.860  15.719  0.0971 -0.0435  0.3084
 1831W        W18679  13.730   5.796  15.460  0.0576  0.1104 -0.0631
 1832W        W18680  16.994  14.036  14.412 -0.1105 -0.1021  0.1704
 1833W        W18681  10.257   5.208   0.902 -0.3267  0.1529 -0.2417
 1834W        W18682  17.079  13.707  16.039  0.0056 -0.3647 -0.1069
 1835W        W18683   4.410   8.568   5.311  0.1544 -0.0880 -0.0169
 1836W        W18684  10.309  16.221   4.805 -0.0082 -0.1695  0.2332
 1837W        W18685   7.811   8.367   2.107 -0.0566 -0.0588  0.2009
 1838W        W18686  13.031   6.366   1.864  0.2572  0.1777  0.1568
 1839W        W18687   9.029   1.445   4.756 -0.0999  0.1284 -0.0818
 1840W        W18688   4.198   6.394   2.419  0.1407  0.1324 -0.1151
 1841W        W18689   7.527  10.513  12.105 -0.3058 -0.1034 -0.0530
 1842W        W18690  11.234  15.043  14.624  0.1196  0.0484 -0.4240
 1843W        W18691   8.151  14.393   3.698  0.0299  0.1477  0.2519
 1844W        W18692   4.477   2.619  11.472  0.2442  0.2962 -0.0705
 1845W        W18693   1.260   6.826   0.096  0.0463 -0.0847 -0.1683
 1846W        W18694   8.710   6.297   6.061 -0.1560  0.1474 -0.0262
 1847W        W18695   7.123  10.902   5.054 -0.0727  0.1968 -0.1137
 1848W        W18696   5.924   3.146  12.078  0.2168 -0.1855 -0.2396
 1849W        W18697  16.572   3.738   4.961 -0.0621 -0.1089 -0.0608
 1850W        W18698  14.656   7.569  16.029 -0.0897  0.0327  0.1187
 1851W        W18699  10.878   0.635   4.190 -0.0941 -0.0502  0.0014
 1852W        W18700   6.369  14.478   4.784 -0.1473 -0.0675  0.4699
 1853W        W18701   5.510  11.452   1.651 -0.1259  0.0147 -0.1660
 1854W        W18702   6.495   6.095  13.579 -0.1282  0.2794  0.0291
 1855W        W18703  15.560   9.364   4.191  0.3251 -0.1693  0.0406
 1856W        W18704   7.548  16.440  13.369  0.1531 -0.0832  0.0787
 1857W        W18705   7.230  12.901  12.141  0.3871 -0.1472 -0.1335
 1858W        W18706   6.113  10.080  13.884 -0.0548 -0.0937  0.2931
 1859W        W18707   9.918   7.019   1.172  0.1530 -0.0652  0.2577
 1860W        W18708   7.944   4.623   0.182 -0.0174 -0.0469 -0.4117
 1861W        W18709  13.547  13.020  16.113 -0.0222 -0.1539 -0.0319
 1862W        W18710  16.286   4.726   3.571  0.1287  0.0651  0.2350
 1863W        W18711  13.190   2.699  13.391  0.2946  0.0911 -0.1956
 1864W        W18712  15.515  12.266  17.702  0.1153 -0.0940  0.1809
 1865W        W18713   5.129  16.242   2.691 -0.0944 -0.1926 -0.1336
 1866W        W18714   4.954   8.209   2.499  0.2110 -0.2746  0.1335
 1867W        W18715   5.538   9.953   2.596 -0.0145 -0.0703  0.0992
 1868W        W18716  10.648  12.339   1.306 -0.0417  0.0422 -0.5570
 1869W        W18717   8.929  16.978  16.330  0.2078 -0.0436 -0.5157
 1870W        W18718  12.539   5.938  16.127 -0.1348 -0.1912  0.0015
 1871W        W18719   0.876  16.539  16.704  0.1590 -0.1630  0.0017
 1872W        W18720   5.526  16.233  12.138 -0.1353 -0.1605 -0.1104
 1873W        W18721  15.983  11.370  15.129  0.0084 -0.0656 -0.0288
 1874W        W18722  14.177   4.937  12.734  0.1764  0.0528 -0.1088
 1875W        W18723  10.167   0.139   0.498  0.0989 -0.1363  0.2168
 1876W        W18724   7.891   2.835  17.757 -0.0184  0.1093  0.0761
 1877W        W18725   1.851  10.237  14.309 -0.3232 -0.2038  0.0477
 1878W        W18726   3.462   2.691   0.798  0.3980 -0.2230  0.1436
 1879W        W18727  16.133   5.804  13.824  0.0820 -0.1662 -0.1329
 1880W        W18728  11.689  11.087   5.426  0.0885  0.2021  0.1055
 1881W        W18729   4.993   3.735   4.685 -0.2460  0.3604 -0.0604
 1882W        W18730   7.383   4.188   4.702 -0.1163 -0.0791  0.1376
 1883W        W18731   0.524   6.636   4.622  0.3082  0.1658  0.0361
 1884W        W18732  13.470   9.632  13.747  0.0160 -0.2120  0.0559
 1885W        W18733   0.812   2.241   0.537 -0.3599  0.0255 -0.0666
 1886W        W18734  11.524  10.659  12.751  0.1663  0.1216 -0.1789
 1887W        W18735  10.181   8.454  12.413  0.2048 -0.0017 -0.0501
 1888W        W18736  16.683  15.420   5.316  0.0706 -0.1134  0.1338
 1889W        W18737   8.548  10.733   4.448 -0.2290 -0.0294  0.2231
 1890W        W18738  16.033   9.865  16.548  0.1593  0.0215 -0.0288
 1891W        W18739   8.835   4.113  12.876 -0.0984 -0.3244  0.3598
 1892W        W18740   6.103   9.325   3.914 -0.1686 -0.0942 -0.1763
 1893W        W18741   5.020   7.206   1.444 -0.3265 -0.2039 -0.0268
 1894W        W18742   3.665   0.198   2.057 -0.0376 -0.0179 -0.0653
 1895W        W18743   3.645  10.425  14.398 -0.1921  0.2603 -0.1424
 1896W        W18744   8.493  11.786  15.103  0.0403  0.0472 -0.2355
 1897W        W18745  16.981   1.644   5.746  0.1759 -0.1324 -0.4316
 1898W        W18746  14.310   2.850   5.132  0.1381 -0.1090 -0.1933
 1899W        W18747  15.437   4.903  14.403  0.1181  0.0142  0.1188
 1900W        W18748  10.144   6.074  12.339 -0.0084  0.2282 -0.5841
 1901W        W18749   9.682   3.263   4.771  0.1545 -0.2469  0.6247
 1902W        W18750  12.063  16.239   2.943  0.0284  0.0989 -0.0108
 1903W        W18751  11.591   4.251   2.863 -0.1400  0.0489  0.0011
 1904W        W18752  13.090   3.565  12.962  0.3713 -0.0876  0.2339
 1905W        W18753   4.974   0.596   6.013 -0.1715  0.3363 -0.0950
 1906W        W18754  16.021  14.370   6.248  0.0777 -0.0311  0.2329
 1907W        W18755  12.375   3.806  16.912 -0.0228 -0.1592  0.2361
 1908W        W18756   9.788  15.350  13.841 -0.1969  0.0300  0.2470
 1909W        W18757   4.385  11.704   3.691  0.0005  0.3888  0.1305
 1910W        W18758   5.493   5.647  13.872  0.0431  0.4777  0.0356
 1911W        W18759  15.433   9.297   5.172 -0.0917  0.0241  0.1064
 1912W        W18760   5.480   2.575   0.317 -0.1394  0.1739  0.2135
 1913W        W18761  12.887  16.756   4.908 -0.2631  0.1321 -0.4072
 1914W        W18762   9.547  10.007   5.042  0.1553 -0.2379  0.4039
 1915W        W18763   1.324   1.096   0.132  0.0829 -0.2793  0.0988
 1916W        W18764  11.390   3.241   2.959  0.0862 -0.0000  0.3434
 1917W        W18765   1.361   5.225  15.392 -0.0047  0.0739  0.5638
 1918W        W18766  12.812  13.176  16.995 -0.2506  0.1522  0.1648
 1919W        W18767   1.184  15.368   4.130 -0.0843  0.0610 -0.3565
 1920W        W18768  14.415  15.299   5.071  0.1105 -0.1141 -0.1962
 1921W        W18769   1.500   5.584  15.065  0.2944 -0.1792 -0.1667
 1922W        W18770   1.229   0.470   4.743 -0.1476 -0.1961  0.0571
 1923W        W18771   0.959  13.112   0.629 -0.3549 -0.0232  0.4094
 1924W        W18772   6.162   0.672  17.737  0.1208 -0.1593 -0.0053
 1925W        W18773   7.492  12.372  12.732  0.1087 -0.0734  0.0762
 1926W        W18774  16.813  15.099   4.152 -0.2576  0.1587 -0.0456
 1927W        W18775  16.141   7.691  14.393 -0.1687 -0.0099 -0.1146
 1928W        W18776  13.778  10.021   1.019 -0.2846 -0.2680  0.0145
 1929W        W18777  17.053   9.074  16.728 -0.0049  0.1496 -0.2862
 1930W        W18778  11.801   4.980   0.538 -0.0599 -0.0996  0.1957
 1931W        W18779   5.487  10.350   1.034  0.1571 -0.1409 -0.0610
 1932W        W18780   8.228   9.870   0.360  0.1946 -0.2621 -0.1153
 1933W        W18781   4.252  14.686  13.403  0.1900 -0.0837 -0.2175
 1934W        W18782  14.961  11.147  17.667  0.0981 -0.0989  0.0821
 1935W        W18783   7.411  13.591   1.051  0.1094 -0.0075 -0.0605
 1936W        W18784   2.212   7.561   1.080  0.1459  0.2220  0.0154
 1937W        W18785   3.952  13.277   0.301  0.0527 -0.3909 -0.0264
 1938W        W18786   8.625   2.931   3.230 -0.2588 -0.1784  0.0267
 1939W        W18787  15.582   6.913   1.626  0.2375 -0.2311  0.3573
 1940W        W18788   8.838   7.923   1.118 -0.0456 -0.0734 -0.0161
 1941W        W18789  16.021   4.958   4.603 -0.0477 -0.0223  0.1659
 1942W        W18790   6.096  14.935  13.838 -0.1047  0.5080  0.2086
 1943W        W18791   5.072   4.277  13.095  0.1414 -0.0772  0.1600
 1944W        W18792   9.072   0.833  16.046  0.1228  0.2162  0.0157
 1945W        W18793   2.358  11.084   1.927 -0.2372 -0.1099  0.1129
 1946W        W18794   1.652  15.324   2.394  0.0698  0.0174 -0.2846
 1947W        W18795   3.592   9.069  14.551  0.0782  0.2229  0.0162
 1948W        W18796   1.869  16.512   3.637 -0.0143  0.2275  0.0853
 1949W        W18797   1.875  15.593  17.749 -0.0032  0.2768  0.1120
 1950W        W18798  16.790  14.888   1.143  0.2440 -0.1636  0.0822
 1951W        W18799   4.099   7.986  12.945  0.3421 -0.0884  0.4139
 1952W        W18800  16.512   9.977   3.161  0.0052  0.3841 -0.0084
 1953W        W18801   1.945  14.226   5.501  0.1588  0.1746 -0.0654
 1954W        W18802   7.098  13.431   0.541  0.0288  0.1275  0.0432
 1955W        W18803   8.453   2.082   0.260 -0.3776  0.1268 -0.0472
 1956W        W18804   0.728  16.123  14.859 -0.1125 -0.0810 -0.0269
 1957W        W18805  13.244  14.772  13.104 -0.2200 -0.1786 -0.1048
 1958W        W18806  17.081   9.715   1.280 -0.2154  0.2359  0.1085
 1959W        W18807  13.322  16.225  13.064 -0.2442  0.1401  0.0985
 1960W        W18808   2.868   7.898   5.355 -0.0234 -0.0172  0.1949
 1961W        W18809   0.867   6.288   1.165  0.0807  0.0679  0.2978
 1962W        W18810  16.418  11.463  17.697  0.1380 -0.0637  0.3037
 1963W        W18811   0.102   6.743  12.859 -0.1355  0.1412  0.0963
 1964W        W18812  13.906   8.817  13.156  0.0674 -0.3997  0.1792
 1965W        W18813   3.955  14.297   2.912 -0.3449 -0.0109 -0.1267
 1966W        W18814   8.674   0.410  14.706  0.2250  0.1506 -0.2411
 1967W        W18815  10.446   6.282   2.275 -0.1012  0.1082  0.0965
 1968W        W18816  13.394  14.124  14.246 -0.0597  0.0510 -0.4107
 1969W        W18817   2.083   5.221  16.591  0.3079  0.1306 -0.2830
 1970W        W18818  12.852   7.132  16.846 -0.0732 -0.0203 -0.1415
 1971W        W18819   3.334  17.081  15.261 -0.0468  0.0842  0.1795
 1972W        W18820  13.658  12.843   1.558 -0.0181  0.2243 -0.0343
 1973W        W18821   2.559   3.202   5.225 -0.3299 -0.0116  0.0612
 1974W        W18822  10.605   1.506   2.929 -0.1408  0.1553  0.1719
 1975W        W18823   1.111   4.608  12.949 -0.0015  0.0179  0.3500
 1976W        W18824   0.520  14.427  17.679  0.0442 -0.3904  0.0890
 1977W        W18825   2.599   3.257  14.228  0.0405  0.1992  0.0900
 1978W        W18826   2.958   4.890   1.617 -0.0160  0.3643 -0.1015
 1979W        W18827  10.233   5.789   0.390  0.0461  0.1225 -0.0726
 1980W        W18828  11.198  10.180   5.579  0.2322 -0.2226 -0.0114
 1981W        W18829   1.852   2.222   4.904  0.1285 -0.1825 -0.0106
 1982W        W18830   4.345  10.840   2.842  0.1281 -0.0767  0.2142
 1983W        W18831  14.978   2.057  15.919 -0.0539  0.1118 -0.0201
 1984W        W18832   7.306   0.208   0.148  0.3105  0.0532 -0.1037
 1985W        W18833  13.618  13.591  14.011  0.1218 -0.2592  0.1014
 1986W        W18834   5.096  10.024  12.716  0.0877  0.3722 -0.1791
 1987W        W18835   3.294  11.781   3.782 -0.2430 -0.2628 -0.1374
 1988W        W18836   5.115   0.203  16.185  0.0009  0.2221  0.0634
 1989W        W18837   7.298  16.011  14.805  0.1620 -0.1824 -0.1856
 1990W        W18838   5.786   1.582  15.868 -0.1951 -0.1123 -0.0673
 1991W        W18839   8.343  10.769  17.379 -0.0630  0.4420  0.1553
 1992W        W18840   2.772   8.680   0.864  0.1492  0.1937 -0.2144
 1993W        W18841   7.415  12.006  13.608 -0.3234  0.3552  0.1055
 1994W        W18842   1.609  13.296   0.659  0.5080 -0.1468 -0.1757
 1995W        W18843   8.107   3.741  16.126 -0.1212  0.2139  0.0130
 1996W        W18844   0.195   5.648   1.475  0.2622 -0.0487 -0.0357
 1997W        W18845  11.202  15.928  12.989  0.2828  0.1137  0.1618
 1998W        W18846   0.948   0.041  14.195 -0.1367  0.0651 -0.3317
 1999W        W18847  16.061  10.738  16.275  0.0903  0.0333 -0.0869
 2000W        W18848  12.546  11.539  17.168  0.0158  0.0631 -0.0515
 2001W        W18849  10.561  14.323  12.636 -0.1430 -0.0213 -0.1322
 2002W        W18850  14.375  10.975  12.729 -0.0011  0.0883  0.0387
 2003W        W18851   7.528   8.483  17.339 -0.2925  0.1576 -0.1130
 2004W        W18852   6.003  14.380   4.442 -0.0163 -0.1493 -0.1934
 2005W        W18853   0.927  14.101  13.744 -0.0690  0.3001  0.3332
 2006W        W18854   3.658  10.618   3.736 -0.0966 -0.1223 -0.0889
 2007W        W18855  12.578   2.394  16.734 -0.2204 -0.0679  0.1113
 2008W        W18856   9.322   7.372   4.627  0.0360  0.0308  0.0152
 2009W        W18857  12.658   7.156   1.347  0.3048  0.2200  0.0862
 2010W        W18858   3.610  12.664  15.205 -0.0101 -0.0437 -0.1773
 2011W        W18859  14.051  14.835   4.494  0.2237 -0.1660 -0.0516
 2012W        W18860   8.772  15.599   0.987  0.2381  0.1420  0.1264
 2013W        W18861  15.263  16.214  12.095 -0.1470 -0.1805 -0.4453
 2014W        W18862   9.664   1.111   2.750 -0.1272 -0.3371 -0.0252
 2015W        W18863   6.128  16.110   1.440 -0.3251 -0.1798 -0.0544
 2016W        W18864  14.162  12.717  16.666 -0.0061  0.1273  0.0294
 2017W        W18865   8.823   4.152   0.209 -0.0928  0.0027  0.1532
 2018W        W18866   5.403  16.731   1.760 -0.0109 -0.1493  0.0724
 2019W        W18867   5.816  14.376   1.850 -0.1890  0.1436  0.1418
 2020W        W18868  12.640   3.138   3.042 -0.0979  0.0398 -0.4197
 2021W        W18869  13.339  14.778  15.525  0.2194 -0.0354  0.0336
 2022W        W18870  14.347   9.035  17.046 -0.1683 -0.1108  0.1365
 2023W        W18871   3.764   2.104  16.172  0.0596 -0.5135 -0.0771
 2024W        W18872   6.445   1.595   0.565  0.3169 -0.0480  0.5779
 2025W        W18873   9.791   9.592  14.752  0.1341 -0.1839 -0.0322
 2026W        W18874   0.465  13.081  16.311 -0.0531  0.0855 -0.2068
 2027W        W18875   2.592  13.196  17.406 -0.0458 -0.0147 -0.1966
 2028W        W18876  13.860  16.898  12.157 -0.1713  0.0951  0.0445
 2029W        W18877   1.737  16.579   0.195 -0.0777 -0.0619  0.0214
 2030W        W18878  10.582  11.946   0.424  0.0530  0.1347 -0.1850
 2031W        W18879   3.040  13.234   3.363 -0.3797  0.2096 -0.0590
 2032W        W18880   7.750  10.050  12.276  0.1387 -0.1835 -0.2741
 2033W        W18881   8.565  11.090  14.051  0.0428 -0.0379 -0.0189
 2034W        W18882  16.990   9.924   3.089  0.0098  0.0661 -0.1164
 2035W        W18883  15.106  13.244   3.063 -0.2559 -0.0767 -0.2182
 2036W        W18884   6.216   9.048  16.662 -0.0384  0.0961  0.1788
 2037W        W18885  13.659  15.610   5.691  0.1819  0.0122 -0.0556
 2038W        W18886  13.685   1.420   3.486  0.0565 -0.0762 -0.0776
 2039W        W18887   8.200   5.565   2.313  0.0870 -0.0142 -0.0667
 2040W        W18888   6.881  16.374  12.872  0.0908  0.0074  0.0363
 2041W        W18889   8.380   4.022  15.334  0.0543 -0.1510 -0.0720
 2042W        W18890  13.816  15.400   0.289  0.1870 -0.0720  0.0629
 2043W        W18891  15.909   0.518  17.583  0.1200 -0.0199  0.2466
 2044W        W18892   7.397   6.123  13.800 -0.4282 -0.0301 -0.0664
 2045W        W18893  10.880  12.080   2.677 -0.0746  0.0197 -0.1061
 2046W        W18894   2.921   0.975   1.360 -0.1181  0.1475  0.0592
 2047W        W18895   7.352   9.760   4.334  0.1317 -0.1704  0.2705
 2048W        W18896  12.088  13.266   3.773 -0.0794  0.0798  0.2741
 2049W        W18897   6.072  12.220  16.349 -0.0529  0.1537 -0.2333
 2050W        W18898  16.863   4.397   1.599 -0.1849 -0.2414 -0.2675
 2051W        W18899  12.969   7.505   0.794 -0.1403 -0.2682 -0.0513
 2052W        W18900  11.968   7.916  10.764 -0.0200 -0.1805 -0.0684
 2053W        W18901  10.905   8.018   1.717 -0.0642  0.1098  0.1958
 2054W        W18902  17.046   3.559   3.140  0.3352 -0.0055  0.0617
 2055W        W18903  15.932  13.664   4.619 -0.0391  0.1994  0.1290
 2056W        W18904   3.982   9.109   3.753  0.3002 -0.1672 -0.1240
 2057W        W18905  15.057   6.538  17.663 -0.1517 -0.1141  0.0061
 2058W        W18906   3.024  12.446   1.512 -0.3310 -0.1106  0.0544
 2059W        W18907   7.831   8.326   0.980 -0.0352  0.1936 -0.1300
 2060W        W18908  13.566  13.272   1.990  0.2061 -0.0505 -0.0067
 2061W        W18909   9.682  14.115  12.088 -0.0717 -0.2430 -0.0526
 2062W        W18910  11.291  17.015   2.651  0.0711  0.0001 -0.0897
 2063W        W18911  11.198  11.320   1.258 -0.1683 -0.1453  0.0621
 2064W        W18912   5.953  13.667  12.060 -0.2170  0.0270 -0.0344
 2065W        W18913  11.218   9.370   2.996 -0.0119  0.1557 -0.2245
 2066W        W18914  14.728  16.514   1.579 -0.1047 -0.0360 -0.1386
 2067W        W18915   0.470  10.915  17.291 -0.1089  0.2963  0.0782
 2068W        W18916   2.218   6.123  14.633 -0.1153  0.2956 -0.2819
 2069W        W18917  12.181  12.058   6.526  0.0455  0.0472 -0.0832
 2070W        W18918   0.272  15.692   0.001 -0.1211  0.1153 -0.2397
 2071W        W18919   2.680   0.862  11.499 -0.0203  0.0891 -0.2445
 2072W        W18920   6.011  17.110   1.662  0.3337  0.3491  0.2167
 2073W        W18921   1.346   9.059  17.753  0.1501  0.0176 -0.0579
 2074W        W18922   1.377  13.352  15.937  0.3427  0.0121 -0.0765
 2075W        W18923   0.244   7.175   2.665 -0.0159 -0.0035 -0.2117
 2076W        W18924  14.212   1.735   2.762  0.0247 -0.1260 -0.1594
 2077W        W18925   5.813  10.563   5.336 -0.1011  0.2467 -0.4504
 2078W        W18926   1.808   9.567  15.591  0.1128 -0.0879  0.0768
 2079W        W18927  14.817  16.458   5.104 -0.0531 -0.3505  0.0309
 2080W        W18928   9.209   2.377  13.098  0.2273  0.0731 -0.1390
 2081W        W18929   0.280   9.704   4.286 -0.1953  0.0063 -0.2191
 2082W        W18930   6.191   3.670  15.901 -0.2257 -0.0430 -0.0303
 2083W        W18931  11.995  11.933  16.569  0.4908  0.1644 -0.1595
 2084W        W18932  15.569  17.161   1.332  0.0825  0.1252  0.0129
 2085W        W18933  14.682  12.151   3.787  0.1163  0.1209  0.2179
 2086W        W18934  13.867  13.527  15.235 -0.3232  0.0514  0.0535
 2087W        W18935  15.970  12.336   4.291 -0.0111  0.0757 -0.2907
 2088W        W18936  14.452  16.463   0.336  0.1244  0.0542 -0.2639
 2089W        W18937   0.453  15.765   4.351  0.0075 -0.1245  0.0824
 2090W        W18938   8.989   2.472   3.055  0.1650  0.0620  0.2928
 2091W        W18939  14.735   9.165  13.145  0.0840 -0.2463  0.1243
 2092W        W18940  14.795  15.227   5.539  0.1816  0.2140 -0.2726
 2093W        W18941   6.883   6.503  15.086  0.0329  0.0382 -0.4125
 2094W        W18942   9.913   9.475   1.408 -0.0804 -0.0435 -0.3174
 2095W        W18943  14.842   7.573   0.150  0.2889  0.0362  0.1169
 2096W        W18944   3.202   6.615   1.269 -0.1661  0.0616 -0.2426
 2097W        W18945   4.868  10.622   2.120  0.0423 -0.0511  0.0024
 2098W        W18946   3.430  15.464   2.664  0.3148 -0.2959 -0.1233
 2099W        W18947  10.842   1.675  16.234 -0.2201  0.0561  0.0582
 2100W        W18948  12.819  12.260   2.854  0.0598  0.2087  0.0197
 2101W        W18949  16.110  16.378   0.391  0.1129  0.2347  0.0423
 2102W        W18950  12.143   5.996   5.312 -0.0730 -0.0058 -0.2211
 2103W        W18951  12.391   1.254  17.674  0.3139  0.3474  0.1749
 2104W        W18952   2.228   2.882  15.044  0.3306 -0.0151 -0.2003
 2105W        W18953   1.521   6.592  15.088 -0.2273 -0.2876 -0.0001
 2106W        W18954   3.260   3.634   2.476  0.0473  0.2127 -0.0597
 2107W        W18955  12.890  12.692   4.187  0.0411  0.1572  0.1140
 2108W        W18956  15.625   7.904  14.276  0.0623  0.1068 -0.1546
 2109W        W18957   8.511  13.300  11.469 -0.3440  0.0726  0.2772
 2110W        W18958   0.568  10.661   1.697  0.3668 -0.2586  0.4268
 2111W        W18959  14.317   1.816   5.267 -0.5231 -0.0204 -0.0488
 2112W        W18960  12.214   3.379  13.576 -0.4270 -0.3343  0.2425
 2113W        W18961  14.557  15.146  16.002 -0.0310  0.1006 -0.1473
 2114W        W18962  15.615  10.882   5.993  0.2880 -0.1865  0.2405
 2115W        W18963   9.184  13.090  16.137  0.1974  0.3097  0.1359
 2116W        W18964   8.087  14.440   5.632 -0.3838  0.2097 -0.0048
 2117W        W18965  11.759  13.092  17.406 -0.0831  0.2657  0.0177
 2118W        W18966  16.559  12.244  15.613 -0.1817  0.1146  0.1673
 2119W        W18967   5.867  13.915   0.992 -0.0904  0.0641  0.2541
 2120W        W18968   7.600  10.440   3.856 -0.0575  0.1136 -0.0234
 2121W        W18969   7.656  12.525   4.823 -0.0955  0.0879 -0.0134
 2122W        W18970   7.477   0.079   1.639 -0.3633 -0.1431  0.0437
 2123W        W18971   9.618  13.511  17.328 -0.0407 -0.0379  0.1094
 2124W        W18972   7.514  10.494  17.585  0.2578  0.1421 -0.1369
 2125W        W18973   1.780  14.861   4.774 -0.0417 -0.2369  0.0620
 2126W        W18974   0.052  11.128   3.491 -0.0204 -0.0137  0.1180
 2127W        W18975   9.619   9.744   4.509  0.0207  0.0114 -0.0971
 2128W        W18976  10.401  11.833   2.647  0.0047  0.3070 -0.0442
 2129W        W18977  14.073   2.566   3.354 -0.0125  0.0538  0.0881
 2130W        W18978   3.048   2.375  15.025  0.0175 -0.5590  0.2479
 2131W        W18979   4.058   1.472   0.896  0.0646 -0.1651  0.0647
 2132W        W18980   5.879   0.352   3.310  0.1604 -0.1180  0.1377
 2133W        W18981   4.118  13.388   3.114 -0.1586  0.2518 -0.0112
 2134W        W18982  11.569  14.439  13.556  0.0425  0.0026  0.0306
 2135W        W18983   0.565  13.651   3.252 -0.1489 -0.2103  0.4257
 2136W        W18984   6.754   1.049  12.744  0.1213 -0.0072 -0.3259
 2137W        W18985  11.177  14.588  15.435  0.0858  0.0405 -0.0640
 2138W        W18986   6.049   5.725  16.955  0.2427 -0.0289  0.0820
 2139W        W18987   3.671  15.586  13.683 -0.0128  0.0866 -0.1666
 2140W        W18988   0.865  17.091   3.823 -0.0016 -0.0435  0.2178
 2141W        W18989   4.427  10.696  12.469  0.1517 -0.0613  0.3533
 2142W        W18990   5.193   2.161  12.507 -0.0810  0.0349 -0.0049
 2143W        W18991   6.285   9.239  12.143  0.1216  0.0480  0.2376
 2144W        W18992  14.476   3.513  12.411 -0.2361  0.0822 -0.0413
 2145W        W18993  14.625  10.864  17.168  0.2473 -0.2033  0.1281
 2146W        W18994   9.230   7.218  14.589  0.0216 -0.1670 -0.0357
 2147W        W18995   5.189  15.785   0.285  0.1595  0.2212  0.0315
 2148W        W18996   9.684   1.206  17.653 -0.0748  0.0538 -0.1788
 2149W        W18997   1.598   7.123   4.277 -0.2539 -0.0213 -0.0471
 2150W        W18998   4.755  10.015  15.220 -0.0178  0.1562 -0.0300
 2151W        W18999  13.246  11.020   2.013  0.0081 -0.3612  0.0272
 2152W        W19000   4.346  10.840  17.634 -0.0699  0.1908 -0.0094
 2153W        W19001   2.454   6.268  17.622  0.3618  0.0418  0.0515
 2154W        W19002   5.862   5.470   5.453 -0.1980  0.0065  0.2661
 2155W        W19003  15.014   8.278  15.018 -0.0803 -0.1640  0.3224
 2156W        W19004   5.507  14.533   2.226 -0.1945  0.0145 -0.0483
 2157W        W19005   6.026   1.773  15.380 -0.1808 -0.1303 -0.0834
 2158W        W19006   0.018  12.761   0.271 -0.1055 -0.0454  0.0301
 2159W        W19007  14.935  12.019   5.218 -0.1802  0.1191  0.3889
 2160W        W19008   0.218   7.484   0.779  0.4978  0.2070  0.0688
 2161W        W19009  13.597   1.701   3.950 -0.0538  0.0658  0.2243
 2162W        W19010   7.796   2.197   1.538 -0.2523 -0.1297 -0.0808
 2163W        W19011   5.047   8.266  12.701 -0.1068  0.1116  0.0964
 2164W        W19012  15.117   8.493   4.258 -0.3533 -0.0324  0.0846
 2165W        W19013  16.193   7.578  14.946 -0.0801 -0.1368  0.0708
 2166W        W19014  15.654  12.644  12.783 -0.3611 -0.1806  0.7395
 2167W        W19015   1.145   4.022  16.738 -0.1734 -0.0100  0.1864
 2168W        W19016  16.311   7.958  12.867  0.0974 -0.0015  0.0579
 2169W        W19017   9.223  14.890   1.753 -0.0460 -0.1454 -0.2015
 2170W        W19018   9.237   6.392   4.572 -0.1903 -0.2258 -0.1197
 2171W        W19019   1.182  16.214   0.745  0.0898  0.2339 -0.2416
 2172W        W19020  14.626   0.663   3.187 -0.1330 -0.0922  0.2363
 2173W        W19021   4.240   2.780   3.430 -0.1204  0.3004  0.0170
 2174W        W19022   2.967   2.874   5.363  0.0936  0.2218 -0.0077
 2175W        W19023   4.934   7.555   1.893 -0.3216 -0.1686  0.0803
 2176W        W19024   4.911   0.471  15.786  0.2684 -0.0056  0.2725
 2177W        W19025  16.895   2.704  13.394 -0.0702  0.1554 -0.1733
 2178W        W19026  12.303   9.501   5.196 -0.1663 -0.0920  0.3090
 2179W        W19027  16.292  13.902  16.104 -0.1127  0.0722 -0.0718
 2180W        W19028   7.681   6.595  12.845  0.0944  0.1334 -0.2931
 2181W        W19029   2.265  15.052  16.542 -0.0740 -0.1571  0.1446
 2182W        W19030   4.075  13.306  14.612 -0.2321 -0.0861 -0.0772
 2183W        W19031   5.315   2.699   5.282  0.1506 -0.2184  0.4177
 2184W        W19032   0.534   3.643   0.886 -0.2199 -0.0619  0.2437
 2185W        W19033  11.969   0.072   5.122 -0.0304  0.2884 -0.2691
 2186W        W19034   0.372  14.731  15.146  0.0445  0.2886 -0.0790
 2187W        W19035   0.727  16.505   1.806 -0.1273  0.1807  0.0170
 2188W        W19036  14.242   2.203   3.689 -0.0846 -0.0126  0.0750
 2189W        W19037   6.914  15.649   1.573  0.2770 -0.1237  0.1789
 2190W        W19038  14.152   1.473  15.927 -0.0395  0.3305  0.1117
 2191W        W19039   3.249  10.465  12.377 -0.1387 -0.1125 -0.0763
 2192W        W19040   2.884  11.501   4.016 -0.3272  0.2394 -0.1222
 2193W        W19041  12.116   3.760  13.163  0.0028  0.0158  0.1769
 2194W        W19042   6.443   5.954   3.723  0.0081 -0.0360  0.1653
 2195W        W19043   2.850   1.550   1.328  0.2365  0.1513  0.1396
 2196W        W19044   6.182   8.808   0.592  0.0187 -0.1568  0.0039
 2197W        W19045   0.563   0.061   3.130  0.0939  0.1186  0.0518
 2198W        W19046  15.927  12.390  16.404 -0.1574  0.2773  0.0203
 2199W        W19047  15.341  12.417   0.421  0.3421 -0.1405 -0.1157
 2200W        W19048  12.191   2.401  11.714  0.0656  0.0144  0.0143
 2201W        W19049   1.707   8.078   1.633 -0.0292 -0.2020 -0.0287
 2202W        W19050   4.108   7.167  16.095 -0.1690 -0.1549  0.0376
 2203W        W19051   5.188  10.525  14.429  0.1259  0.0178 -0.3039
 2204W        W19052  14.622  11.824  16.746 -0.0254  0.4083 -0.2684
 2205W        W19053   2.727   8.754   4.549  0.5048 -0.3055  0.2942
 2206W        W19054   3.726  16.204  15.823 -0.5196 -0.1521 -0.0906
 2207W        W19055   8.867   3.731  17.641  0.0871  0.0326 -0.1812
 2208W        W19056   8.504  11.775   0.664 -0.0729 -0.1361  0.1794
 2209W        W19057   2.912  10.349   5.173 -0.0115 -0.0379 -0.1769
 2210W        W19058   1.334   6.237   0.329 -0.0295  0.2271 -0.0525
 2211W        W19059   0.748   1.726  12.731  0.0928 -0.1405 -0.0886
 2212W        W19060   9.590  10.431   1.580  0.4280 -0.0322 -0.4111
 2213W        W19061   6.408  13.242   1.815 -0.1691  0.1093 -0.1082
 2214W        W19062   2.445  14.241   2.153 -0.0039 -0.2383  0.2950
 2215W        W19063   0.511   6.944   5.617 -0.1405  0.1064 -0.0059
 2216W        W19064   4.593   6.275   4.563  0.1859  0.1032  0.0167
 2217W        W19065  10.781   6.456  17.365  0.0194  0.1584 -0.0611
 2218W        W19066  14.031  10.905   2.186  0.1067  0.2316 -0.1545
 2219W        W19067  16.373  16.531  16.127 -0.0252  0.1058 -0.0653
 2220W        W19068   6.496   9.618  13.188  0.0832  0.1150 -0.1300
 2221W        W19069  16.800  16.588  14.126  0.3279  0.1952 -0.1169
 2222W        W19070   7.834   5.669  17.285  0.3502 -0.0197 -0.1083
 2223W        W19071   4.791   5.965  16.359  0.1576 -0.0994 -0.3141
 2224W        W19072   0.805   2.194   2.383 -0.0265  0.2456 -0.1986
 2225W        W19073  15.591  13.292   4.503  0.2300 -0.3016  0.2730
 2226W        W19074  15.460   0.289  17.310 -0.3887 -0.3334 -0.0109
 2227W        W19075  16.129  14.311   3.960  0.0442 -0.0739 -0.2781
 2228W        W19076   2.406  11.677   4.909  0.2083 -0.0237 -0.0227
 2229W        W19077   5.426  13.071   6.275 -0.1335  0.1981  0.0541
 2230W        W19078   5.990  10.533  16.686  0.1770  0.3478  0.0841
 2231W        W19079   3.330  13.864   0.818 -0.1171  0.0775 -0.1564
 2232W        W19080   2.211   7.596   0.137  0.2837  0.1141  0.3761
 2233W        W19081  11.821   0.187  14.492  0.0187  0.0661  0.1339
 2234W        W19082  15.818  13.124   5.778  0.1452 -0.1537 -0.0122
 2235W        W19083  12.945  10.452  13.284 -0.0366  0.1140 -0.0293
 2236W        W19084  12.211  14.366   5.038 -0.0683  0.3137 -0.0728
 2237W        W19085  15.385  12.429  14.348  0.1390 -0.0515 -0.0342
 2238W        W19086   3.037   4.432  17.142  0.2717 -0.0062 -0.1828
 2239W        W19087   5.586  14.589  14.759  0.1509 -0.3495  0.0266
 2240W        W19088  13.856  10.343  14.243 -0.2100  0.1949 -0.3736
 2241W        W19089  10.703  12.692   5.496 -0.3143 -0.1016  0.0892
 2242W        W19090  15.178  11.759   3.921 -0.0259  0.1313 -0.0852
 2243W        W19091   2.229   8.023  17.649  0.1604 -0.0135 -0.0261
 2244W        W19092   3.676  10.796   5.744  0.1267 -0.1607  0.0687
 2245W        W19093  11.813  15.828   0.544  0.0972 -0.1442  0.1017
 2246W        W19094   7.011  11.826  15.313 -0.0277 -0.2753 -0.1093
 2247W        W19095  10.754  11.544   0.216 -0.0028  0.0482 -0.0920
 2248W        W19096  12.188   1.071  16.187 -0.0626  0.2517  0.1018
 2249W        W19097  12.360   1.139  11.736  0.4389 -0.3041  0.1094
 2250W        W19098   0.777   7.531   5.300 -0.2937 -0.1315 -0.1074
 2251W        W19099   0.757   5.225  17.248  0.3514  0.1344 -0.0210
 2252W        W19100   3.379   9.810   3.949  0.3406  0.1630  0.1483
 2253W        W19101  15.754   4.959   4.086  0.1308 -0.0536 -0.0483
 2254W        W19102  10.840   9.645  12.806 -0.0216 -0.2732  0.0514
 2255W        W19103   4.969  15.663  17.607  0.0992 -0.2985 -0.0352
 2256W        W19104  12.188  15.181   5.418  0.2842 -0.2588  0.1491
 2257W        W19105   2.485   8.462  16.204 -0.2483  0.2338 -0.3747
 2258W        W19106  15.784   6.748   1.161 -0.1580  0.3552 -0.1264
 2259W        W19107   9.267  12.210  13.361 -0.1044 -0.0412 -0.0762
 2260W        W19108   1.616   0.317  11.811  0.2817  0.3278  0.1667
 2261W        W19109  10.697  16.850  12.187 -0.2159 -0.1877 -0.0328
 2262W        W19110   2.933   2.391  13.913  0.0139 -0.0344  0.0428
 2263W        W19111   5.632   9.215   4.202  0.0628 -0.1008  0.3863
 2264W        W19112   8.261   8.791   1.619  0.0439 -0.0563  0.1396
 2265W        W19113   0.424   5.908  12.389 -0.1229 -0.0878  0.2697
 2266W        W19114  14.089   6.710  14.067 -0.0870 -0.0181 -0.0468
 2267W        W19115   6.781   6.438  12.813 -0.1230  0.0001 -0.0030
 2268W        W19116   7.491  13.167   4.569  0.0606 -0.1967  0.0004
 2269W        W19117   0.707   5.290   4.467 -0.0543  0.0591  0.0409
 2270W        W19118  13.750  12.077   1.612 -0.0042  0.1477  0.0362
 2271W        W19119   5.627  11.498   4.704  0.0974 -0.0629 -0.0201
 2272W        W19120  10.996   6.013  16.425 -0.2584  0.0597 -0.3150
 2273W        W19121  16.335  12.159   5.986 -0.1287 -0.3289  0.0703
 2274W        W19122   8.588   0.870   1.112 -0.1229  0.2184  0.0164
 2275W        W19123   3.986  17.097   1.596  0.2449 -0.0108  0.0803
 2276W        W19124  10.920  16.041   0.311 -0.1384 -0.1122 -0.1537
 2277W        W19125  12.040   1.676  13.891 -0.0361 -0.1092  0.5012
 2278W        W19126   2.946  11.635  14.524  0.0976 -0.4570  0.0298
 2279W        W19127  15.316   4.608  13.046  0.3647 -0.0411  0.2112
 2280W        W19128   4.412  15.576  12.533 -0.0908  0.1227  0.1510
 2281W        W19129  13.320   3.787  16.867  0.2176  0.0226  0.1504
 2282W        W19130  10.822   9.338   0.119  0.1797  0.3325 -0.2803
 2283W        W19131  11.665   9.704  14.655 -0.0900  0.2011  0.1550
 2284W        W19132   4.219   6.921   2.205 -0.2043 -0.2572 -0.1177
 2285W        W19133   7.869   7.176  14.157 -0.3298  0.1833  0.3896
 2286W        W19134   3.192   2.307   0.513  0.0331 -0.1821 -0.2492
 2287W        W19135   8.136  13.406  17.682  0.2432 -0.2130 -0.0300
 2288W        W19136  10.984   5.169  12.158 -0.0426  0.3265 -0.0935
 2289W        W19137   7.376   9.265  13.278  0.3504 -0.1605  0.0246
 2290W        W19138   4.663   1.007   2.116  0.0555  0.0339 -0.0685
 2291W        W19139   0.534  11.492  13.983  0.0585 -0.1239 -0.1894
 2292W        W19140  13.256  14.007  16.800 -0.1595 -0.0615 -0.2023
 2293W        W19141   4.115   6.949   4.748  0.1598 -0.0065 -0.1382
 2294W        W19142   1.087   5.185   0.240 -0.1452 -0.0130  0.1858
 2295W        W19143  14.282   5.053  14.589 -0.2711  0.1399 -0.3082
 2296W        W19144  13.926  10.395  15.049 -0.2233  0.0738 -0.2626
 2297W        W19145  10.192  16.030   0.478  0.0778  0.2021 -0.0041
 2298W        W19146   8.461   1.817  14.798 -0.0736 -0.0121  0.2826
 2299W        W19147  12.240  16.570   0.582 -0.0063 -0.2879  0.0496
 2300W        W19148  17.015   0.777   3.349  0.0709 -0.0397  0.0445
 2301W        W19149  16.049   1.245  16.796  0.1830 -0.0373  0.1726
 2302W        W19150  15.174   9.243  15.396 -0.2377 -0.2338 -0.2528
 2303W        W19151   8.503   1.948  14.252  0.2561  0.2384  0.4779
 2304W        W19152  12.063   2.245   2.032  0.0099 -0.2299 -0.1896
 2305W        W19153  11.014   7.799   4.641  0.1253 -0.0748  0.1596
 2306W        W19154   9.199  16.725  12.339 -0.1287 -0.0247 -0.1196
 2307W        W19155   6.982   0.527  13.276 -0.0324 -0.2029 -0.1294
 2308W        W19156  14.149   7.447   4.357 -0.2229 -0.1229  0.0824
 2309W        W19157   4.096  15.232   5.223 -0.3631  0.3825  0.1105
 2310W        W19158   1.292   6.096  13.453  0.1837  0.0641 -0.1771
 2311W        W19159  15.362  11.381   1.056 -0.0179 -0.0785 -0.0240
 2312W        W19160  12.553   6.759   5.843 -0.0227 -0.2042  0.3819
 2313W        W19161   1.551  16.473   4.216  0.0829  0.0778 -0.1873
 2314W        W19162  13.358  15.459  14.757 -0.0976 -0.0316 -0.0540
 2315W        W19163   4.965  11.507  16.486  0.4398  0.0652  0.0609
 2316W        W19164   7.017  12.634  12.660  0.0051 -0.1836  0.1460
 2317W        W19165   6.748  10.820   3.927  0.0076 -0.1658 -0.0169
 2318W        W19166   8.501   6.814  13.156 -0.0489  0.0103  0.2541
 2319W        W19167   2.984  13.967  16.202  0.0514 -0.1769  0.1084
 2320W        W19168   4.220  12.041  13.453  0.2608  0.2270  0.1897
 2321W        W19169  14.453   5.125   3.337 -0.0003 -0.0135 -0.3577
 2322W        W19170   6.983   1.907  17.584 -0.0164  0.2558  0.1569
 2323W        W19171   0.274  17.031   5.523  0.3582 -0.2250  0.4505
 2324W        W19172   1.274   6.225  16.539 -0.0056 -0.0638 -0.0064
 2325W        W19173   6.031   7.374  15.861  0.0344 -0.2201  0.1693
 2326W        W19174   9.280  10.687   0.179 -0.1312 -0.0804 -0.0307
 2327W        W19175   2.361   2.304  15.447  0.1930  0.3412 -0.0505
 2328W        W19176  11.524  11.988   3.801 -0.3558  0.2350 -0.2552
 2329W        W19177   6.862   4.578  12.038 -0.0790 -0.0079 -0.2113
 2330W        W19178   2.951  16.277  17.134 -0.2515  0.1860  0.0228
 2331W        W19179  14.738   2.899   2.151  0.3166  0.0356  0.1934
 2332W        W19180   5.615   6.002   3.297  0.3468  0.2797  0.1867
 2333W        W19181  14.146  12.737  12.894 -0.1019  0.0086  0.1696
 2334W        W19182   8.479   4.006  13.876  0.0825 -0.1267 -0.5815
 2335W        W19183  15.146   5.686  16.647  0.3941 -0.0080 -0.0646
 2336W        W19184  11.799   4.991  17.152  0.6198 -0.4354  0.4473
 2337W        W19185   9.944  10.267   4.281  0.3820  0.0097 -0.1571
 2338W        W19186  12.679  10.977   5.067 -0.1845 -0.2598 -0.0050
 2339W        W19187   6.873   2.705   4.889 -0.0223 -0.2919 -0.0699
 2340W        W19188   4.925  15.854   2.549 -0.0791 -0.4723  0.3392
 2341W        W19189   2.531   5.290  16.798  0.0152  0.1068  0.1708
 2342W        W19190  14.157   6.776  12.314 -0.0609  0.1596  0.0302
 2343W        W19191   1.092   4.520   3.264 -0.0258  0.1495 -0.0204
 2344W        W19192   6.309  11.869   3.144  0.0453 -0.2355 -0.0578
 2345W        W19193   3.487   4.246   5.215 -0.1050  0.0507 -0.0074
 2346W        W19194  16.904   5.211  14.591  0.0421  0.0094 -0.1254
 2347W        W19195   3.280   4.353  17.553  0.2146 -0.1129 -0.0973
 2348W        W19196   7.918  12.321   2.882 -0.2744 -0.2859  0.0466
 2349W        W19197  12.706  12.702  13.921  0.3268 -0.2374 -0.0448
 2350W        W19198   8.477  13.984   4.408  0.0995  0.1108 -0.1847
 2351W        W19199   1.201  11.632  15.632 -0.0977  0.1609  0.1994
 2352W        W19200   3.366   2.262  13.623 -0.1600 -0.1587  0.1938
 2353W        W19201  13.231   7.177   0.417  0.0224 -0.0640  0.1491
 2354W        W19202   5.014  14.553   4.488 -0.1306  0.0189 -0.0183
 2355W        W19203  13.555  11.990   3.138  0.0458  0.2695  0.0935
 2356W        W19204   9.614   4.359   1.608  0.1160 -0.0406  0.0539
 2357W        W19205   4.124   6.625   0.160 -0.1622 -0.0782 -0.2829
 2358W        W19206   2.710  12.514  16.116  0.2571  0.0586  0.3743
 2359W        W19207  14.990   8.620   2.799 -0.0173 -0.0250  0.0006
 2360W        W19208  11.672   0.130   3.137  0.1027  0.2017 -0.1117
 2361W        W19209  12.398   5.093  15.837  0.0034 -0.0129 -0.1968
 2362W        W19210   6.843  14.756  13.684  0.1240 -0.2053  0.0679
 2363W        W19211   6.559   9.717   6.406  0.0204 -0.0050 -0.1612
 2364W        W19212  15.674   9.328  13.079  0.3890  0.2690 -0.1562
 2365W        W19213  14.297   8.630  15.327 -0.1763  0.0569 -0.0515
 2366W        W19214  14.106   1.943  17.443 -0.0651 -0.0733 -0.1135
 2367W        W19215   9.604  14.229  12.546  0.0950 -0.0505 -0.0333
 2368W        W19216   8.134  13.575  13.435 -0.1739  0.2113  0.0714
 2369W        W19217   7.663  12.184   2.146  0.1405  0.0820 -0.1173
 2370W        W19218  12.210   2.259  14.408 -0.2546 -0.0253  0.1055
 2371W        W19219  10.921   8.050  17.580 -0.0076  0.5326  0.2322
 2372W        W19220   8.227  10.664  14.357  0.3028 -0.4082  0.2310
 2373W        W19221  16.791  14.457   1.425 -0.0423 -0.1218 -0.0827
 2374W        W19222  11.392   3.012  11.648  0.2647  0.0393 -0.0169
 2375W        W19223   4.103   1.359  13.626  0.1008 -0.1667 -0.0401
 2376W        W19224   5.275   6.806   2.323  0.0259  0.2317  0.1541
 2377W        W19225   0.396  16.715  16.582  0.0837  0.2476 -0.1592
 2378W        W19226  10.517   4.082   1.260 -0.3679 -0.1403 -0.0261
 2379W        W19227   8.988  10.786  12.050  0.2869 -0.0931 -0.0681
 2380W        W19228   9.766   7.421  14.508  0.0490 -0.2375  0.1240
 2381W        W19229   1.822   9.028  17.767  0.0994 -0.1606 -0.2607
 2382W        W19230   5.230   5.041  16.630 -0.1494  0.2040 -0.2343
 2383W        W19231   7.691   4.964  14.601 -0.0730 -0.0864 -0.2128
 2384W        W19232  15.327   9.131  14.931 -0.2460 -0.2781  0.1094
 2385W        W19233   6.642  14.808   0.925  0.2667  0.0303  0.2552
 2386W        W19234  13.485   4.567   1.287  0.1445 -0.0818  0.0787
 2387W        W19235   0.739   8.286  12.938  0.0217 -0.2159 -0.0488
 2388W        W19236   4.781   5.817  16.924 -0.1473 -0.1251 -0.0288
 2389W        W19237   3.861  14.494  13.069 -0.1932 -0.0431 -0.0777
 2390W        W19238  13.094  10.872  14.227  0.1575 -0.1164 -0.1924
 2391W        W19239   8.746   5.927  13.479  0.3348 -0.0653 -0.0286
 2392W        W19240  14.252  11.250   5.770  0.2055 -0.2853 -0.0431
 2393W        W19241   3.880   8.599  16.901 -0.2213 -0.3215  0.1048
 2394W        W19242   8.588   6.185   2.402 -0.2438 -0.3703 -0.0593
 2395W        W19243  13.149  15.690  15.229  0.1532 -0.0543  0.4873
 2396W        W19244  13.714   8.812   3.713  0.1665  0.3096 -0.3942
 2397W        W19245   3.661   0.415  12.448  0.2263  0.1882 -0.1948
 2398W        W19246   3.048  12.586  12.982 -0.0707 -0.0712  0.1979
 2399W        W19247   6.540  11.310   1.930 -0.0960  0.0381  0.0942
 2400W        W19248   3.969  17.126   5.045  0.1192  0.0019 -0.0462
 2401W        W19249  11.837   8.257   3.298 -0.0255 -0.0146  0.0036
 2402W        W19250   5.876   9.928  16.102  0.1305 -0.0195  0.0357
 2403W        W19251   2.538  12.447   0.383  0.1976  0.1223 -0.2050
 2404W        W19252  16.957  11.950  16.714  0.0681  0.1191 -0.0866
 2405W        W19253  15.819   3.003  12.360 -0.0722  0.3886  0.1912
 2406W        W19254   4.395   9.393   3.066 -0.0940  0.0820 -0.3882
 2407W        W19255   2.991   9.188   4.537  0.2673  0.1521 -0.3184
 2408W        W19256   1.618  16.968  16.041 -0.0512  0.3085  0.1617
 2409W        W19257   6.056  13.578   1.665 -0.0306 -0.0894  0.0768
 2410W        W19258   6.518   0.675   2.942 -0.1716 -0.3464 -0.2401
 2411W        W19259   0.950  14.861   3.826 -0.0208 -0.3078 -0.0190
 2412W        W19260   2.436  16.627   6.418  0.2013 -0.3309 -0.0778
 2413W        W19261  10.001  10.948   2.509  0.0369  0.0776 -0.1590
 2414W        W19262  14.126   3.355  17.264  0.2261  0.4191 -0.0471
 2415W        W19263  11.006  13.861  17.245  0.0527 -0.0270 -0.0435
 2416W        W19264   3.220  15.755  16.387 -0.0943 -0.1727 -0.0275
 2417W        W19265   8.123   1.972  13.421  0.0463  0.0663 -0.0082
 2418W        W19266  10.834   4.010  17.089 -0.1582  0.1410  0.2133
 2419W        W19267   1.199   7.796   0.929  0.4094  0.1357  0.2420
 2420W        W19268  15.545  14.087  12.666  0.0051 -0.2361  0.2067
 2421W        W19269  11.450  11.061   3.189  0.3038  0.2673 -0.4059
 2422W        W19270   7.915  10.870  16.003 -0.1199 -0.0061  0.0489
 2423W        W19271  15.606   4.972   1.758 -0.2372 -0.0914 -0.0272
 2424W        W19272  10.732   5.680   3.590 -0.1454  0.1018 -0.0415
 2425W        W19273  11.430   3.648  12.181 -0.2779 -0.0123 -0.3760
 2426W        W19274   7.539   5.986   5.128 -0.0450 -0.1616 -0.1778
 2427W        W19275   8.590   2.527  13.588  0.1925 -0.4664  0.0572
 2428W        W19276   0.713   6.091  12.713 -0.0788 -0.1900  0.0029
 2429W        W19277   4.660  12.572   5.254 -0.0686 -0.0273  0.3228
 2430W        W19278  14.017   1.246  11.253 -0.3966  0.0073 -0.0256
 2431W        W19279   1.498   2.309  16.001  0.0493  0.0500 -0.1507
 2432W        W19280  13.361   9.522  12.552  0.1003  0.1854  0.3470
 2433W        W19281  13.001   6.090   4.952  0.2602 -0.3596 -0.0129
 2434W        W19282  11.305  13.100  12.346 -0.0757 -0.0425  0.0555
 2435W        W19283   4.143   6.123   0.075  0.1071 -0.0571 -0.1640
 2436W        W19284  10.832  14.550  13.707  0.0796  0.2451  0.1539
 2437W        W19285   5.004  12.641   1.439  0.0089  0.1145  0.1907
 2438W        W19286   2.575   2.142  17.273 -0.2748  0.0886 -0.0664
 2439W        W19287   1.996   8.413   4.779 -0.2486 -0.2876 -0.0368
 2440W        W19288   8.761   8.356  12.567 -0.1414  0.0541  0.0373
 2441W        W19289  11.012  16.962  17.563 -0.3151 -0.1945  0.1633
 2442W        W19290   8.640  10.313   1.836 -0.4326 -0.0004 -0.1944
 2443W        W19291   2.309  12.872  14.537  0.0231 -0.0246  0.0583
 2444W        W19292  10.898   4.469   4.453  0.2951  0.1112  0.2195
 2445W        W19293   0.526   0.282   3.619 -0.0445  0.1289 -0.2008
 2446W        W19294   9.342  10.930   1.751  0.0809  0.2171 -0.0937
 2447W        W19295  15.535   9.664  15.694 -0.2497 -0.0227 -0.2069
 2448W        W19296   2.168   4.689  17.625  0.1047  0.0407 -0.0334
 2449W        W19297  14.724   0.977  17.503  0.0117  0.2238 -0.3805
 2450W        W19298   5.369  14.106  13.952 -0.1211  0.1218 -0.0349
 2451W        W19299  12.519  10.180  14.653 -0.3466 -0.3097  0.2998
 2452W        W19300   5.273   1.041   5.179  0.1396 -0.0256  0.1158
 2453W        W19301   0.428  12.939  13.138 -0.0694  0.1855 -0.1119
 2454W        W19302  15.805   9.048  16.346  0.2647 -0.0350  0.0422
 2455W        W19303  14.541  13.373  14.598 -0.1437  0.1306 -0.3054
 2456W        W19304   5.629  16.124   0.397 -0.2789 -0.2982 -0.0366
 2457W        W19305   0.568   0.888   5.161 -0.0866 -0.1619 -0.2346
 2458W        W19306   6.867  15.912   0.201 -0.4096 -0.0133  0.0108
 2459W        W19307  17.061   7.779  14.486 -0.2929  0.0043  0.1565
 2460W        W19308   1.834  10.860   4.217 -0.0526  0.0471 -0.3356
 2461W        W19309  15.050   1.353  17.686  0.1005 -0.2414  0.2017
 2462W        W19310  12.133  12.682  15.169  0.0245  0.0383 -0.3196
 2463W        W19311  15.196   7.556  14.695 -0.0377  0.1394 -0.0948
 2464W        W19312   1.212   3.340  14.222  0.0147 -0.1889  0.1064
 2465W        W19313  11.893   4.985   2.251  0.0676  0.2759 -0.1710
 2466W        W19314   8.582  16.618  13.063 -0.0386 -0.1764  0.0812
 2467W        W19315  15.539   7.185  17.342 -0.0531 -0.1997 -0.2615
 2468W        W19316   9.518   7.013  16.900 -0.5121 -0.0908  0.1888
 2469W        W19317  11.280  12.415   4.419 -0.2594 -0.2239 -0.3632
 2470W        W19318   4.345  17.047   3.655  0.0468 -0.0960  0.1368
 2471W        W19319  10.614  10.187  12.824 -0.0243 -0.0438 -0.0879
 2472W        W19320  16.073   3.788  13.280 -0.1396  0.0687 -0.3436
 2473W        W19321   2.797   7.824   2.574  0.0933 -0.3322  0.1145
 2474W        W19322   8.138   2.260  13.933  0.0939  0.1162  0.1893
 2475W        W19323   8.469   3.001  11.883  0.1619  0.3612 -0.2193
 2476W        W19324  10.828   1.998  15.812 -0.1595 -0.1699 -0.1011
 2477W        W19325  11.355   4.569   3.743  0.0176  0.1399 -0.0249
 2478W        W19326  12.194   9.601   4.608 -0.1577 -0.1431  0.1101
 2479W        W19327   2.683   2.762   1.634  0.5268 -0.0265  0.0526
 2480W        W19328  14.249  15.168   2.818 -0.0833 -0.1344 -0.1704
 2481W        W19329  11.038  13.342  16.373  0.0178  0.0497  0.0051
 2482W        W19330   1.391   0.552  16.316  0.1994  0.1429 -0.2205
 2483W        W19331  13.507   7.474  16.050 -0.0561 -0.1033  0.1016
 2484W        W19332   8.356   4.374   5.708 -0.2687  0.1169  0.0184
 2485W        W19333  12.929   7.310  13.109  0.0057 -0.1883 -0.0480
 2486W        W19334  14.529   7.127   4.281 -0.0145  0.1851 -0.1379
 2487W        W19335   4.379   7.909  17.264 -0.3613  0.2203  0.1396
 2488W        W19336   9.544  16.295   0.046  0.2283 -0.1655 -0.1246
 2489W        W19337  14.311   6.786   1.393 -0.0121 -0.1789  0.0879
 2490W        W19338  14.980   2.578  12.819  0.1406  0.1826  0.0457
 2491W        W19339  15.209   5.682  17.446  0.1024 -0.1426  0.3469
 2492W        W19340  10.993   1.651   1.083  0.0619  0.0493  0.2213
 2493W        W19341   7.900  15.172  12.569 -0.3174 -0.0283  0.0289
 2494W        W19342  10.438  16.386  15.726 -0.1793  0.1427 -0.0993
 2495W        W19343   5.449   9.469  12.389 -0.0231  0.1941 -0.2041
 2496W        W19344  10.738  16.610  16.217  0.0635  0.1051 -0.1776
 2497W        W19345  16.141  13.365   0.549 -0.2709  0.2542 -0.1150
 2498W        W19346   7.869   5.071  12.980 -0.2761  0.1065 -0.3055
 2499W        W19347   0.949   7.308  15.233 -0.0973 -0.2879  0.2449
 2500W        W19348   9.297   2.344  14.997 -0.0299  0.2343  0.4107
 2501W        W19349   2.866  15.244  13.652 -0.0373  0.2963  0.0538
 2502W        W19350   4.240   3.413   0.191  0.0804  0.2385  0.0103
 2503W        W19351   2.796  12.895   2.788 -0.1052  0.1439  0.1879
 2504W        W19352  16.873   7.482   5.377  0.1597 -0.2533  0.0447
 2505W        W19353   0.998  12.842  15.816 -0.2946  0.0261  0.3164
 2506W        W19354   0.542   0.160   2.398  0.0418 -0.0309  0.1776
 2507W        W19355  10.017  12.497  16.561 -0.1051  0.0126  0.0386
 2508W        W19356  16.198   8.992  16.693 -0.0423  0.0015  0.0704
 2509W        W19357   9.887  10.923   1.810  0.0419 -0.1575 -0.0099
 2510W        W19358  11.159  13.770   1.404 -0.3049  0.2735  0.0414
 2511W        W19359  16.507   6.739  16.657 -0.1397  0.0783  0.0070
 2512W        W19360  17.164   4.353  17.379 -0.2659  0.4127  0.0919
 2513W        W19361   3.001  10.577  13.748 -0.0368  0.0018  0.0213
 2514W        W19362   6.158  15.869  14.141 -0.2712 -0.0092  0.1884
 2515W        W19363   1.874  10.642  14.654 -0.0913 -0.2689 -0.2441
 2516W        W19364  15.613   2.734  16.484 -0.1819  0.0876 -0.0570
 2517W        W19365   9.073   1.637   3.010 -0.1573  0.1189 -0.2979
 2518W        W19366  10.808   0.782  15.880  0.0640 -0.0562 -0.0473
 2519W        W19367   7.514   5.312   2.428  0.2113  0.0257  0.1790
 2520W        W19368  15.123   4.928  16.664  0.2760 -0.3344 -0.0734
 2521W        W19369   7.044   2.399   0.048 -0.0810  0.2848 -0.2251
 2522W        W19370   8.676  12.809   4.329 -0.0860 -0.1287 -0.0421
 2523W        W19371  16.178   8.984   3.078 -0.1142  0.1017 -0.1863
 2524W        W19372   8.930  13.254  16.763 -0.1839 -0.0821  0.1843
 2525W        W19373  11.773   1.921  15.026 -0.0303  0.4366 -0.1466
 2526W        W19374   4.809  11.278   1.480 -0.0526 -0.0024  0.0381
 2527W        W19375   0.854  11.009   4.403  0.0384 -0.0068 -0.1123
 2528W        W19376   3.654   2.924   3.580  0.0130 -0.0604 -0.1681
 2529W        W19377  11.704   3.491   1.555 -0.3397  0.0020 -0.1348
 2530W        W19378  12.883   1.511   1.532 -0.6206 -0.0076  0.1867
 2531W        W19379   5.550   0.446  12.477  0.2445  0.2166 -0.3047
 2532W        W19380   2.904   0.322  16.267  0.1053 -0.0798 -0.0308
 2533W        W19381  15.219   9.791   0.734  0.0652 -0.0800 -0.1766
 2534W        W19382   4.642   0.364   0.502  0.1362 -0.0099 -0.3225
 2535W        W19383   7.029  14.041   1.714  0.0384  0.2238 -0.0120
 2536W        W19384  11.201   4.472   2.497  0.0189 -0.1156  0.0501
 2537W        W19385   7.806   1.405   5.285  0.1115  0.0190  0.0604
 2538W        W19386   6.979   1.397  14.099  0.0550  0.0580  0.0319
 2539W        W19387  15.985   0.587   1.571  0.2615  0.0956 -0.3170
 2540W        W19388  16.157   6.285  12.433  0.1333 -0.0060  0.1586
 2541W        W19389   1.916  13.487   1.202  0.1458 -0.3590 -0.3408
 2542W        W19390  11.476   8.990  15.592  0.1603  0.0640 -0.1032
 2543W        W19391  14.603  10.485   3.627 -0.3150 -0.2717 -0.2565
 2544W        W19392  11.308  12.898   3.212 -0.3284  0.0303  0.0600
 2545W        W19393   4.207  11.777  17.192 -0.0638  0.1789 -0.1648
 2546W        W19394  12.966  14.657   1.315  0.0076 -0.0094 -0.0428
 2547W        W19395  17.055   7.892   3.275 -0.0743  0.2073 -0.5270
 2548W        W19396  13.133   4.738  13.770  0.0979  0.1126  0.0399
 2549W        W19397   7.455   5.239  14.966  0.0686 -0.1357 -0.0875
 2550W        W19398  10.778  14.730  16.282  0.1280 -0.2814  0.1940
 2551W        W19399  16.129   5.631  12.708 -0.3045  0.0143 -0.0267
 2552W        W19400   0.455   9.026  11.529  0.0338 -0.0677  0.0656
 2553W        W19401   0.498   4.182   4.461 -0.0228 -0.2640  0.1043
 2554W        W19402  10.978  10.300   1.596  0.1612  0.0300 -0.0128
 2555W        W19403   4.607   7.172  12.345  0.1209  0.3773  0.4952
 2556W        W19404   5.421   7.912  16.321  0.2978  0.3086  0.1167
 2557W        W19405   5.855   0.813   5.876  0.1166  0.1247  0.1995
 2558W        W19406  15.191   2.281   1.844 -0.1181 -0.2197  0.0119
 2559W        W19407  13.178   1.310   0.985  0.1610  0.0382 -0.2526
 2560W        W19408  15.516  13.450  15.282 -0.1508  0.1859 -0.4606
 2561W        W19409  14.295   9.172  15.373  0.0404 -0.0579 -0.1027
 2562W        W19410   0.085   1.281  13.950  0.1154 -0.1143 -0.0040
 2563W        W19411   1.381   7.530   2.589  0.2038 -0.0112  0.0806
 2564W        W19412   4.899   1.543   6.534  0.0930 -0.0278  0.2359
 2565W        W19413  11.531  16.257  15.285 -0.0496  0.0605 -0.0842
 2566W        W19414  10.674   7.023   1.989  0.1501  0.1085 -0.3297
 2567W        W19415   1.283  16.859  12.624 -0.1699 -0.2123  0.0280
 2568W        W19416  16.953  14.434   5.914  0.0104 -0.1887  0.1169
 2569W        W19417   0.560  14.702   4.333 -0.0812 -0.2917 -0.2261
 2570W        W19418   5.614   3.053  16.550  0.0206 -0.3073 -0.0609
 2571W        W19419   0.630  11.912  15.016 -0.0430  0.0116  0.4115
 2572W        W19420   1.395   1.181  12.356 -0.1237 -0.0068 -0.2133
 2573W        W19421  11.409   9.725  15.260 -0.2580  0.2002 -0.0671
 2574W        W19422   7.611   0.766   3.055  0.1432  0.1512  0.0494
 2575W        W19423   3.774   4.265   5.717 -0.2306 -0.0876  0.0016
 2576W        W19424  11.821  10.821   3.920 -0.0656  0.1516  0.2193
 2577W        W19425  11.232   2.170   1.037  0.2409  0.2728  0.4845
 2578W        W19426   4.610  11.238   2.777 -0.2065 -0.2122  0.1279
 2579W        W19427   7.799   8.017  16.215 -0.1650  0.0998 -0.0120
 2580W        W19428   6.702   8.223  12.049 -0.2769  0.2013  0.2305
 2581W        W19429  11.771  12.060  12.726 -0.1788  0.0091  0.1332
 2582W        W19430   5.084  14.721  17.368  0.2004  0.1232  0.1065
 2583W        W19431  16.485   1.348  12.760 -0.1435 -0.1300  0.3581
 2584W        W19432   8.127  14.642  12.416 -0.0191 -0.2033 -0.2003
 2585W        W19433  12.133   4.646   4.042 -0.1974 -0.0481 -0.0394
 2586W        W19434   6.014   3.692   5.573 -0.0213  0.0863  0.0493
 2587W        W19435   2.651   7.862   6.850 -0.1827 -0.3016  0.1579
 2588W        W19436   8.308  11.255  17.297  0.0283  0.0925  0.1485
 2589W        W19437  14.100   1.918   0.955 -0.1316 -0.0917  0.2033
 2590W        W19438   1.251  14.559   2.572 -0.0015 -0.0341 -0.0530
 2591W        W19439  12.466  15.377  13.170  0.0551 -0.1104  0.0260
 2592W        W19440  15.646   8.733  17.571  0.2090  0.1792  0.3261
 2593W        W19441   9.060   1.968  16.236 -0.0604 -0.1188 -0.0709
 2594W        W19442  16.993   2.387   5.146 -0.2294  0.2159  0.1953
 2595W        W19443  12.204   2.436   0.039 -0.1864  0.1874 -0.0289
 2596W        W19444  14.213   5.057  13.209  0.2676 -0.4296  0.1821
 2597W        W19445   1.772   0.781   5.539 -0.1497 -0.3434 -0.0023
 2598W        W19446   2.196   6.469   3.932 -0.0657  0.0074  0.0870
 2599W        W19447   2.055  11.524  16.739  0.1346 -0.3754 -0.1813
 2600W        W19448   5.157  14.245   2.451  0.1579 -0.1324  0.1987
 2601W        W19449  10.250   6.009   5.534  0.2477  0.1250  0.2271
 2602W        W19450   3.411   2.836   2.095 -0.2060  0.0060  0.3222
 2603W        W19451   8.421   3.041   3.703 -0.1675 -0.1943  0.0262
 2604W        W19452  13.784   3.617  14.241 -0.2154  0.1594  0.0127
 2605W        W19453   1.213  11.364  13.282 -0.0428  0.0290 -0.0473
 2606W        W19454   9.790  12.724  15.050  0.0113  0.0196  0.2065
 2607W        W19455  13.463   7.540   1.496  0.2420 -0.1000  0.2478
 2608W        W19456   7.543  11.086   0.701  0.0510 -0.0663  0.1834
 2609W        W19457  11.106   9.002   1.749 -0.2704  0.1515  0.0263
 2610W        W19458   8.188  15.917  15.719 -0.0005  0.1961 -0.3861
 2611W        W19459   2.230  16.590  14.254  0.1699  0.1193  0.2822
 2612W        W19460   9.657   4.335  12.304  0.2567 -0.0530 -0.0884
 2613W        W19461  14.269  10.404   2.358  0.0762  0.0473 -0.0018
 2614W        W19462  16.792  11.872   5.923  0.0246  0.2152  0.2033
 2615W        W19463   3.158  15.775   6.077  0.1494  0.0951  0.1921
 2616W        W19464   6.790  14.143  16.133 -0.2246 -0.0150 -0.2678
 2617W        W19465   2.797   8.081  14.340 -0.1070 -0.1569  0.0179
 2618W        W19466   6.556   6.038  12.569  0.0180 -0.1221 -0.1043
 2619W        W19467   5.872  12.114   3.316  0.2139 -0.0135  0.0586
 2620W        W19468  15.627  11.651   0.438 -0.0017 -0.2060 -0.1316
 2621W        W19469   9.712   5.166  12.308  0.2359 -0.3008  0.3632
 2622W        W19470  16.930  11.782  17.207 -0.0030 -0.0836  0.0528
 2623W        W19471   7.983   0.770   3.360 -0.0532 -0.0756  0.1649
 2624W        W19472   0.494   9.033  14.963 -0.1748 -0.0082 -0.2036
 2625W        W19473   9.198  13.997   0.892 -0.3042  0.3315  0.1969
 2626W        W19474  10.993  14.872   5.350  0.0323 -0.0311  0.0251
 2627W        W19475  15.266   7.147   5.392  0.2137 -0.0681  0.0131
 2628W        W19476   4.487   0.365  14.026 -0.0010  0.1042 -0.4090
 2629W        W19477   1.713   9.099   3.700 -0.5505  0.1056 -0.0603
 2630W        W19478   0.279   8.643  12.690  0.0864  0.1989 -0.2445
 2631W        W19479   8.776   0.743  16.482 -0.2392 -0.3063 -0.0961
 2632W        W19480   3.306   7.768   2.575 -0.1328  0.1307  0.1119
 2633W        W19481   5.369   5.195   3.778  0.0184 -0.1318  0.0299
 2634W        W19482   6.879  11.823   2.033 -0.0743 -0.0686 -0.0423
 2635W        W19483  12.230  12.158   2.098  0.2712  0.2500 -0.0905
 2636W        W19484  10.021   5.650   3.109 -0.0890 -0.0244 -0.1659
 2637W        W19485   5.343   4.588  17.074 -0.0412 -0.0014  0.0599
 2638W        W19486   3.715   8.892  16.080 -0.1174  0.1319 -0.5126
 2639W        W19487   8.408  11.017  15.958 -0.0655  0.2394  0.2119
 2640W        W19488   3.448  15.436   2.158  0.2859 -0.0008 -0.1887
 2641W        W19489  11.740  11.964   3.381  0.2119 -0.1754 -0.0772
 2642W        W19490  16.946  11.827   3.956  0.1256  0.2539 -0.0715
 2643W        W19491  14.828   3.619   5.140  0.2256  0.1403  0.0296
 2644W        W19492   8.300  10.462   0.321  0.1368 -0.0043  0.3241
 2645W        W19493   4.362   3.093  16.507 -0.1729 -0.0249 -0.0603
 2646W        W19494   0.372   5.154  13.106 -0.1718  0.0872  0.3167
 2647W        W19495   8.682   1.659  16.152 -0.0662  0.2511  0.1240
 2648W        W19496   0.725  11.264  13.180  0.1553  0.1537 -0.3153
 2649W        W19497  13.668   9.228  12.797  0.2302 -0.2806  0.0311
 2650W        W19498   8.247   2.627  12.762  0.0094  0.0166  0.1058
 2651W        W19499  17.139   1.681   1.395 -0.1077  0.0609  0.1769
 2652W        W19500   8.684  11.670   1.968  0.2246  0.1984 -0.1594
 2653W        W19501   3.757   4.745  15.064  0.0126 -0.2633 -0.2867
 2654W        W19502   2.259   7.399  13.771  0.0783  0.2442 -0.0256
 2655W        W19503   7.178  16.519  12.497 -0.0019 -0.0505  0.2135
 2656W        W19504  11.539  11.626  16.310 -0.4690  0.2553  0.1993
 2657W        W19505   2.247   5.933   0.313  0.4202  0.1220 -0.0653
 2658W        W19506   8.280  15.922  14.495 -0.0595 -0.3802 -0.1231
 2659W        W19507  15.481   6.025   5.169  0.0719 -0.1109  0.0037
 2660W        W19508   5.467   1.169   1.954  0.2117  0.1854  0.3347
 2661W        W19509  16.897   8.329  16.254  0.1041 -0.2147 -0.1448
 2662W        W19510   2.317  12.076  16.834  0.1122 -0.1478 -0.0195
 2663W        W19511   9.581   5.675   0.241  0.0346 -0.4567 -0.3566
 2664W        W19512   6.261   6.071  16.632  0.0924 -0.1170 -0.4683
 2665W        W19513   8.113   1.013   5.500  0.0937  0.2798 -0.1561
 2666W        W19514  14.287  16.877  12.431  0.1906 -0.2676 -0.0654
 2667W        W19515  12.260  14.562   0.114 -0.1303 -0.3193 -0.1890
 2668W        W19516  12.545   1.158   2.650 -0.1148 -0.3292 -0.1989
 2669W        W19517  11.087   5.738  15.492  0.2303  0.1933 -0.2393
 2670W        W19518   5.863   5.894  14.530 -0.0899 -0.0547  0.1402
 2671W        W19519  10.825  17.059  16.391  0.2243 -0.0563  0.1295
 2672W        W19520  11.837   2.781  11.641  0.1639 -0.0228  0.3040
 2673W        W19521   2.896  12.120  13.665  0.2681 -0.1229 -0.3931
 2674W        W19522   0.843   6.904   5.260 -0.3993 -0.1442 -0.0102
 2675W        W19523  16.242  16.320  12.552  0.2231 -0.0051 -0.1438
 2676W        W19524  13.399   4.682   4.918 -0.2078 -0.1569 -0.0887
 2677W        W19525   8.748  10.411   5.235  0.3453 -0.1241 -0.0829
 2678W        W19526   1.841  14.348   4.834 -0.0753 -0.2765  0.1062
 2679W        W19527   9.412   6.196  15.785 -0.2592  0.2404 -0.3606
 2680W        W19528  14.666   9.474   5.109 -0.0884  0.0684  0.2053
 2681W        W19529  14.924  15.636  16.656  0.0604  0.2148 -0.1125
 2682W        W19530   8.316  15.177  12.096  0.0607 -0.0838 -0.1111
 2683W        W19531   7.681   5.738  12.458 -0.1756  0.4806 -0.4432
 2684W        W19532  12.384  15.148  14.887  0.0835  0.1002  0.1444
 2685W        W19533   7.098  17.054   3.066 -0.0023  0.1125  0.1490
 2686W        W19534   9.517   9.582  11.725  0.1711  0.1040  0.1733
 2687W        W19535  11.035  16.159  17.120  0.0567  0.0111 -0.0550
 2688W        W19536  10.752  11.061   1.950  0.2303 -0.1410  0.1070
 2689W        W19537  16.362  14.105  13.277  0.1493 -0.1267 -0.1049
 2690W        W19538  13.548   3.391   4.698  0.1679 -0.1138  0.0425
 2691W        W19539   9.688   7.907   1.159 -0.3770 -0.2066 -0.0133
 2692W        W19540   2.079   7.309   0.671 -0.0377 -0.2397 -0.1583
 2693W        W19541   8.443   9.966   1.203 -0.1273  0.3201  0.0878
 2694W        W19542  16.700   7.624  14.095  0.2721 -0.3477  0.0621
 2695W        W19543   1.861  11.351   2.608  0.1649 -0.2362  0.2685
 2696W        W19544   1.617  13.333   4.828  0.0105  0.1411 -0.1835
 2697W        W19545   2.254   8.089   1.016 -0.0736  0.3630  0.0201
 2698W        W19546  13.170   0.785   3.608 -0.3286  0.0221 -0.1010
 2699W        W19547  16.022  10.661  14.946  0.0557  0.1576 -0.1534
 2700W        W19548   8.350   3.987  12.504  0.2828  0.0768  0.2722
 2701W        W19549   2.131  10.654  13.980 -0.1081 -0.1121  0.0786
 2702W        W19550  13.365  12.499   4.373 -0.1668  0.1742 -0.1213
 2703W        W19551   3.436   0.064   3.710 -0.1542 -0.0160  0.2269
 2704W        W19552   7.611  16.257  15.099 -0.1748  0.0148 -0.2508
 2705W        W19553   2.718  12.420  12.644  0.0488 -0.3169 -0.0978
 2706W        W19554   1.187   7.573   3.045 -0.1705  0.0290 -0.0615
 2707W        W19555   8.435  15.552  12.704  0.0787 -0.0907  0.1387
 2708W        W19556   3.119   7.758  17.699 -0.0605 -0.0071  0.1631
 2709W        W19557   0.241   9.229   5.001 -0.0865 -0.1591  0.0814
 2710W        W19558   7.460  16.754  16.409 -0.0497 -0.1715  0.0173
 2711W        W19559   0.360  13.452   2.805  0.0744  0.0341  0.0106
 2712W        W19560   1.754  15.385   2.925  0.1830 -0.0595  0.0486
 2713W        W19561   5.461  12.472   0.742 -0.3152  0.2331  0.1580
 2714W        W19562   9.643  17.064  15.507 -0.3873 -0.1691  0.1368
 2715W        W19563   5.146   0.081   5.162 -0.1973 -0.0555 -0.0290
 2716W        W19564  14.118  11.854  16.954 -0.0332  0.0049  0.0984
 2717W        W19565   0.643  15.909  13.500 -0.0635  0.0203  0.1429
 2718W        W19566   7.077   7.865  13.706 -0.0625 -0.3077  0.1641
 2719W        W19567   9.960  13.371  11.142 -0.2659  0.1939  0.0167
 2720W        W19568  14.361   1.858   0.118 -0.2225 -0.2594 -0.0418
 2721W        W19569  12.782  12.109  16.929  0.0983 -0.0225 -0.0388
 2722W        W19570   5.750   0.761   2.276  0.1331  0.0722 -0.1805
 2723W        W19571   8.895  14.380   4.520 -0.0883  0.0024 -0.0865
 2724W        W19572   0.080   6.557   4.867  0.2946 -0.3892 -0.2478
 2725W        W19573   2.340   9.035  16.907  0.0567  0.0241 -0.2449
 2726W        W19574   9.693   0.844  17.310  0.2214 -0.0021  0.1661
 2727W        W19575  10.271  12.077  14.433  0.0696 -0.0737  0.1180
 2728W        W19576  14.291   4.879   1.989 -0.2950  0.2520  0.0504
 2729W        W19577   3.443   2.730  14.064  0.1586  0.2238  0.0859
 2730W        W19578   7.915   9.199   1.558  0.1126  0.1105  0.2375
 2731W        W19579  14.838  13.262   1.662 -0.0495 -0.3545 -0.2230
 2732W        W19580   9.261  17.022   4.968  0.0512 -0.0614  0.2675
 2733W        W19581   4.255   4.046   4.220 -0.2052 -0.0123 -0.1027
 2734W        W19582  12.243   6.065   4.242 -0.0685 -0.1476  0.1849
 2735W        W19583  12.869   7.086  17.372  0.2042 -0.0119 -0.1822
 2736W        W19584  13.949  14.566  13.323  0.0968  0.1754 -0.2145
 2737W        W19585   7.353   6.829  13.132  0.1747 -0.2467 -0.2364
 2738W        W19586  16.655   7.709   3.051 -0.0717  0.0854  0.2542
 2739W        W19587   0.503  13.984  14.547 -0.1778 -0.2216  0.0601
 2740W        W19588  16.657  14.948   3.685  0.0179  0.1079  0.0855
 2741W        W19589   5.340  12.361   1.652  0.1266 -0.3589 -0.1387
 2742W        W19590   5.813  13.121   1.793  0.0031  0.2195 -0.0860
 2743W        W19591   5.463   9.105   0.955 -0.0969 -0.1544  0.1668
 2744W        W19592   5.339   0.553   1.604 -0.0328 -0.0265  0.5464
 2745W        W19593   5.468   2.771   1.628 -0.2241  0.2086 -0.0593
 2746W        W19594  14.732   3.512  16.294  0.2357  0.3304 -0.2946
 2747W        W19595  10.793  11.526  13.473 -0.0409  0.2795  0.0438
 2748W        W19596  14.420   6.290  14.339 -0.1390  0.2145  0.1802
 2749W        W19597   2.223   2.248   5.282  0.1255 -0.2420 -0.1266
 2750W        W19598  11.969   0.931  11.999 -0.2950 -0.0429  0.1072
 2751W        W19599   2.420   5.686  14.394 -0.1514 -0.1332  0.4464
 2752W        W19600   4.035   9.384  17.238  0.3067 -0.0181  0.5231
 2753W        W19601   4.545  14.120   1.327 -0.0546 -0.2068  0.0267
 2754W        W19602  15.141  16.721   5.411  0.1962  0.1807 -0.3684
 2755W        W19603   9.439  11.846  14.777 -0.3371  0.2271 -0.1005
 2756W        W19604  15.581   9.951  16.693 -0.1890  0.1495  0.2242
 2757W        W19605  15.039   5.048   3.466  0.1422 -0.1816 -0.0978
 2758W        W19606  13.449  12.478  13.450 -0.1200 -0.0447 -0.1644
 2759W        W19607   2.403  12.872  12.796 -0.3676  0.1002 -0.6166
 2760W        W19608   7.027  10.087   2.418  0.0369  0.2470 -0.0540
 2761W        W19609  13.694  15.624  16.380 -0.0622 -0.1442  0.1998
 2762W        W19610   4.267  10.652  17.024 -0.1055 -0.1162 -0.0405
 2763W        W19611   5.545   2.519  15.353  0.4610  0.4270  0.3061
 2764W        W19612   4.549  10.793   5.696 -0.1546  0.1477  0.0146
 2765W        W19613   8.985  15.174  14.409 -0.2616 -0.3092  0.1899
 2766W        W19614   8.590   1.203   4.848 -0.0563  0.1045 -0.0261
 2767W        W19615   4.176  14.136  12.310 -0.0486 -0.0702 -0.1153
 2768W        W19616   5.662   7.893  14.133 -0.1556  0.0314  0.0145
 2769W        W19617  13.440   3.105  15.668 -0.2012  0.2334 -0.2211
 2770W        W19618  15.114  13.981  12.416  0.1412  0.0040  0.0190
 2771W        W19619  16.484  10.214   0.992 -0.1494 -0.1168  0.1076
 2772W        W19620  12.171   2.523  13.940  0.4063 -0.0970  0.1533
 2773W        W19621   3.235  15.862   2.894  0.1081 -0.0897 -0.2555
 2774W        W19622  14.106  14.902  11.566 -0.0346  0.1513 -0.3079
 2775W        W19623   5.582  15.200   5.949 -0.2294  0.1443 -0.1144
 2776W        W19624  14.947   6.895  15.986  0.0878  0.2701  0.2560
 2777W        W19625  14.765   4.426  11.503 -0.0568  0.2738 -0.1215
 2778W        W19626   0.234   5.750   5.412 -0.2312  0.0565 -0.0105
 2779W        W19627   3.184   3.035  16.093  0.0328  0.1534 -0.0746
 2780W        W19628   9.705   2.757  17.202  0.1037  0.2513  0.1038
 2781W        W19629   7.327   3.266  16.316 -0.2488  0.0199 -0.3057
 2782W        W19630  10.661  16.284   1.569 -0.2824  0.2441 -0.1033
 2783W        W19631  15.448   9.920  17.202 -0.1758 -0.0510  0.1276
 2784W        W19632   2.321   3.521   1.641  0.1462 -0.0671  0.1673
 2785W        W19633   1.090  11.921  12.720  0.0446 -0.0629  0.0860
 2786W        W19634   1.772   6.139   0.033 -0.0124  0.0903 -0.0254
 2787W        W19635   6.796  14.597  15.376  0.2111  0.1421  0.0553
 2788W        W19636   0.467  16.650   3.242  0.1609 -0.2985  0.2514
 2789W        W19637   7.149  11.702   2.400  0.1435 -0.3876  0.0618
 2790W        W19638   3.808  15.409  16.960 -0.2362 -0.0744  0.1021
 2791W        W19639   2.816   2.372   4.592 -0.0313 -0.1909  0.1351
 2792W        W19640   1.472   3.559   3.332  0.1937  0.2212 -0.0448
 2793W        W19641   7.205  13.038  17.597  0.2948  0.0470 -0.2013
 2794W        W19642   5.177  13.690  16.362 -0.1377 -0.2259  0.1640
 2795W        W19643   6.529  14.073   0.981  0.0170  0.3481 -0.1095
 2796W        W19644   3.721  10.973   5.202 -0.1358 -0.0619  0.2621
 2797W        W19645   2.582   2.823   1.150 -0.1473  0.2816 -0.0539
 2798W        W19646   9.034  12.018   2.087  0.2271 -0.2455  0.0507
 2799W        W19647  13.159   1.152   4.797 -0.2565 -0.0818 -0.0179
 2800W        W19648   1.107   7.997  16.528 -0.1929 -0.1831  0.0849
 2801W        W19649  14.236   1.939  14.631  0.2086 -0.3030  0.0186
 2802W        W19650   9.834   8.809  13.808 -0.0243  0.0620  0.1135
 2803W        W19651   0.875  11.406  16.002 -0.0796  0.0269 -0.1852
 2804W        W19652   3.380  15.440   3.221  0.1856  0.0581  0.0113
 2805W        W19653   0.627  16.708   5.633 -0.0316  0.0432  0.2503
 2806W        W19654  14.067  15.051  13.465  0.3122 -0.0203 -0.3126
 2807W        W19655   4.183   4.795  15.437  0.0518  0.0637  0.2307
 2808W        W19656  10.062   7.178  16.202  0.1013 -0.2833 -0.0291
 2809W        W19657  11.050  12.724  12.593  0.0143 -0.0314  0.4308
 2810W        W19658   5.232  17.057  12.068 -0.2193 -0.3227  0.2750
 2811W        W19659   1.904   1.342   4.138 -0.1866  0.3164 -0.2201
 2812W        W19660   4.275   3.211   4.391 -0.1691 -0.1790 -0.0225
 2813W        W19661   9.527   5.198  17.575  0.1647 -0.0822 -0.2949
 2814W        W19662   0.501  11.255   2.341  0.2587  0.1389  0.3743
 2815W        W19663   5.673   3.091  15.293  0.2114  0.0364  0.4153
 2816W        W19664  15.505  17.123  14.699  0.0698  0.4247  0.2148
 2817W        W19665  15.103   5.035   2.985  0.0123  0.1854 -0.0082
 2818W        W19666  15.110   1.814   1.214 -0.0894 -0.0337 -0.0914
 2819W        W19667  13.533  17.130   3.258  0.0706  0.3163 -0.1314
 2820W        W19668  10.496  14.624   5.226 -0.2145  0.0744 -0.0333
 2821W        W19669   1.726  10.527   2.523  0.1780  0.0614 -0.0092
 2822W        W19670  14.188   1.546   2.296  0.1257  0.2175  0.1530
 2823W        W19671  14.100  10.386   3.636  0.0950 -0.0902  0.0899
 2824W        W19672  11.138  11.435  16.679  0.0410 -0.1507  0.0478
 2825W        W19673  13.874   8.888   0.087 -0.0902 -0.1565  0.0865
 2826W        W19674  10.640   9.891  16.132  0.0697 -0.1079  0.3245
 2827W        W19675   4.132   5.821  13.639  0.1061  0.2000 -0.0499
 2828W        W19676  16.356  14.491  13.619 -0.0028  0.1454 -0.0351
 2829W        W19677  15.773  14.708  14.686 -0.0047  0.1551  0.0018
 2830W        W19678  13.463  16.836   1.869 -0.1068 -0.4892 -0.1322
 2831W        W19679   2.739   9.573  14.766 -0.3370  0.1168 -0.0512
 2832W        W19680   5.559   7.920  14.621 -0.2133  0.0769 -0.1652
 2833W        W19681   7.878   4.832  12.174 -0.0348  0.1970  0.1038
 2834W        W19682   3.811  15.873   0.995 -0.1247  0.0425  0.0661
 2835W        W19683  13.504  15.203   5.438  0.1494  0.1949 -0.0040
 2836W        W19684  13.298  12.819  17.170  0.1469  0.1304 -0.1175
 2837W        W19685  10.565  15.674   0.272 -0.0888  0.1545  0.1786
 2838W        W19686   2.162   6.049  13.578 -0.1359 -0.1750  0.2445
 2839W        W19687   1.772   2.684   5.381 -0.1268  0.1188  0.4504
 2840W        W19688   2.472  10.496  15.775 -0.1615 -0.0657 -0.4258
 2841W        W19689   5.000   5.486  16.554  0.0880  0.2898  0.2202
 2842W        W19690   5.417  10.922   2.562  0.0893  0.2010  0.0042
 2843W        W19691  11.365   0.594  13.273 -0.0459  0.3586  0.2263
 2844W        W19692  10.852   2.868  11.910 -0.1146  0.0499 -0.3394
 2845W        W19693   9.687  10.225   2.694 -0.1082  0.0272 -0.2351
 2846W        W19694   9.127   9.111  14.184 -0.0634 -0.0609  0.1270
 2847W        W19695   1.696  12.371   0.422 -0.0486 -0.0366 -0.2512
 2848W        W19696  13.007   7.337   3.498 -0.1953 -0.1087  0.0015
 2849W        W19697   2.871   7.527  15.962  0.0236 -0.0187 -0.0872
 2850W        W19698   4.718   4.166   4.459 -0.0449 -0.0717  0.1244
 2851W        W19699   9.062  12.116   2.604 -0.1448  0.0196 -0.0902
 2852W        W19700  16.820   5.068  13.701 -0.0330  0.0192  0.4292
 2853W        W19701  13.121   4.032  15.426  0.0836 -0.0730 -0.2822
 2854W        W19702   7.106   9.127  17.679 -0.1093  0.3447 -0.0830
 2855W        W19703  12.649   5.301   2.631  0.1556  0.2072 -0.1634
 2856W        W19704   9.275   9.498  16.159 -0.0541 -0.1460  0.0852
 2857W        W19705   6.450  16.527  12.121  0.2054  0.0974 -0.0403
 2858W        W19706   6.736   3.839  16.002  0.0498 -0.1400  0.3055
 2859W        W19707  11.432  11.043  13.105 -0.2575 -0.1322 -0.1215
 2860W        W19708  15.988  12.985   4.407  0.2157 -0.0411  0.0393
 2861W        W19709   5.808   3.298   2.731  0.2033 -0.0118 -0.2399
 2862W        W19710   9.240   3.738  17.153  0.2032 -0.1732 -0.0655
 2863W        W19711  11.361   6.892   1.391  0.2938 -0.0310 -0.4295
 2864W        W19712   1.401  13.637  12.509 -0.0491  0.1892  0.1042
 2865W        W19713   4.667  16.483  12.825  0.0302 -0.1385  0.0045
 2866W        W19714  12.829  14.938   1.680  0.1718  0.0930 -0.1376
 2867W        W19715  16.369  13.277   5.984 -0.0892 -0.3734 -0.1410
 2868W        W19716   4.024  10.700   2.345 -0.1306  0.0989 -0.0153
 2869W        W19717   6.983  11.519  17.146  0.0193 -0.0196  0.0662
 2870W        W19718  10.137   1.301  12.617  0.1517  0.1639  0.0869
 2871W        W19719  10.081   0.728   1.615 -0.1311  0.0567  0.0868
 2872W        W19720  15.267  13.335  16.853 -0.0637 -0.2373 -0.2283
 2873W        W19721   5.348  12.006   3.289  0.2132  0.0268 -0.1728
 2874W        W19722  10.614   3.340  15.549 -0.0505 -0.0303 -0.0436
 2875W        W19723   8.241  14.606   1.395  0.0586  0.2601 -0.2928
 2876W        W19724   1.540  11.461   0.171 -0.0568 -0.0625 -0.2689
 2877W        W19725   2.248   8.095  14.350 -0.0501 -0.1772 -0.1146
 2878W        W19726  14.525   1.138   4.573 -0.1107  0.2645 -0.1268
 2879W        W19727  16.835   8.170   2.917 -0.1015 -0.1819  0.0193
 2880W        W19728  10.685   4.927  16.341 -0.0019  0.1384  0.0068
 2881W        W19729   7.155  13.416   2.751 -0.2239 -0.0848 -0.1218
 2882W        W19730   1.690  10.135   1.215  0.1975 -0.0455 -0.0902
 2883W        W19731   0.252   1.021   4.031  0.1855 -0.0906 -0.2190
 2884W        W19732   6.609   0.928  12.266 -0.1761 -0.0385 -0.0740
 2885W        W19733   6.963   0.520   5.169 -0.2518 -0.0524 -0.0785
 2886W        W19734  17.162  15.743  16.473  0.3085  0.1619  0.1047
 2887W        W19735   0.164  11.712  14.271  0.0513 -0.1339 -0.1031
 2888W        W19736  11.396   6.346   0.939  0.0356  0.0805 -0.1115
 2889W        W19737   1.423  11.529   4.978  0.0374 -0.4029  0.1540
 2890W        W19738   7.647  13.824   4.766  0.3082 -0.3174 -0.0361
 2891W        W19739   3.365   0.240   0.289  0.4074  0.2078 -0.2298
 2892W        W19740   9.230  15.995  12.928  0.0459 -0.0068  0.2735
 2893W        W19741   0.107   7.976   2.202  0.1202 -0.2173 -0.0016
 2894W        W19742   8.702  10.875  14.632 -0.0179 -0.2642  0.0718
 2895W        W19743  14.834  13.409   5.220  0.0569  0.0128 -0.0869
 2896W        W19744   1.794  17.135   2.996 -0.1881 -0.0223  0.1042
 2897W        W19745  10.101  15.925  16.333  0.2137 -0.3060  0.0043
 2898W        W19746  10.681   9.271   1.905 -0.3183 -0.2819 -0.5290
 2899W        W19747   7.060  16.651   0.792 -0.1074  0.2239  0.3847
 2900W        W19748   7.318  16.080  16.288  0.0240 -0.0536 -0.3557
 2901W        W19749   4.229  13.110   3.496 -0.3114 -0.1685  0.1880
 2902W        W19750   7.442   5.232   3.360 -0.1361 -0.5194  0.4361
 2903W        W19751  12.839   7.021   5.493  0.0786  0.0365 -0.0922
 2904W        W19752   0.801   9.075  16.368  0.1100 -0.0521 -0.2478
 2905W        W19753  13.178  14.374  14.602  0.1044  0.1349  0.2385
 2906W        W19754  16.772  14.642   2.860  0.1067  0.1037 -0.0976
 2907W        W19755   7.292  15.190   2.916  0.1432 -0.0337 -0.0727
 2908W        W19756  14.794   5.299   4.161  0.0803  0.1487  0.0116
 2909W        W19757   9.430  10.612   3.210  0.3777  0.0290  0.0684
 2910W        W19758  10.914  10.020  13.139  0.0884 -0.2087 -0.0548
 2911W        W19759  10.745   0.553  14.901  0.0013  0.2432 -0.0631
 2912W        W19760  13.865   0.009  12.584 -0.1909 -0.1570 -0.0544
 2913W        W19761   5.028  10.460   0.891 -0.0122  0.1400 -0.1882
 2914W        W19762  12.624   8.468   1.212 -0.0369  0.1623  0.1014
 2915W        W19763   0.088  15.139   6.082 -0.3494 -0.1649 -0.0034
 2916W        W19764  17.094   4.583   0.813 -0.0665  0.0849 -0.0108
 2917W        W19765   2.197  11.989   1.621  0.2141  0.0574 -0.1777
 2918W        W19766  10.673  14.663  15.433  0.0696 -0.0402  0.0641
 2919W        W19767   8.030   1.124   2.506 -0.0537  0.0144  0.0729
 2920W        W19768  14.597   6.523  13.901  0.0914 -0.2240  0.1221
 2921W        W19769   0.379  16.596  13.953  0.1292  0.1271 -0.2274
 2922W        W19770  16.744   4.928   1.865  0.1177  0.1970 -0.2616
 2923W        W19771   9.835   7.816   2.021  0.0497  0.1229  0.0780
 2924W        W19772  16.440   7.606   6.376 -0.0178 -0.3835  0.0683
 2925W        W19773   6.388  15.360   0.879  0.1271 -0.2431 -0.0386
 2926W        W19774   6.217   7.521   2.265 -0.1224 -0.2399 -0.0713
 2927W        W19775   4.319  15.600   4.478 -0.1549  0.2457 -0.0339
 2928W        W19776   7.238  11.543   6.060 -0.2455  0.1246 -0.2119
 2929W        W19777   7.159  15.804   3.407 -0.0520  0.2352 -0.1571
 2930W        W19778  14.736   1.823  12.961 -0.0408 -0.0399 -0.1962
 2931W        W19779  11.882  13.759  11.771 -0.0321  0.0567  0.0206
 2932W        W19780   5.593   9.981  12.538 -0.1624  0.1734 -0.0712
 2933W        W19781   1.648  10.396  17.405  0.2471  0.0219  0.1596
 2934W        W19782  12.842   0.455  15.781 -0.0984  0.0640 -0.1356
 2935W        W19783  14.340  12.361   1.337  0.2366  0.0590  0.0457
 2936W        W19784  13.383   5.443   0.223  0.1132  0.2814  0.1081
 2937W        W19785  11.033   0.188   4.902 -0.1455  0.1299  0.0115
 2938W        W19786   8.339  15.975  13.941  0.0978  0.2388 -0.0118
 2939W        W19787  11.397   2.825  12.774 -0.0072 -0.0944 -0.0298
 2940W        W19788  17.115  16.187   5.712 -0.2768  0.1401  0.5700
 2941W        W19789  16.395  14.602  11.954  0.2651  0.2262  0.0219
 2942W        W19790   7.828  13.688  17.457 -0.0085 -0.0195  0.0101
 2943W        W19791   8.463   9.246  10.977 -0.0594 -0.0369  0.0338
 2944W        W19792   2.730   8.546   2.867  0.1246  0.2356 -0.2031
 2945W        W19793   6.864   6.257   5.593  0.0709 -0.1722  0.5180
 2946W        W19794   7.081  12.472   4.069  0.0619  0.3521  0.2068
 2947W        W19795   7.639  12.046  16.452 -0.3224 -0.2485 -0.2013
 2948W        W19796   9.297   3.432   3.327  0.1660 -0.0068  0.1163
 2949W        W19797   9.987  15.260   2.695 -0.0933 -0.0198  0.2760
 2950W        W19798   1.194   0.264   5.981  0.1812  0.0344 -0.2286
 2951W        W19799   5.425  14.519   3.240 -0.0685 -0.2091 -0.0770
 2952W        W19800   9.749   1.315   3.203 -0.1318 -0.0041 -0.2617
 2953W        W19801   4.901   9.845   2.065 -0.1106  0.1010 -0.2251
 2954W        W19802   2.507   8.314   3.403 -0.0940  0.0484  0.1752
 2955W        W19803   3.538   6.189  15.700 -0.0436  0.0192  0.2297
 2956W        W19804  14.524   9.012  13.727 -0.0574  0.2027  0.1104
 2957W        W19805  15.782  13.362   5.321  0.0350 -0.0857 -0.1591
 2958W        W19806   0.232   2.911   5.577 -0.4103 -0.1480 -0.2077
 2959W        W19807   8.325   5.648   5.653 -0.3099 -0.1447  0.0663
 2960W        W19808   6.035   1.312   3.358 -0.0096  0.0225 -0.0084
 2961W        W19809   7.512   1.461   4.087  0.2752  0.1481 -0.0114
 2962W        W19810  14.963   2.308  14.910  0.0674  0.2899 -0.0539
 2963W        W19811  14.011   7.588   2.735 -0.1623 -0.3100 -0.2692
 2964W        W19812  10.501   7.511   0.622 -0.1864  0.0855  0.0104
 2965W        W19813   6.994  10.041  14.397 -0.0776 -0.0324 -0.1122
 2966W        W19814   2.885   4.367  14.867  0.0548  0.0857  0.2185
 2967W        W19815   3.518  14.404   1.330 -0.4102  0.0112 -0.1126
 2968W        W19816   1.924   8.513   1.941 -0.0807  0.0283 -0.0508
 2969W        W19817  15.634  16.930   5.773 -0.1666  0.1433 -0.0017
 2970W        W19818   4.619  16.498   4.816  0.0095 -0.0664 -0.1193
 2971W        W19819   3.365  17.131   4.227 -0.0635 -0.1476  0.1415
 2972W        W19820  15.946   2.663  15.664  0.1349 -0.1386 -0.1242
 2973W        W19821   7.491   6.612  12.351 -0.0367  0.2703  0.0106
 2974W        W19822   7.631  13.511   3.411 -0.0886  0.0660  0.0928
 2975W        W19823  15.533   9.517  15.136  0.2205 -0.1723 -0.0421
 2976W        W19824   6.017  15.922  13.322  0.0433 -0.0637  0.1676
 2977W        W19825   1.964  16.551   5.498 -0.2892  0.1382 -0.2644
 2978W        W19826   6.159   0.322  14.984 -0.1762  0.0161  0.2839
 2979W        W19827  14.032  11.624   5.419 -0.0123 -0.2139 -0.1855
 2980W        W19828  10.632   7.833  16.083  0.1288 -0.2949 -0.0570
 2981W        W19829  17.108  10.824  17.042  0.4109 -0.3199 -0.1437
 2982W        W19830   9.402  16.173   4.629  0.1426  0.1916 -0.1187
 2983W        W19831   0.345   2.446  14.671 -0.3054 -0.1675 -0.0579
 2984W        W19832   1.143   8.395   1.532 -0.2184  0.3134 -0.1022
 2985W        W19833  17.155   3.670   0.827 -0.0941 -0.0058  0.1482
 2986W        W19834  11.436   2.738  12.061 -0.2896  0.0223  0.0700
 2987W        W19835   6.956  10.019  15.283  0.2336  0.0082  0.1067
 2988W        W19836  15.141  14.497  15.668 -0.0288 -0.0505  0.2194
 2989W        W19837   7.823  14.812  16.660 -0.1254  0.2530  0.4148
 2990W        W19838   3.236  12.571   5.949 -0.1320 -0.0742  0.2598
 2991W        W19839   9.210   3.139   1.413  0.1884 -0.2551 -0.0865
 2992W        W19840   4.915   9.705  16.757  0.3266  0.1176 -0.0989
 2993W        W19841  10.257   4.397   0.425 -0.0103  0.0421  0.1207
 2994W        W19842  11.236   7.919   0.343  0.1116  0.1611 -0.0708
 2995W        W19843   6.298  16.027  12.082 -0.0356  0.2248 -0.1110
 2996W        W19844   4.426  14.641   3.828  0.1727 -0.1715 -0.1055
 2997W        W19845  14.916  13.233  14.159  0.0658 -0.1636 -0.1167
 2998W        W19846   1.796  17.082   2.020 -0.0762  0.1924 -0.2670
 2999W        W19847   5.549   2.443  16.413 -0.1792  0.0280  0.2324
 3000W        W19848   4.510   4.745   1.208 -0.2070 -0.1708  0.0475
 3001W        W19849   9.204   3.084   0.583  0.2239  0.0269  0.0150
 3002W        W19850   0.606   4.247   5.781  0.2008 -0.2452 -0.0477
 3003W        W19851   0.621   5.501   2.783 -0.3659  0.0936 -0.2995
 3004W        W19852  13.365  15.270  12.460  0.3287  0.1372 -0.1737
 3005W        W19853   3.237  11.299   0.162 -0.1642 -0.0141 -0.0263
 3006W        W19854   3.366   6.416   2.947  0.0652  0.0560 -0.1435
 3007W        W19855   9.732  15.556  15.947 -0.1580  0.4653  0.1035
 3008W        W19856   2.443  12.923  15.268 -0.0632 -0.3375 -0.2616
 3009W        W19857  12.052   3.079   1.821  0.0426  0.4027  0.0617
 3010W        W19858  10.817  15.422   1.939  0.1077  0.2621  0.1290
 3011W        W19859   3.077   1.844  15.079 -0.2494 -0.1805  0.0738
 3012W        W19860  15.041  17.089  17.368 -0.0747  0.0019 -0.1308
 3013W        W19861   2.818   7.116  13.071  0.4261  0.0194  0.0956
 3014W        W19862   2.824  16.008  13.902  0.1690 -0.1071  0.0316
 3015W        W19863  11.623  11.198   3.607 -0.0666  0.0734  0.1531
 3016W        W19864  10.597  11.958  16.560 -0.0451 -0.0150 -0.0163
 3017W        W19865   3.858  10.668  16.576  0.0292  0.0237 -0.0671
 3018W        W19866   4.023  15.752  15.850 -0.2396 -0.2603 -0.0450
 3019W        W19867   5.404   8.935  17.298 -0.4523  0.1431  0.1825
 3020W        W19868   4.677  14.238   3.651  0.2623 -0.2009 -0.2346
 3021W        W19869  16.857   3.726  14.334  0.1558 -0.1033  0.0538
 3022W        W19870  16.400   0.381   1.782 -0.2669 -0.1181 -0.2009
 3023W        W19871   9.903   0.074  16.384 -0.1156  0.0274 -0.2477
 3024W        W19872  16.547   6.073  17.691  0.1896 -0.2566 -0.1793
 3025W        W19873   0.927  13.618  14.749 -0.0924  0.3509  0.1660
 3026W        W19874   3.620  14.446   1.804  0.2317 -0.2237 -0.0150
 3027W        W19875   6.306   4.074   0.772  0.0794  0.4646 -0.0340
 3028W        W19876   5.928   7.143  12.646  0.0563  0.4669 -0.0754
 3029W        W19877   2.786  14.665   0.708 -0.1312  0.0674 -0.1160
 3030W        W19878   4.592  16.087   2.786 -0.5369  0.1555 -0.2588
 3031W        W19879  13.685   8.498   4.509  0.0473 -0.1966 -0.0967
 3032W        W19880   6.705  11.512  13.938  0.0648  0.1239  0.0837
 3033W        W19881   5.266   7.298   3.060 -0.1005  0.3934  0.2242
 3034W        W19882  16.662  17.026   4.277  0.3256 -0.3026  0.1947
 3035W        W19883   9.620   9.284   2.954 -0.0379 -0.0269  0.0003
 3036W        W19884   3.239   2.961  14.610 -0.2472 -0.2741  0.0310
 3037W        W19885   8.935   9.445   0.741 -0.0628  0.4821 -0.3017
 3038W        W19886  15.745   5.730  13.152 -0.3538  0.1375  0.0451
 3039W        W19887  16.233   2.441   4.876  0.1542 -0.0275  0.0642
 3040W        W19888   9.503   6.447   2.229  0.2510 -0.1216 -0.0293
 3041W        W19889   4.019  13.736  12.665 -0.2727 -0.2646  0.0564
 3042W        W19890   3.451   8.320   4.520  0.2885 -0.1442 -0.3431
 3043W        W19891  15.893   9.471   3.135  0.0721  0.1949 -0.2325
 3044W        W19892   1.433   2.431   1.938 -0.1095 -0.2462  0.0390
 3045W        W19893   0.423  11.593  13.445 -0.1337  0.2128  0.1336
 3046W        W19894   5.895  15.881  17.564  0.1669 -0.0129 -0.1450
 3047W        W19895   6.423  11.278  14.506 -0.0102  0.1750 -0.0602
 3048W        W19896  16.700  10.031  15.089 -0.2347  0.0172 -0.3336
 3049W        W19897   6.318  13.733  13.527  0.0546  0.2976  0.0418
 3050W        W19898  11.947   2.583  13.292 -0.2629  0.0521  0.3272
 3051W        W19899  11.131  13.552  14.040 -0.1811 -0.1022  0.0477
 3052W        W19900   7.760  14.173   3.200  0.0528 -0.2281  0.2449
 3053W        W19901   9.875   1.718  16.605 -0.3775  0.3773 -0.1929
 3054W        W19902   8.987  16.776  11.492  0.0776 -0.1498  0.3621
 3055W        W19903   5.564   7.087  14.659 -0.0256  0.2654 -0.0364
 3056W        W19904   1.997   8.278   5.678  0.0854 -0.1435 -0.0384
 3057W        W19905  15.595   2.158   0.699 -0.1212  0.1713  0.0707
 3058W        W19906   1.357  14.716   3.482  0.0965 -0.1339  0.1400
 3059W        W19907   2.550   0.615  15.272 -0.3089 -0.1272 -0.4155
 3060W        W19908   1.755  11.797   2.510 -0.0064  0.0815  0.1596
 3061W        W19909  15.480   7.425  15.162  0.2319 -0.2824  0.1191
 3062W        W19910   6.259   5.809  13.082  0.1324 -0.2374  0.2534
 3063W        W19911  12.344   2.575  12.965 -0.1761  0.1576 -0.0861
 3064W        W19912   4.310   1.292  14.797  0.2039  0.0504 -0.0453
 3065W        W19913  15.564   8.171   5.120 -0.3853 -0.0748  0.0526
 3066W        W19914  13.398   6.176  15.620  0.0286  0.1107  0.1035
 3067W        W19915  15.412  13.312  14.312 -0.1631 -0.1384  0.1026
 3068W        W19916  11.663   7.317  15.096  0.1744  0.2231 -0.0254
 3069W        W19917  10.395  10.268   0.367  0.0305 -0.3339 -0.1820
 3070W        W19918   5.814   4.068  14.486 -0.2570  0.0864 -0.0137
 3071W        W19919   6.570  16.552   3.667  0.0880 -0.2627 -0.1037
 3072W        W19920   8.798  15.234  13.506 -0.1475 -0.3925  0.0043
 3073W        W19921  14.514   0.595  12.924  0.0054  0.0936  0.3104
 3074W        W19922  16.866  16.211   4.313  0.0041  0.1415 -0.2227
 3075W        W19923  15.192  13.660  16.107 -0.3204  0.1933 -0.1001
 3076W        W19924   6.183   1.986  16.353 -0.2331  0.0267 -0.1810
 3077W        W19925   2.203  15.328   1.242  0.0576  0.1756  0.1256
 3078W        W19926   4.706   9.130  16.854 -0.1227 -0.0459 -0.0004
 3079W        W19927   5.978  14.819   2.081 -0.1429 -0.2994  0.2716
 3080W        W19928  14.483   1.943  16.819 -0.1927 -0.0438  0.2652
 3081W        W19929   4.497   5.044   1.883  0.1287 -0.1401  0.0639
 3082W        W19930  11.515   8.768  17.645 -0.0816  0.1125  0.0344
 3083W        W19931  13.575  14.661  17.361 -0.2165  0.0243  0.1478
 3084W        W19932   0.080  10.321  16.027  0.1725  0.1052  0.1603
 3085W        W19933  15.422   9.190   4.629 -0.0687 -0.2478  0.1037
 3086W        W19934  13.949  14.029  14.150 -0.2347  0.3039 -0.3733
 3087W        W19935   8.781   9.688   2.448 -0.0739 -0.1826 -0.0744
 3088W        W19936  11.429   9.045   3.441 -0.3146 -0.0761 -0.1009
 3089W        W19937   9.276   7.171   5.236  0.0007 -0.1520 -0.4268
 3090W        W19938   6.968  15.596   0.763 -0.1038 -0.0513  0.0381
 3091W        W19939  14.120  14.660  12.802 -0.0060  0.1161  0.3155
 3092W        W19940  14.412   0.193   3.262  0.1538 -0.0717  0.2404
 3093W        W19941  12.225   5.527  12.100 -0.3095  0.0622 -0.1998
 3094W        W19942  15.943  15.585  14.202  0.0055  0.0915 -0.2541
 3095W        W19943   6.759  12.914   4.942  0.1502 -0.0784  0.0955
 3096W        W19944   6.153  15.197  12.553  0.1298 -0.2749 -0.1657
 3097W        W19945   0.290   9.227   2.115 -0.0217 -0.4754 -0.1683
 3098W        W19946  10.966   7.804  15.039  0.1684  0.2574 -0.0384
 3099W        W19947  11.294  15.763  15.171 -0.1177 -0.0405 -0.1270
 3100W        W19948   7.185   0.312  17.035  0.0568  0.1599  0.0599
 3101W        W19949   6.752   4.823   1.266  0.0225 -0.1895 -0.0407
 3102W        W19950   5.514  16.857   5.126  0.4308  0.1316  0.0079
 3103W        W19951   8.081   9.738   1.920 -0.2910  0.1396 -0.4879
 3104W        W19952   4.573   8.824  15.068 -0.0410 -0.1800 -0.4115
 3105W        W19953   1.034   3.558  16.510 -0.1860 -0.3562 -0.1377
 3106W        W19954  10.003  13.630   1.357 -0.3605 -0.1411 -0.2307
 3107W        W19955   1.114   8.667   0.211 -0.1697  0.2942 -0.1629
 3108W        W19956  11.857  16.671  12.140  0.2072  0.2791 -0.0642
 3109W        W19957  16.949   9.292  14.309 -0.2410  0.0549  0.0572
 3110W        W19958   3.393   1.923  11.539  0.3028 -0.0015 -0.0346
 3111W        W19959   3.068   0.503  15.077  0.1757 -0.0634  0.2588
 3112W        W19960   8.919  17.124  12.313  0.2124 -0.1409  0.0891
 3113W        W19961  14.175  13.238  15.615 -0.0545 -0.3000  0.0374
 3114W        W19962   6.435   6.961  15.749  0.0262  0.0454  0.1102
 3115W        W19963  16.869   3.857   3.904  0.0637 -0.1026  0.2515
 3116W        W19964   6.967   7.228  16.655  0.1323 -0.2630  0.1906
 3117W        W19965   6.032  10.971  17.639 -0.1721  0.0902 -0.1229
 3118W        W19966   2.017   5.513   2.487 -0.1274  0.3385  0.0173
 3119W        W19967   8.560   5.337   3.069 -0.2152  0.0053 -0.0566
 3120W        W19968  10.492   8.397   1.640  0.1377  0.1100  0.0218
 3121W        W19969  10.503  11.929   5.220 -0.0205 -0.0328  0.3508
 3122W        W19970  15.352   1.601   2.209  0.2327  0.0075  0.0332
 3123W        W19971   4.866  11.458   3.612  0.1009 -0.1335  0.3826
 3124W        W19972  11.669  10.491   1.681 -0.3885 -0.1879 -0.3348
 3125W        W19973  13.573   9.951  12.704  0.1617  0.3336  0.1971
 3126W        W19974   5.229   2.575  17.084 -0.1016 -0.1418 -0.0922
 3127W        W19975   5.114   3.682  14.263  0.0768  0.0154 -0.0593
 3128W        W19976  16.440  11.625   2.553  0.3455 -0.2677 -0.0162
 3129W        W19977   2.448   9.422   3.159 -0.1664  0.1356  0.1453
 3130W        W19978  10.644  13.646   0.414  0.0674  0.1569 -0.0579
 3131W        W19979   2.998   3.058  15.098  0.0607  0.2756 -0.0285
 3132W        W19980   2.582  15.395   2.604  0.0218 -0.1054  0.2367
 3133W        W19981  16.870  12.895   3.027 -0.5161  0.1361  0.0522
 3134W        W19982   7.560   3.432   2.419 -0.0242  0.0576 -0.3806
 3135W        W19983  10.658  12.384   3.836 -0.2442  0.1336 -0.2087
 3136W        W19984   4.732   1.925  15.847  0.0538 -0.3392 -0.1313
 3137W        W19985   5.152   7.780  12.644  0.1492 -0.2248  0.0626
 3138W        W19986   6.379  12.586   5.414 -0.1525  0.1365  0.2759
 3139W        W19987   2.902  11.035   2.714  0.1593  0.0062 -0.1232
 3140W        W19988   2.751  13.321  15.083 -0.1221 -0.1946  0.3671
 3141W        W19989  14.840   8.401  14.421 -0.2440 -0.0145 -0.0117
 3142W        W19990   3.480  13.604  14.523 -0.1762  0.0905 -0.0195
 3143W        W19991  16.343   5.333  16.485 -0.2477 -0.2373  0.1557
 3144W        W19992   2.880   3.831   3.972  0.0789 -0.1573  0.1959
 3145W        W19993  10.992  12.726  13.559  0.0853 -0.0341  0.1588
 3146W        W19994  10.123  11.794   0.478 -0.1735  0.1757 -0.1175
 3147W        W19995   3.437   5.560   0.612 -0.1466 -0.0528 -0.1249
 3148W        W19996  16.919   9.642  15.428  0.0328  0.1509  0.0951
 3149W        W19997   7.921  14.125   2.209  0.0426  0.0782 -0.0515
 3150W        W19998   9.323  12.657  14.416  0.0919  0.0862  0.3109
 3151W        W19999   9.496  14.447  16.688 -0.0404  0.1457  0.1792
 3152W        W20000   2.228  14.894   3.145  0.1646  0.0438  0.1587
 3153W        W20001  12.711  15.577   2.494  0.0239  0.2278 -0.1307
 3154W        W20002  10.564   4.306   3.137  0.0176  0.2407 -0.0165
 3155W        W20003   4.984   3.232  15.146 -0.0773 -0.0777  0.0472
 3156W        W20004   2.262   0.826  14.352  0.0861 -0.1839  0.1326
 3157W        W20005  10.215   6.496   4.576  0.2601  0.1061  0.0919
 3158W        W20006   5.181  15.550   0.736  0.0073  0.0027  0.0826
 3159W        W20007   0.959   8.727  14.368  0.1735  0.0607 -0.0944
 3160W        W20008  14.942   5.554   3.120  0.0886  0.0215 -0.1322
 3161W        W20009  15.985   6.313  13.332 -0.0565 -0.0622  0.0523
 3162W        W20010  13.866   5.061  16.770  0.1245 -0.2011  0.0528
 3163W        W20011  14.861   3.205  13.620  0.1829 -0.0071  0.2252
 3164W        W20012  14.871   2.366  16.609 -0.1921 -0.0147 -0.1693
 3165W        W20013  10.782   8.096  16.641  0.0905  0.1563 -0.1141
 3166W        W20014   8.322  12.016  14.032 -0.3811  0.0061  0.1549
 3167W        W20015  14.800  16.885  12.513  0.1650 -0.1268  0.0351
 3168W        W20016  16.425  10.385  16.377  0.1689  0.0538  0.0734
 3169W        W20017  13.604   9.700   2.007 -0.1808  0.2093 -0.1408
 3170W        W20018  10.426  14.111   4.899  0.0498  0.2896 -0.0351
 3171W        W20019   6.616   7.238   2.469 -0.1628  0.2205 -0.0850
 3172W        W20020  14.803  12.458   4.906 -0.2162 -0.3838 -0.2164
 3173W        W20021  11.734   3.322  17.520 -0.1079 -0.2151 -0.1070
 3174W        W20022   7.324   1.458  15.387  0.1515 -0.1677 -0.0179
 3175W        W20023   1.728  15.360  14.219  0.2802  0.1402 -0.0896
 3176W        W20024  13.152   3.500   0.313 -0.2961 -0.3319 -0.3316
 3177W        W20025   9.906  13.726  13.583  0.2712  0.1688  0.0749
 3178W        W20026   0.791   5.846   4.731  0.2915  0.1192  0.2684
 3179W        W20027   7.502   3.212   2.867  0.2080  0.1344  0.1097
 3180W        W20028  12.050   4.918  16.238  0.0007  0.0016  0.1230
 3181W        W20029  10.274   5.288  16.335  0.2314  0.1751  0.1375
 3182W        W20030  14.153  14.543   4.938  0.4324  0.0356  0.0876
 3183W        W20031   5.262  11.210   1.287 -0.2946 -0.0738  0.1322
 3184W        W20032  12.002   0.822   5.388 -0.2833 -0.0670  0.0353
 3185W        W20033   0.646   6.475  15.946 -0.0055  0.0726  0.3232
 3186W        W20034  12.510   2.166  16.156  0.2271  0.0900  0.2121
 3187W        W20035  16.371   1.936  17.396  0.0705 -0.0711  0.0753
 3188W        W20036  16.997  12.310  14.863  0.1206  0.0046  0.0131
 3189W        W20037  13.902  16.665   1.006  0.1801 -0.0828  0.0947
 3190W        W20038   0.733   3.646   2.813  0.0291 -0.1457 -0.0736
 3191W        W20039   8.962   0.424   3.881  0.0254 -0.0771 -0.0336
 3192W        W20040   2.046  13.882   4.268  0.1797  0.1647 -0.2292
 3193W        W20041   9.236   2.335   1.627 -0.0884  0.1096 -0.0199
 3194W        W20042  12.302   9.230  14.575  0.2273 -0.0058 -0.1043
 3195W        W20043  13.569  11.317   1.245  0.0049  0.2240 -0.1897
 3196W        W20044   2.345  10.009  14.863 -0.0448  0.1053 -0.0824
 3197W        W20045   7.360  10.664   2.470  0.1609  0.1256  0.0879
 3198W        W20046   3.963  15.501   6.340  0.4029  0.3515 -0.0649
 3199W        W20047  16.882  16.009   0.149 -0.2591  0.0896 -0.1261
 3200W        W20048  13.782  16.620  15.008 -0.4682  0.0124 -0.4458
 3201W        W20049  13.091   8.071   1.359  0.0192 -0.0287  0.1286
 3202W        W20050   7.516   4.287  15.533 -0.1946  0.0120  0.0068
 3203W        W20051   1.053  11.155   5.447  0.0485 -0.1912  0.1737
 3204W        W20052  10.481   1.691  13.339  0.1268 -0.2228 -0.4599
 3205W        W20053  11.901  10.560  13.757 -0.0049  0.1095  0.1208
 3206W        W20054   7.412   2.803   3.838 -0.0782  0.2333  0.0911
 3207W        W20055   3.357  16.394   5.150  0.0009  0.3759 -0.1866
 3208W        W20056   6.939   5.531  12.706  0.2251  0.1239 -0.1308
 3209W        W20057  14.658   1.807   3.458  0.1484 -0.2233 -0.0500
 3210W        W20058   2.394   9.471  13.355 -0.1004  0.2332 -0.0662
 3211W        W20059   3.729   3.298   1.928 -0.1860 -0.0895 -0.1848
 3212W        W20060  15.878   6.041   4.846  0.3844  0.3389 -0.1400
 3213W        W20061  11.771   0.028  12.893 -0.0972 -0.0207  0.1032
 3214W        W20062   2.732   1.504   3.145 -0.0011 -0.0556 -0.0272
 3215W        W20063   4.659   8.491  12.980  0.3715 -0.1530  0.2192
 3216W        W20064   9.599   7.602   4.304  0.0638 -0.0988  0.1751
 3217W        W20065  12.658  10.663  14.439  0.1884  0.3536  0.1339
 3218W        W20066   6.446   4.046   1.254 -0.2270 -0.1181  0.0355
 3219W        W20067   2.422  16.709  16.377 -0.1024 -0.2567 -0.0814
 3220W        W20068   7.645  16.642  15.958 -0.2614 -0.0335 -0.1130
 3221W        W20069  15.707   9.998   1.391  0.0889  0.2197 -0.0318
 3222W        W20070   9.064  15.839   0.674  0.2075 -0.0281  0.0173
 3223W        W20071   5.425  10.447  12.319 -0.1020  0.1226 -0.4302
 3224W        W20072   0.333   9.968   3.000  0.0185  0.0585  0.0256
 3225W        W20073  15.066   7.059  17.738  0.0324  0.2169 -0.1719
 3226W        W20074   5.401   6.400  17.061 -0.1657 -0.1507  0.2189
 3227W        W20075  14.583   7.470  14.548 -0.0397 -0.1713  0.1343
 3228W        W20076  11.816   0.330   3.562 -0.2140 -0.1739  0.1676
 3229W        W20077  13.753  13.975  12.313 -0.1103  0.0984 -0.0226
 3230W        W20078   6.898   1.883   3.670  0.3008 -0.0617  0.3001
 3231W        W20079   9.428   4.783   0.743 -0.0521  0.1697 -0.0242
 3232W        W20080   4.384   7.786  12.006  0.5014 -0.2310  0.0473
 3233W        W20081   3.768   1.125   1.799 -0.1456 -0.3471 -0.0817
 3234W        W20082   4.848   3.990   6.568 -0.1476  0.1061 -0.1319
 3235W        W20083   2.489   6.899  15.111  0.0275  0.2597 -0.0038
 3236W        W20084   3.333   2.748   2.683  0.2288 -0.0890  0.1590
 3237W        W20085   1.412   0.813   3.235  0.0759 -0.1481  0.0822
 3238W        W20086  12.631   2.833   3.969 -0.1970 -0.1170  0.0129
 3239W        W20087   3.770   5.337  11.592 -0.0091  0.0514 -0.0639
 3240W        W20088  13.770   2.498  15.196  0.0209  0.1909 -0.1696
 3241W        W20089   9.906   1.772  14.730  0.2624  0.0788 -0.2337
 3242W        W20090  16.266  15.581   4.637  0.0014  0.2355 -0.1096
 3243W        W20091  12.058   2.277   4.340  0.0635 -0.0938 -0.1716
 3244W        W20092   8.756  13.377   2.868  0.1953 -0.2618 -0.0500
 3245W        W20093   4.963   8.178  17.219 -0.3875 -0.1089  0.0544
 3246W        W20094   6.033   2.010   1.735  0.2181  0.0532 -0.0272
 3247W        W20095  13.915   8.934  15.125 -0.2200 -0.1613 -0.2503
 3248W        W20096   9.870  15.938  17.707  0.0043  0.2062  0.0173
 3249W        W20097   4.909   6.079   5.639  0.1297 -0.0296  0.0772
 3250W        W20098   0.109   3.872   2.076  0.0712 -0.4217 -0.0989
 3251W        W20099  10.971   3.189  17.225 -0.0358  0.4561 -0.1468
 3252W        W20100   5.669   3.475   2.247  0.1778  0.1233 -0.1862
 3253W        W20101  14.932   6.724   3.331  0.0304 -0.0148 -0.1222
 3254W        W20102   9.336   6.754   3.230  0.3108  0.0089  0.1786
 3255W        W20103   6.742   8.534   4.344  0.1809 -0.0554 -0.2005
 3256W        W20104   7.815   0.108   3.344 -0.1406 -0.1709  0.2631
 3257W        W20105  10.187   1.781   0.876  0.3800 -0.4492 -0.0095
 3258W        W20106   5.732   5.480  13.219  0.0017 -0.0935  0.2612
 3259W        W20107   4.605   5.174   0.871 -0.1184 -0.0423 -0.0616
 3260W        W20108   6.524   4.933   5.202  0.0420 -0.2337 -0.3349
 3261W        W20109  10.870   2.980  13.003 -0.1015 -0.2127 -0.2120
 3262W        W20110   5.766   2.125  15.615 -0.1200 -0.2374  0.1938
 3263W        W20111  10.270   1.327   3.286 -0.1276  0.3330  0.0085
 3264W        W20112  11.387   6.194  14.221  0.1098 -0.3102 -0.2031
 3265W        W20113   6.024  16.132   5.829  0.3479  0.0406  0.0274
 3266W        W20114  16.037   0.621  16.158 -0.1246 -0.3101  0.0330
 3267W        W20115   1.194  15.339  12.753  0.1796 -0.0051 -0.3664
 3268W        W20116   8.761   9.427  17.373  0.0309 -0.0900 -0.0181
 3269W        W20117   0.236   4.789   2.860  0.0317 -0.1786 -0.2236
 3270W        W20118   7.341   5.778  17.263  0.0884  0.0860  0.1659
 3271W        W20119  12.771   4.025   0.990 -0.1683 -0.2118 -0.1848
 3272W        W20120  11.104  14.914  15.073 -0.1755  0.1890 -0.1097
 3273W        W20121   1.765  17.159  13.482 -0.1066 -0.0343  0.2081
 3274W        W20122   8.771  12.549  12.948 -0.1343  0.0445  0.1941
 3275W        W20123   7.949   8.455   0.429  0.1562  0.4908  0.2497
 3276W        W20124  15.644  10.582   4.781 -0.0335 -0.1433  0.2910
 3277W        W20125  11.818   6.457  14.011  0.0009  0.0563  0.2680
 3278W        W20126   8.629   4.426   3.535 -0.3520  0.2025  0.1216
 3279W        W20127   8.649  15.146   0.640 -0.1033  0.0396 -0.0077
 3280W        W20128   4.137   3.895  14.131 -0.0922  0.0946 -0.1481
 3281W        W20129   9.553   0.580   3.576 -0.4616 -0.2205 -0.5033
 3282W        W20130   3.737   6.266   2.623 -0.0215  0.3465  0.2257
 3283W        W20131   1.431  13.412  17.120 -0.1337 -0.1116 -0.1620
 3284W        W20132   1.774   6.596  13.124  0.1703  0.0863  0.0630
 3285W        W20133   2.841   9.991   2.535  0.1014 -0.0076  0.0876
 3286W        W20134  14.328   8.361  14.551  0.3480 -0.0163 -0.1254
 3287W        W20135   3.018  12.319  16.917  0.0118  0.0788  0.1460
 3288W        W20136  14.893   0.488   1.763 -0.0179 -0.1933  0.0202
 3289W        W20137  10.232   2.246   1.429  0.0742  0.1291  0.1733
 3290W        W20138   4.766  12.344  17.745 -0.1813  0.0786 -0.3717
 3291W        W20139   4.654   0.284   3.819 -0.0236 -0.0051  0.1168
 3292W        W20140  13.471   2.822  11.992 -0.0380 -0.2034  0.0029
 3293W        W20141  13.336   8.239   0.799  0.1040  0.0571 -0.0135
 3294W        W20142   5.416   0.234   2.967  0.0626  0.1306  0.1017
 3295W        W20143  10.578   5.586   0.004 -0.0054  0.4188 -0.0849
 3296W        W20144  16.035   4.141  14.795  0.1653  0.1048  0.1196
 3297W        W20145  11.879   1.756   5.519  0.0559  0.1418 -0.1319
 3298W        W20146   4.943  15.614  12.637  0.2003  0.1020 -0.2749
 3299W        W20147  10.458  13.191  17.757 -0.2977  0.1832  0.0205
 3300W        W20148   6.110   9.951   4.635  0.0944  0.0560  0.0606
 3301W        W20149  11.880   5.329  15.614 -0.0149 -0.3268 -0.0538
 3302W        W20150  13.816  10.422  15.575  0.0289  0.1568 -0.0548
 3303W        W20151  16.071   6.456   4.172  0.1774 -0.0068 -0.0371
 3304W        W20152  14.005  16.060   4.714 -0.2050  0.3758  0.0534
 3305W        W20153  15.855   6.055   3.962  0.0808  0.0142  0.1520
 3306W        W20154  13.351   2.129  15.329 -0.3428  0.0261  0.1632
 3307W        W20155   7.229  14.608   5.233 -0.0753  0.4998 -0.2554
 3308W        W20156   8.656   4.319   1.979  0.2909  0.0665  0.0437
 3309W        W20157  14.014   7.116   1.680 -0.1458 -0.4600 -0.2816
 3310W        W20158  10.252   2.865   2.288  0.0393  0.2497  0.1858
 3311W        W20159  14.205   4.471  12.541  0.0634 -0.0942  0.0165
 3312W        W20160   6.569   1.905   4.891  0.3899  0.1928 -0.1376
 3313W        W20161   1.566   9.367   4.092 -0.0981 -0.0266  0.1301
 3314W        W20162   1.038  12.003  15.973  0.0508 -0.1417  0.0451
 3315W        W20163  16.082   7.251   3.032  0.3745 -0.0074  0.0575
 3316W        W20164   0.946  12.074   5.609 -0.1862  0.0983 -0.1652
 3317W        W20165  15.226   8.867   3.178 -0.1781  0.1413 -0.2548
 3318W        W20166   6.815   2.481   3.480 -0.0297 -0.0752  0.1927
 3319W        W20167  14.046  12.801  14.430 -0.1751 -0.0551 -0.2462
 3320W        W20168   5.846  12.619   1.540  0.0676 -0.0529  0.0263
 3321W        W20169  13.948  12.872   0.005  0.1923 -0.1430 -0.1063
 3322W        W20170   8.062  14.137  15.117 -0.3597  0.1410 -0.0484
 3323W        W20171   2.616  16.805  15.892  0.0884 -0.2121 -0.0618
 3324W        W20172   0.098  12.749  14.129 -0.2525 -0.0114 -0.0650
 3325W        W20173  16.522   9.702   0.952  0.0443  0.0763  0.1803
 3326W        W20174  14.470   5.831  15.928 -0.3872  0.1340  0.1826
 3327W        W20175   8.065   4.675  15.481  0.1015  0.0229 -0.3236
 3328W        W20176   1.299   0.164  14.939  0.2150  0.2782  0.2191
 3329W        W20177   0.849  11.526   1.262  0.2095 -0.0241  0.1650
 3330W        W20178   8.514  11.460   0.207  0.2464  0.1932  0.0540
 3331W        W20179  11.067   5.246  14.238  0.0329 -0.1478  0.1317
 3332W        W20180   6.865   5.622  15.855  0.1810 -0.0516  0.0200
 3333W        W20181  12.542  11.086  16.898 -0.0573 -0.0627  0.2642
 3334W        W20182   7.864   2.385  13.526 -0.0940 -0.0335  0.0287
 3335W        W20183  15.710  14.164   2.593 -0.3384  0.0255  0.4153
 3336W        W20184  16.531  13.915   2.182  0.0289 -0.2242  0.0002
 3337W        W20185  12.541  13.648  15.353  0.3371 -0.0145 -0.1885
 3338W        W20186  14.488  11.984  14.191  0.1568  0.1315 -0.0420
 3339W        W20187  14.220   0.545  14.068  0.0181 -0.0972  0.1964
 3340W        W20188  16.886  12.576   4.962 -0.1024  0.0443 -0.3346
 3341W        W20189   8.474   4.991  11.668 -0.1231  0.3394 -0.0221
 3342W        W20190   2.033  10.807   3.320  0.1039  0.3090 -0.2072
 3343W        W20191   3.577  16.622  17.435 -0.1516 -0.0958  0.4321
 3344W        W20192   5.197  16.665  14.214  0.0624  0.1978 -0.0866
 3345W        W20193  14.967   8.816  12.788  0.2523 -0.1395  0.2810
 3346W        W20194  12.648   9.544   4.374  0.2943 -0.1698  0.2712
 3347W        W20195  16.060   3.454  14.167 -0.1758  0.0171 -0.2360
 3348W        W20196   2.016   8.269   3.274 -0.0980 -0.2222  0.3421
 3349W        W20197   9.923  11.739  16.127  0.0776 -0.2680 -0.1838
 3350W        W20198   7.832  15.347   1.664  0.0335 -0.1073  0.0647
 3351W        W20199   1.548   2.188  16.581 -0.0659  0.0759 -0.1769
 3352W        W20200  15.172   0.732   3.775  0.1380  0.2724  0.0740
 3353W        W20201   1.586   8.714  15.671  0.1249  0.0152 -0.0491
 3354W        W20202  11.467  15.455  13.073  0.1845 -0.3745  0.0363
 3355W        W20203   6.224   0.030  16.700  0.1684 -0.2017  0.0127
 3356W        W20204  10.278   1.268   1.415 -0.0966 -0.0353  0.0987
 3357W        W20205   9.017   3.542   0.530 -0.0681 -0.3882 -0.0604
 3358W        W20206   6.613   9.967  16.525  0.1832 -0.1222  0.2902
 3359W        W20207  15.831   6.359   3.606  0.2300 -0.1044  0.0419
 3360W        W20208   0.532   2.838   0.355 -0.0258  0.1484 -0.1844
 3361W        W20209  14.611  14.767  16.434  0.2281 -0.4528 -0.1575
 3362W        W20210   7.884   3.068   0.483  0.1363  0.2812 -0.0738
 3363W        W20211   3.600   0.883   4.370 -0.1165 -0.0857 -0.4665
 3364W        W20212  13.888  13.654   0.455 -0.1138 -0.0639 -0.0776
 3365W        W20213  12.483   8.058   2.521 -0.0225  0.0505  0.2146
 3366W        W20214  13.256   8.129  12.546  0.0646 -0.0414 -0.1560
 3367W        W20215   8.588   4.107  17.502  0.1348  0.1318 -0.0931
 3368W        W20216   2.617   5.311   5.114 -0.3916 -0.0800  0.0694
 3369W        W20217   1.844  12.157  12.963  0.1768  0.3036  0.0948
 3370W        W20218   2.933  17.158  13.953  0.0708  0.0276 -0.1310
 3371W        W20219  12.827   3.320   2.147 -0.0561 -0.0458 -0.0950
 3372W        W20220   8.963  11.200  12.332 -0.1272  0.2167 -0.0516
 3373W        W20221  11.475  14.857   5.184  0.0290 -0.2556  0.1698
 3374W        W20222  15.558   4.316   5.711 -0.3695 -0.2128  0.0029
 3375W        W20223   0.166   2.534   0.170  0.1828  0.1876 -0.0351
 3376W        W20224  16.115   2.500  13.391  0.1321  0.2510  0.0804
 3377W        W20225   5.675   1.743  14.564 -0.2161 -0.2286  0.3046
 3378W        W20226   6.663   7.169  17.534 -0.2541 -0.0996 -0.1836
 3379W        W20227   8.268   4.385  13.451 -0.0429 -0.1132 -0.2865
 3380W        W20228  14.871   9.892  16.912  0.1447  0.1802 -0.0164
 3381W        W20229  13.137   6.070   3.161  0.3538  0.0575 -0.0414
 3382W        W20230  15.105  13.609  13.460  0.1167 -0.1382 -0.0039
 3383W        W20231   6.405   9.717   3.076 -0.2815 -0.1292 -0.0323
 3384W        W20232  13.833  10.277  10.635  0.0027 -0.0982  0.0790
 3385W        W20233   9.608  12.989  15.727  0.0540  0.0227 -0.1245
 3386W        W20234  14.224   8.425   0.849  0.1835  0.2148  0.0707
 3387W        W20235   3.566  15.577   0.682 -0.0443 -0.1771  0.0037
 3388W        W20236   0.901   1.204   2.231  0.1007  0.1383 -0.1259
 3389W        W20237   4.882   9.324   3.876 -0.0518  0.2799 -0.2122
 3390W        W20238   6.627  10.831   4.854  0.1210 -0.1267  0.3354
 3391W        W20239   4.400   7.248   1.843 -0.0820 -0.1923 -0.2648
 3392W        W20240   2.843   4.129   1.827 -0.0417  0.2426  0.1279
 3393W        W20241   7.533   7.616  14.306 -0.0538 -0.3061 -0.2944
 3394W        W20242  16.559   4.750  14.019  0.2789 -0.0943  0.1208
 3395W        W20243  16.816   4.759   3.557 -0.2980 -0.1539 -0.4649
 3396W        W20244   7.809   8.913  17.376 -0.0732 -0.0124 -0.1229
 3397W        W20245   4.554  12.233   3.873 -0.0620  0.2203  0.4543
 3398W        W20246   2.973   2.117  13.008  0.1584  0.1631 -0.1333
 3399W        W20247   2.741  16.557   6.055 -0.0307 -0.0620  0.1331
 3400W        W20248   2.695  16.301  15.193 -0.1790 -0.2160 -0.0946
 3401W        W20249  14.076   3.408   4.535  0.1174 -0.0621 -0.2068
 3402W        W20250  10.136  14.159  12.284 -0.0322  0.1058 -0.0420
 3403W        W20251  14.380   0.798   1.396 -0.0950  0.2698 -0.0139
 3404W        W20252  16.553   6.851  16.033  0.0876 -0.2006 -0.0163
 3405W        W20253   3.882   9.467  13.459 -0.0065 -0.0963 -0.0568
 3406W        W20254   8.673   7.001  14.824  0.0314  0.2196  0.0295
 3407W        W20255   8.478   0.211   0.876 -0.1259  0.2401  0.3402
 3408W        W20256   5.220  12.377   2.123 -0.0729 -0.1358  0.0153
 3409W        W20257   9.516   9.121  16.972 -0.3749  0.2467  0.0828
 3410W        W20258   1.343   8.388   0.690  0.0204 -0.0708 -0.1180
 3411W        W20259   8.982  10.445   0.512 -0.1311 -0.0286 -0.1319
 3412W        W20260   3.104   3.932  17.356 -0.2287 -0.0161 -0.0618
 3413W        W20261  14.387  10.967   0.508  0.1947 -0.0813  0.0902
 3414W        W20262   8.556  12.317   4.316 -0.0144 -0.1096 -0.2745
 3415W        W20263   0.124   4.382   4.842  0.0778  0.2434 -0.2211
 3416W        W20264   2.166  12.452   5.203  0.2333  0.1626 -0.0980
 3417W        W20265  11.780   5.507  17.019  0.1791  0.0188 -0.2030
 3418W        W20266   0.867   4.292  13.851  0.0432  0.1940 -0.0144
 3419W        W20267   8.411   0.746  15.042 -0.0419  0.0129  0.2125
 3420W        W20268   0.743   8.957   5.175 -0.1106  0.0854  0.1021
 3421W        W20269  16.791   2.596  15.678 -0.0058 -0.2231 -0.4144
 3422W        W20270   0.950  10.881  13.572  0.0851  0.4411 -0.0973
 3423W        W20271   8.430   6.022   1.478 -0.1001  0.0491  0.0291
 3424W        W20272   6.805   5.163   2.094 -0.1260  0.0264 -0.6039
 3425W        W20273   6.164   5.058   6.206 -0.2451  0.0806 -0.0731
 3426W        W20274  12.869  15.729   4.883  0.0664  0.0582  0.0741
 3427W        W20275   5.333   5.006   1.282 -0.0812  0.2012  0.3045
 3428W        W20276   2.659  16.847  17.221 -0.0539  0.2219  0.1785
 3429W        W20277   0.601   9.668  14.804 -0.0191 -0.1266  0.1566
 3430W        W20278   2.121  10.155  16.889  0.1545  0.2948 -0.1217
 3431W        W20279   2.294   9.109  13.005  0.2705 -0.2144  0.0494
 3432W        W20280   3.582  12.147   3.471  0.1267  0.1866 -0.3241
 3433W        W20281   5.495   4.004   2.806 -0.1953  0.2695 -0.1857
 3434W        W20282   2.328   7.497   2.088 -0.0881  0.1943  0.0946
 3435W        W20283   2.350   4.140  15.693  0.0328  0.1247  0.1418
 3436W        W20284   2.931  11.852  17.626 -0.1785 -0.1763  0.0337
 3437W        W20285   1.275   0.276   1.544 -0.3601 -0.2329  0.2722
 3438W        W20286   0.954   2.766  15.357 -0.1192 -0.1892 -0.0123
 3439W        W20287   8.469   4.069   3.920  0.0599 -0.2929  0.1537
 3440W        W20288  14.689   0.841   3.702  0.1606  0.2047  0.0500
 3441W        W20289   5.040  10.800  15.307  0.1776 -0.0561  0.1433
 3442W        W20290  12.480   3.726  17.483  0.0418  0.0510 -0.0192
 3443W        W20291   7.004  14.425  15.788  0.0559 -0.1123  0.0022
 3444W        W20292  16.318   3.864  13.939 -0.2588  0.0160 -0.0085
 3445W        W20293   8.889   7.891  13.807 -0.2446 -0.1720  0.0963
 3446W        W20294  10.346   3.463   2.825  0.1002 -0.0626 -0.2347
 3447W        W20295   6.678   9.514   3.471  0.0280 -0.3309 -0.0355
 3448W        W20296   9.871   3.420   0.174 -0.3644  0.2499  0.0904
 3449W        W20297  13.499  14.723  14.387 -0.3186 -0.1669 -0.1581
 3450W        W20298   7.349  12.353   5.257  0.2657 -0.1546  0.1457
 3451W        W20299   5.295   4.995   0.216 -0.0975 -0.0857  0.2953
 3452W        W20300   0.518  14.697   1.907 -0.3034 -0.2906  0.1089
 3453W        W20301  15.436  13.369   1.185  0.1716  0.0992 -0.0244
 3454W        W20302  15.774   2.768   5.792  0.0587 -0.2432  0.1927
 3455W        W20303  11.296   6.587  17.127  0.1396 -0.2545 -0.0070
 3456W        W20304  13.174  12.104  16.663 -0.0641  0.0152  0.1037
 3457W        W20305  15.741   4.869   0.705 -0.0769  0.0289  0.1096
 3458W        W20306   2.154  12.081   6.002  0.1610 -0.4054 -0.0665
 3459W        W20307   7.523  10.786   4.759  0.0882 -0.0800  0.1344
 3460W        W20308   7.443  17.102  16.074  0.1007 -0.1024  0.3753
 3461W        W20309   5.504   3.442  13.986 -0.2225  0.0636 -0.0419
 3462W        W20310  10.789  16.636  17.291  0.0162 -0.0529 -0.1126
 3463W        W20311   8.217   9.685  14.255  0.0309  0.2821  0.2416
 3464W        W20312   2.059   9.902  16.440 -0.1753 -0.2665 -0.0137
 3465W        W20313  14.436  15.030   4.240  0.1278  0.2238 -0.0232
 3466W        W20314   5.637   1.951   5.277  0.1870  0.1207 -0.1457
 3467W        W20315   7.113  11.614   5.386  0.2606 -0.1375 -0.1919
 3468W        W20316   8.209   5.543   5.094  0.1166 -0.3487  0.1104
 3469W        W20317  14.158   8.021   4.072 -0.0300  0.2891  0.0134
 3470W        W20318   9.957   4.973   3.437  0.1764  0.1339 -0.2566
 3471W        W20319  12.292  15.860   2.624 -0.0096 -0.0803 -0.3146
 3472W        W20320  16.101   1.985   4.776 -0.3418  0.0462  0.2764
 3473W        W20321  11.903  11.923  16.042  0.2148  0.2061 -0.3000
 3474W        W20322   0.643   4.993  17.736  0.0641 -0.0173  0.1851
 3475W        W20323   5.886  15.825   2.000 -0.1265  0.1392 -0.0155
 3476W        W20324  16.435   1.874  16.041 -0.1682  0.0040  0.2827
 3477W        W20325  10.130  16.626   4.640  0.0553  0.1489  0.0166
 3478W        W20326  11.238  10.845   4.657  0.0155  0.0154  0.1885
 3479W        W20327   5.826   0.390   0.451  0.2558 -0.0790  0.1013
 3480W        W20328  13.152   7.067   3.035 -0.1898  0.0560  0.0818
 3481W        W20329   9.716  10.998  12.658 -0.1436  0.1626  0.1956
 3482W        W20330   6.323  11.258  17.307  0.1724  0.1198 -0.0518
 3483W        W20331  12.381  13.457   3.388 -0.2551  0.1108  0.3561
 3484W        W20332   0.220   5.755  14.344  0.2399 -0.0470 -0.0493
 3485W        W20333   3.847   9.549  15.400 -0.5610 -0.1083  0.2350
 3486W        W20334   0.526  13.282  16.823  0.2046 -0.0315  0.3694
 3487W        W20335  10.796   2.687   3.403 -0.0878 -0.0421 -0.1091
 3488W        W20336  15.087   1.844   3.680  0.1033  0.1995  0.1032
 3489W        W20337   1.196  10.886   0.926  0.1121 -0.1497 -0.0095
 3490W        W20338  13.665   4.492   3.736 -0.3423 -0.1635 -0.1147
 3491W        W20339  13.816  15.514  15.553 -0.2437  0.1523  0.0836
 3492W        W20340  13.838   4.689  15.872 -0.3558 -0.0431  0.2431
 3493W        W20341  10.316   0.142  13.538  0.2398 -0.3202  0.1045
 3494W        W20342  14.392   0.036   4.150 -0.1153 -0.0604 -0.0501
 3495W        W20343   8.332   6.191   2.829 -0.2132  0.0742  0.0809
 3496W        W20344   2.162   6.636  11.812  0.0539 -0.1811  0.1662
 3497W        W20345  10.440   1.189   5.012  0.0958  0.0207 -0.1868
 3498W        W20346   9.230   3.369  16.817 -0.0119  0.3259 -0.0935
 3499W        W20347   3.059  10.811   0.545  0.2863 -0.0771  0.1510
 3500W        W20348   5.754  12.687   6.194 -0.0946 -0.1629  0.0131
 3501W        W20349  10.309   3.765  15.669  0.1566  0.1190 -0.1437
 3502W        W20350  16.711   8.135  14.569  0.2927  0.1743 -0.0796
 3503W        W20351  11.387  10.722  13.561  0.1621 -0.1083 -0.4268
 3504W        W20352   7.726  11.622  15.600  0.1554  0.2429 -0.0408
 3505W        W20353   5.531   6.138  14.055  0.0338  0.1845  0.3250
 3506W        W20354  16.447   9.213  17.399  0.1130  0.0289  0.1094
 3507W        W20355  13.065  15.221   5.130 -0.2800 -0.1275  0.1775
 3508W        W20356   6.937  11.554   4.229 -0.1441  0.1507 -0.0948
 3509W        W20357   6.309  15.984  12.728  0.0573  0.1630 -0.0795
 3510W        W20358  10.834  11.064  13.117  0.1742  0.0653  0.1568
 3511W        W20359  12.016   5.302   4.001  0.1058  0.0500  0.0795
 3512W        W20360   3.082  15.387  17.484 -0.0652  0.0622  0.2102
 3513W        W20361   3.020   5.991   4.674  0.1481 -0.0272 -0.0346
 3514W        W20362  14.751  11.218   5.694 -0.2198 -0.0542 -0.0414
 3515W        W20363  14.447  11.423   3.508 -0.1451  0.1339  0.1671
 3516W        W20364  16.829   7.170   1.259 -0.0806 -0.2025 -0.1582
 3517W        W20365   4.316  12.183   7.334  0.2587  0.0734  0.1933
 3518W        W20366   8.793   8.129   4.306  0.0149 -0.1592  0.2426
 3519W        W20367  16.607   2.979  14.732 -0.2975 -0.1616  0.0356
 3520W        W20368   3.828   3.389  12.705  0.2960  0.1244 -0.2216
 3521W        W20369  15.110  10.050   2.861 -0.0496  0.1783 -0.1800
 3522W        W20370  15.605   2.990   5.249 -0.2696 -0.0815 -0.1041
 3523W        W20371  15.047  13.022   5.497  0.0013 -0.0031  0.1550
 3524W        W20372   7.874  16.859  17.484  0.1571  0.0070 -0.2992
 3525W        W20373   7.685   7.792  16.657 -0.1715  0.2699 -0.0232
 3526W        W20374   1.340   7.052  16.865  0.1278 -0.2139  0.2176
 3527W        W20375  14.765  10.602   0.690 -0.1122  0.0882  0.2393
 3528W        W20376   8.864  12.152  13.693 -0.0540 -0.2855 -0.2012
 3529W        W20377   2.813   3.890   3.191 -0.0631  0.1828  0.1148
 3530W        W20378  13.756  14.944  12.357 -0.3661 -0.1524 -0.0136
 3531W        W20379   7.452  15.123  11.751 -0.2365  0.2381  0.0628
 3532W        W20380   9.545   6.853   3.908 -0.0021 -0.0273  0.2978
 3533W        W20381  13.944   9.706  13.577  0.1703 -0.2826  0.0451
 3534W        W20382   6.589  11.259   0.584 -0.1059  0.1018 -0.0576
 3535W        W20383   3.235   1.667   3.481  0.0006 -0.1188  0.0179
 3536W        W20384   8.242   6.308   3.757  0.2946  0.3462 -0.0000
 3537W        W20385   3.377  11.165   5.554 -0.0356  0.0441  0.1230
 3538W        W20386  12.112   6.016  14.982 -0.3263  0.2142  0.0933
 3539W        W20387   0.524   1.121  13.982  0.0182  0.0685  0.3619
 3540W        W20388   4.568  13.304  17.497 -0.0246 -0.0024  0.3615
 3541W        W20389  16.753  15.360   0.856 -0.1608  0.0813 -0.0476
 3542W        W20390   6.514  14.788  12.274 -0.1014 -0.1631  0.2519
 3543W        W20391   6.793   1.268   5.372  0.2653  0.0953 -0.4401
 3544W        W20392   1.245   1.884  13.017 -0.1541 -0.1848 -0.2114
 3545W        W20393   9.696  13.988  16.867 -0.1126 -0.3257  0.0534
 3546W        W20394   6.517   0.924   4.028  0.1057 -0.2650  0.1640
 3547W        W20395   3.197   4.915  16.919  0.0270  0.1279 -0.0516
 3548W        W20396  14.873   2.606  12.304 -0.0414 -0.2412  0.1749
 3549W        W20397   2.462  10.245   1.729  0.0149 -0.1725 -0.1023
 3550W        W20398   7.629  16.951  12.272 -0.2873  0.1623  0.1036
 3551W        W20399   3.767   7.310   4.106 -0.2406 -0.1039 -0.0426
 3552W        W20400  11.073   7.006   3.755  0.1737 -0.2655 -0.0089
 3553W        W20401  16.762  16.858  16.687  0.1120  0.0841  0.2679
 3554W        W20402  13.770   9.811   4.971 -0.1713  0.0188  0.1354
 3555W        W20403  14.748   5.699  16.369  0.0866 -0.1639 -0.0127
 3556W        W20404  12.287  10.238   1.298 -0.0455  0.4630  0.2232
 3557W        W20405  12.289   1.732   3.164 -0.1538 -0.0106 -0.0423
 3558W        W20406   7.973  15.452  15.877 -0.0041 -0.1924 -0.2064
 3559W        W20407   4.948  15.346  13.224  0.4067 -0.0103  0.0694
 3560W        W20408  16.404  11.331   0.928 -0.0341  0.0247  0.2177
 3561W        W20409   6.808  12.355  16.791  0.0417  0.2372 -0.1293
 3562W        W20410   1.484   9.290  15.846  0.0277  0.3997 -0.2233
 3563W        W20411  12.149   8.288  17.075  0.0501  0.0561  0.0242
 3564W        W20412   0.692  13.121   4.499 -0.0568 -0.1081 -0.1821
 3565W        W20413  12.338   3.536  14.123  0.1102 -0.1369 -0.0206
 3566W        W20414  11.011  14.228  16.300  0.0115  0.1621 -0.1434
 3567W        W20415   1.585  10.089  13.341 -0.1668  0.1668 -0.0983
 3568W        W20416   4.263   2.661  15.406 -0.2350 -0.1802  0.0015
 3569W        W20417  14.692   4.921   1.680 -0.0068 -0.0629 -0.0279
 3570W        W20418   8.991   2.765  12.454  0.3502 -0.3471 -0.1590
 3571W        W20419   1.778  11.025  13.814 -0.0721 -0.2251  0.0662
 3572W        W20420  15.511   7.891   4.323 -0.1838 -0.0020 -0.2744
 3573W        W20421  16.615   1.591  13.224 -0.0502 -0.3666  0.0865
 3574W        W20422   0.518  16.941  12.991 -0.1740  0.2867 -0.2242
 3575W        W20423  11.427   3.583   0.512  0.0246  0.1473 -0.0819
 3576W        W20424   0.516   6.930  13.331  0.1306 -0.0390  0.0430
 3577W        W20425   2.120  16.122   5.195  0.4271 -0.3786 -0.0269
 3578W        W20426  10.216   0.795   5.840 -0.1356 -0.0120 -0.0472
 3579W        W20427   0.888   6.813   2.108 -0.0395  0.3509 -0.2975
 3580W        W20428   2.306   8.480   2.538 -0.1508  0.1193 -0.2350
 3581W        W20429  16.952  14.339   4.242 -0.0760 -0.1030  0.3886
 3582W        W20430   4.426   3.782  12.939 -0.1499 -0.1878  0.2517
 3583W        W20431   6.593   1.928   2.480  0.0617 -0.2259  0.2862
 3584W        W20432   1.308   7.107   2.945 -0.0698 -0.0021  0.1380
 3585W        W20433  16.713  15.616   4.847 -0.1696  0.4728  0.0539
 3586W        W20434  16.999   6.884   5.168  0.0846  0.0904 -0.1153
 3587W        W20435   4.446   9.662  14.776 -0.0058 -0.0713 -0.0859
 3588W        W20436   2.600  10.102   5.724  0.0072  0.0057 -0.2576
 3589W        W20437   0.261  12.915   4.056  0.2951  0.1581 -0.2849
 3590W        W20438  15.177   6.359  17.175 -0.1735 -0.4698  0.3887
 3591W        W20439  17.004   0.724  13.384 -0.0783  0.2874 -0.0606
 3592W        W20440   7.382  11.302  14.295  0.0199 -0.0517  0.0750
 3593W        W20441   5.697   4.426   0.093 -0.0034 -0.0985 -0.0546
 3594W        W20442  16.318   5.638   3.255  0.2306  0.1305  0.1034
 3595W        W20443  14.323   3.128   1.530 -0.1499  0.0696  0.1566
 3596W        W20444   7.043  10.487  17.275 -0.1422 -0.2061 -0.0511
 3597W        W20445  14.951   6.419  16.454 -0.0268  0.1636 -0.0175
 3598W        W20446  13.534   0.425   3.387 -0.1369 -0.2469 -0.0761
 3599W        W20447   0.433   0.561   1.152 -0.0326 -0.3248  0.4495
 3600W        W20448  10.471  12.636  12.153 -0.2542  0.0483  0.1424
 3601W        W20449  12.936  14.177  16.086 -0.0761 -0.2874  0.1116
 3602W        W20450  13.057  16.220  16.333  0.4480 -0.0431 -0.1712
 3603W        W20451   9.985   2.389  15.934  0.3046 -0.1735  0.0739
 3604W        W20452  10.575  10.644  17.542  0.2077 -0.3660 -0.1251
 3605W        W20453   3.215   4.148  12.421  0.1950 -0.2135  0.2092
 3606W        W20454  14.432   7.566   3.333 -0.0241 -0.5367 -0.2538
 3607W        W20455  10.641   0.344   1.506 -0.0008  0.3777  0.0389
 3608W        W20456   1.535  10.594   1.910 -0.0163  0.0494 -0.1363
 3609W        W20457   6.865   0.354   3.256 -0.0649  0.0645 -0.1627
 3610W        W20458   9.708   2.882  11.677  0.2085  0.1233 -0.1846
 3611W        W20459  11.624  14.307  15.513  0.1688 -0.2295  0.0210
 3612W        W20460   7.349  11.474  14.797 -0.1663  0.0166 -0.2283
 3613W        W20461   6.346   2.885   4.030 -0.0640 -0.0380  0.1512
 3614W        W20462   1.307   5.832   4.776 -0.1492 -0.1731 -0.0668
 3615W        W20463   8.498   0.060  13.133 -0.1168 -0.0859  0.0086
 3616W        W20464   9.878  14.286   5.513 -0.0771  0.1813 -0.1445
 3617W        W20465   9.383   4.246  15.505  0.0258 -0.0388  0.1372
 3618W        W20466  14.277  10.034   0.972  0.0359  0.1959  0.0844
 3619W        W20467  13.260  15.762   3.626  0.1776 -0.2148  0.0011
 3620W        W20468  16.413   4.977  14.479 -0.0900  0.1099 -0.1185
 3621W        W20469  11.327   8.204   3.025 -0.0243  0.0011 -0.0398
 3622W        W20470   6.658  14.764   4.424 -0.0353  0.1621 -0.0652
 3623W        W20471   6.998   1.528   4.001 -0.0061  0.1575 -0.3142
 3624W        W20472   3.318   4.289  12.941 -0.0371  0.0178 -0.0287
 3625W        W20473   7.867  16.836  11.849  0.0226  0.2699 -0.0134
 3626W        W20474  15.126  15.551  17.775  0.0550 -0.0429 -0.1041
 3627W        W20475   3.525  10.481  13.878  0.1282  0.0966 -0.2509
 3628W        W20476   1.283   6.818  12.651 -0.2361 -0.0398  0.2337
 3629W        W20477  15.815  15.509   1.997  0.0768 -0.1372 -0.0696
 3630W        W20478   5.636   5.986  17.079  0.0450 -0.1921 -0.2384
 3631W        W20479  15.552   9.118  13.536  0.1234  0.0438 -0.3583
 3632W        W20480  17.059  13.609  15.567 -0.1223 -0.1849 -0.0133
 3633W        W20481   7.867   5.096  14.044  0.0410  0.3117  0.2371
 3634W        W20482   7.053   8.368   4.687  0.3547  0.1392 -0.0494
 3635W        W20483  13.698   7.319  16.548  0.1247 -0.3100 -0.0159
 3636W        W20484   2.132  16.570   4.138  0.0352 -0.3605  0.4772
 3637W        W20485   9.727  11.582  16.944  0.2254 -0.1059 -0.3286
 3638W        W20486  16.970  11.763   0.539  0.2586 -0.1022  0.2569
 3639W        W20487  10.058   7.680  14.093 -0.4032 -0.1404  0.0932
 3640W        W20488  16.717  13.345  13.944 -0.2080  0.1449  0.2125
 3641W        W20489   7.614  15.919   1.884 -0.0741  0.2851 -0.2447
 3642W        W20490  16.848   3.291   1.520 -0.1725  0.2437  0.0528
 3643W        W20491   6.968   3.547   3.672 -0.1584 -0.1348  0.1238
 3644W        W20492  13.642  14.253   1.859 -0.0958  0.1131 -0.1185
 3645W        W20493  13.266   0.620  16.057 -0.0184 -0.0520 -0.0732
 3646W        W20494   5.654   0.063  16.295  0.1073  0.0728 -0.0765
 3647W        W20495   5.821  14.737  13.453 -0.1530 -0.0796  0.2034
 3648W        W20496   4.831  15.257  14.483  0.1999  0.0383 -0.0817
 3649W        W20497   8.688   3.193   4.871 -0.2062 -0.0213 -0.1745
 3650W        W20498   5.935   9.497   4.730 -0.0927 -0.3073  0.0418
 3651W        W20499  16.172  12.055   2.814 -0.1729 -0.0868  0.0400
 3652W        W20500  15.815   1.457  16.433 -0.0360  0.1060 -0.3305
 3653W        W20501  10.096   3.785   1.588 -0.2327  0.1129  0.1755
 3654W        W20502  15.735  15.274  13.588 -0.0670 -0.2200 -0.0628
 3655W        W20503  12.147   5.356   2.430 -0.2388 -0.1360  0.1177
 3656W        W20504   1.633   9.122   1.327  0.0355 -0.2094 -0.3112
 3657W        W20505  10.401   5.198   0.242  0.3423 -0.3688  0.1487
 3658W        W20506   3.308   7.660   6.504  0.1654 -0.0764 -0.0256
 3659W        W20507   2.656  16.045  16.036  0.2689  0.0911 -0.1768
 3660W        W20508   7.029   9.982   5.554  0.2995 -0.1793  0.0705
 3661W        W20509  14.446   5.364   1.495  0.0880 -0.1767 -0.0215
 3662W        W20510  12.529   2.654  15.814  0.1533  0.1426 -0.2682
 3663W        W20511   2.984  10.185   6.063  0.4042 -0.0257  0.1637
 3664W        W20512   4.326  15.836   3.582 -0.0503  0.0603 -0.0564
 3665W        W20513   9.477   2.222  12.665 -0.3332  0.1926 -0.1926
 3666W        W20514   8.441   1.273  12.802  0.2446  0.3005  0.0737
 3667W        W20515  14.748  12.401   6.679  0.0431  0.1127  0.4230
 3668W        W20516  16.445  15.135  17.410  0.1064 -0.1490  0.1280
 3669W        W20517  17.147  10.238   2.162  0.0048 -0.0479  0.0915
 3670W        W20518  13.717   0.304   5.393 -0.0960 -0.0225 -0.0694
 3671W        W20519  12.039   6.900   2.991  0.0373 -0.0940  0.0263
 3672W        W20520   6.764   5.357   5.068 -0.0754 -0.0054  0.1851
 3673W        W20521   0.911  12.089   4.353  0.1070 -0.4699 -0.2700
 3674W        W20522  11.944   4.590   3.149  0.0123  0.0063  0.0993
 3675W        W20523   8.479  10.515   3.912  0.0480  0.2210  0.0048
 3676W        W20524   9.326   0.391  14.340  0.1887 -0.2736 -0.0954
 3677W        W20525  12.411   2.622  13.535 -0.0553  0.1449 -0.2946
 3678W        W20526  10.486  11.239   1.198 -0.3515 -0.1520 -0.0516
 3679W        W20527   2.947  12.365  17.411  0.0664 -0.2067 -0.1270
 3680W        W20528  12.230   9.009   0.226 -0.0098 -0.2195  0.2471
 3681W        W20529   1.816  11.943  16.688  0.0282 -0.2803  0.0111
 3682W        W20530   4.795   4.544  14.076 -0.1369  0.1485  0.0036
 3683W        W20531  12.700  16.272  13.983  0.1128 -0.1754 -0.1848
 3684W        W20532   5.612   5.335  16.285  0.0624  0.1018  0.0084
 3685W        W20533   2.821   6.408   3.093  0.2431  0.0772  0.1017
 3686W        W20534   7.003  16.483  16.968  0.0290 -0.1612 -0.0131
 3687W        W20535   8.380  14.395   2.231  0.0185  0.3175  0.0537
 3688W        W20536   3.066   7.643   4.973  0.1675  0.1499 -0.1364
 3689W        W20537   5.081  12.922   0.498  0.3588 -0.2951 -0.0004
 3690W        W20538   1.585   2.785  17.275  0.2814 -0.0787 -0.1443
 3691W        W20539   5.283   4.369   3.197 -0.1376 -0.3633  0.4579
 3692W        W20540   5.074   2.241  15.081  0.0238 -0.3408 -0.0275
 3693W        W20541   8.226   9.681   4.100 -0.1116  0.1343 -0.0394
 3694W        W20542   5.266   7.464  14.482  0.2921 -0.1950  0.2224
 3695W        W20543   7.925  16.800  16.564  0.1157  0.3567 -0.2889
 3696W        W20544  12.296  11.428   2.585  0.0637 -0.0114  0.2624
 3697W        W20545   2.147  17.054   5.577  0.0836 -0.0576 -0.0904
 3698W        W20546   5.999  11.689   1.483 -0.0398 -0.0241  0.0329
 3699W        W20547   7.945  16.430   3.735  0.0450  0.0614 -0.2079
 3700W        W20548  12.183  10.646   4.908 -0.2250 -0.1884  0.2123
 3701W        W20549  16.564   4.771   4.545 -0.1930 -0.2702  0.0632
 3702W        W20550   6.253   4.509   3.056  0.0431 -0.0623 -0.0803
 3703W        W20551  11.023  13.792  14.464 -0.4115 -0.1321 -0.1320
 3704W        W20552   0.668   5.191  11.870 -0.1659  0.2260  0.1521
 3705W        W20553   1.314   3.060   4.523 -0.0362 -0.0724  0.3515
 3706W        W20554   2.300   7.210  15.451  0.1629  0.0580 -0.1421
 3707W        W20555   4.413  12.106   2.439 -0.0986  0.2804  0.0467
 3708W        W20556   5.141  13.349  17.281 -0.2369  0.1642  0.0645
 3709W        W20557   3.721  14.258  13.810  0.3354  0.0194  0.1960
 3710W        W20558  12.880  11.495   2.725 -0.1387 -0.1518 -0.1096
 3711W        W20559  16.674   3.567  12.381 -0.0193  0.1539  0.1010
 3712W        W20560   9.222   5.165  13.099 -0.0651  0.1078  0.1591
 3713W        W20561   5.531   5.280   4.366  0.0915  0.1655 -0.0991
 3714W        W20562  13.731   1.061   4.775  0.0206  0.1779  0.0378
 3715W        W20563   4.351   3.690   2.582  0.1293  0.1801 -0.4631
 3716W        W20564  16.801  13.028  14.850  0.1854 -0.1515 -0.1474
 3717W        W20565  15.682   7.222  16.307  0.0552 -0.0461  0.1071
 3718W        W20566   3.301   4.502   5.736  0.1041 -0.0731 -0.0786
 3719W        W20567   6.189  14.314   2.866  0.0721  0.0109  0.1298
 3720W        W20568   9.510   6.049  15.310  0.1422 -0.2120  0.3644
 3721W        W20569  10.013   8.892  14.778  0.0283  0.4030  0.1250
 3722W        W20570  11.495   5.545  14.279  0.1824  0.0677 -0.0287
 3723W        W20571  16.668   9.356   1.283  0.0392 -0.0906  0.0754
 3724W        W20572  10.852  14.109   1.651 -0.1055  0.2361 -0.0894
 3725W        W20573  14.388   2.678   4.363 -0.1717  0.2133  0.0129
 3726W        W20574  15.214   3.321   5.272  0.0300  0.2051  0.0591
 3727W        W20575   9.917   3.450   0.923  0.3800 -0.0010 -0.0417
 3728W        W20576  16.056   4.073  12.785  0.0096  0.0865 -0.0008
 3729W        W20577   8.274   8.657  17.416 -0.2933  0.0191  0.2575
 3730W        W20578  10.478  16.078  13.619 -0.0851  0.1840 -0.1758
 3731W        W20579  12.431   1.484   2.216 -0.2927 -0.0825  0.4559
 3732W        W20580  11.549   4.525  17.416  0.1178 -0.1847 -0.3212
 3733W        W20581   8.227   6.949  12.009 -0.4897  0.1164 -0.0653
 3734W        W20582   2.040   8.882   1.523 -0.2517  0.1724  0.1625
 3735W        W20583   4.224   4.223   3.273  0.0229 -0.1821 -0.1841
 3736W        W20584   4.984  13.478   0.454 -0.0293  0.2835  0.1323
 3737W        W20585   1.383   0.628   4.204 -0.0879  0.0831 -0.2265
 3738W        W20586   6.167   3.577  12.075  0.1540 -0.0545  0.0710
 3739W        W20587   4.250  16.669  17.382  0.0198 -0.0035 -0.0793
 3740W        W20588  15.210   7.720   1.492  0.0146  0.1496 -0.0107
 3741W        W20589  16.863  14.911   2.436 -0.1203  0.1278  0.0591
 3742W        W20590   2.146   1.614  14.801 -0.0041  0.1614  0.0919
 3743W        W20591   6.643   3.328   0.388  0.2166 -0.2258 -0.3556
 3744W        W20592  15.462  16.489  15.089 -0.2778  0.2067 -0.2023
 3745W        W20593  11.215  10.968  16.436  0.1139  0.0446 -0.1758
 3746W        W20594  11.430  13.346  15.729  0.0702  0.3665  0.2405
 3747W        W20595   5.596   5.329   2.878 -0.0223 -0.1087 -0.2514
 3748W        W20596  15.570   6.629   4.126  0.0500  0.1357  0.3176
 3749W        W20597  11.364   4.591   1.938 -0.2141 -0.0214  0.1982
 3750W        W20598  12.476   4.379  14.603 -0.2051 -0.1241 -0.0272
 3751W        W20599   6.930  13.639   5.618 -0.2490 -0.0670  0.2986
 3752W        W20600   6.481   2.335   4.270  0.3509 -0.1237 -0.0949
 3753W        W20601   1.856   5.077  13.177 -0.0829  0.2733  0.3726
 3754W        W20602  14.282   5.287  17.098  0.2737 -0.0257 -0.1857
 3755W        W20603   3.093   5.593  17.491  0.1303  0.0584 -0.0577
 3756W        W20604  10.481   4.503   3.686 -0.0868  0.2214  0.0520
 3757W        W20605   9.984   9.734  16.566 -0.0006 -0.0280 -0.2646
 3758W        W20606   4.440   1.380   2.935 -0.0762  0.1187 -0.1490
 3759W        W20607  13.574  10.699   1.856  0.4023  0.0068  0.1010
 3760W        W20608  10.796  10.424   5.528  0.1627 -0.2198  0.0182
 3761W        W20609   6.892  10.959  17.022  0.0807  0.2695  0.0755
 3762W        W20610   1.982   8.737   0.417 -0.1597  0.0288  0.0230
 3763W        W20611   2.540   8.604  15.658  0.0109 -0.0199  0.0833
 3764W        W20612   2.655   5.088  15.586  0.2047 -0.1075  0.2022
 3765W        W20613   8.274   8.801  14.792 -0.1774 -0.0503  0.0408
 3766W        W20614   6.868   5.455   5.541  0.1818 -0.1239 -0.0257
 3767W        W20615   1.528   5.033  14.998  0.0224 -0.3217  0.0913
 3768W        W20616   7.560  15.150  15.690  0.0168 -0.0256  0.2400
 3769W        W20617   4.084  14.825   2.902 -0.0501  0.1328  0.1833
 3770W        W20618   4.655   3.799  16.054 -0.2496  0.0758 -0.1687
 3771W        W20619  10.184   2.028   3.607  0.0023  0.0497 -0.0696
 3772W        W20620  16.297   8.242   4.509  0.1935  0.0513  0.1944
 3773W        W20621  11.331   1.971  11.528  0.3446 -0.2443 -0.0013
 3774W        W20622   1.390  12.172   4.115 -0.1136  0.2730  0.1489
 3775W        W20623  14.300   6.367  12.016 -0.0556 -0.1731 -0.2316
 3776W        W20624  15.787   8.400  12.184  0.1489 -0.2669  0.1305
 3777W        W20625   0.072   5.311   5.299  0.3131  0.1237 -0.0801
 3778W        W20626  16.073   3.505   2.584 -0.2220 -0.0122 -0.0550
 3779W        W20627   3.523   3.921  17.752 -0.1071  0.1984 -0.2376
 3780W        W20628   6.103   7.022   4.137  0.0227 -0.1818  0.2884
 3781W        W20629  16.303   9.297  16.049  0.1878  0.0551 -0.0567
 3782W        W20630  16.432   9.495   3.014  0.1154 -0.1281 -0.2716
 3783W        W20631   6.162   0.905  16.416 -0.0929  0.1270  0.1911
 3784W        W20632   4.302  12.444   6.266  0.1289  0.0391  0.1476
 3785W        W20633   2.668   6.137   1.070 -0.0245  0.0157 -0.0430
 3786W        W20634   7.155   3.128   2.264  0.0874  0.2288 -0.2823
 3787W        W20635  15.808  13.054   3.079 -0.1934 -0.0546 -0.0489
 3788W        W20636   2.453   4.450   5.341 -0.1042 -0.1134  0.1201
 3789W        W20637   3.497  13.636   6.203  0.1187 -0.1288  0.0193
 3790W        W20638  16.753  10.092  16.647 -0.3108 -0.0786  0.0865
 3791W        W20639  14.648  15.801  17.042 -0.0117 -0.1486 -0.2368
 3792W        W20640   9.102  10.793   5.260  0.0034  0.0321 -0.1672
 3793W        W20641  16.490   7.401  16.591  0.0472  0.3067  0.3124
 3794W        W20642  12.939  15.919   5.335 -0.0160 -0.1952 -0.0235
 3795W        W20643   7.147   3.344   0.306 -0.1792  0.1696  0.1164
 3796W        W20644  11.875  13.148   4.172 -0.0886  0.0300  0.2134
 3797W        W20645  12.752   9.330   0.088  0.0259 -0.0538 -0.1424
 3798W        W20646   7.549   3.168  17.504  0.0502  0.1235 -0.1829
 3799W        W20647   7.366   0.169  15.321 -0.0684 -0.0864 -0.1967
 3800W        W20648   4.913   3.233   2.807  0.0710 -0.0105 -0.0492
 3801W        W20649   0.395   8.132  14.797 -0.0267 -0.2206 -0.2270
 3802W        W20650  15.046   3.617  12.638 -0.0295  0.2031  0.1227
 3803W        W20651  16.396   3.460   1.117  0.2568  0.2970  0.1354
 3804W        W20652   4.624  16.138   6.737  0.0851  0.0615  0.0173
 3805W        W20653  10.772   7.839  12.208 -0.0411  0.0499  0.1039
 3806W        W20654  16.599   8.013   3.542  0.0154  0.0526 -0.0744
 3807W        W20655   3.618   4.075  15.861  0.0771  0.2775  0.3429
 3808W        W20656   4.063   9.100   2.067 -0.2063 -0.4146 -0.1660
 3809W        W20657  13.362   0.506  15.555 -0.2095  0.0123  0.0147
 3810W        W20658   7.453  10.189   4.740 -0.1653  0.3614 -0.0494
 3811W        W20659  12.604  15.261   0.722  0.4755 -0.0851  0.0171
 3812W        W20660  10.688   2.098  12.930  0.0890 -0.0047  0.1559
 3813W        W20661   1.525   4.349  12.279 -0.0187 -0.0799 -0.1064
 3814W        W20662   9.489   9.993   0.303  0.0471  0.0575 -0.2344
 3815W        W20663  15.385   8.049  12.617 -0.1476 -0.0390  0.1564
 3816W        W20664   7.517   9.176   0.767  0.0333  0.0307  0.0457
 3817W        W20665  15.322  12.537  17.328  0.0103 -0.2508  0.1687
 3818W        W20666   8.674   8.388  15.724 -0.0935 -0.1902  0.0234
 3819W        W20667  10.138   0.846   4.451  0.2639  0.1980  0.3366
 3820W        W20668   1.723  15.403   1.107 -0.2043  0.1226  0.1559
 3821W        W20669  13.641  13.513  14.532  0.0614 -0.3652  0.1021
 3822W        W20670   1.554  13.545   6.976  0.1933  0.3455  0.1077
 3823W        W20671   7.913   9.529   5.555 -0.4221 -0.1920 -0.1779
 3824W        W20672   3.191   2.265  17.377 -0.0540 -0.1466 -0.1701
 3825W        W20673  12.974  10.379   0.171  0.1050 -0.2256  0.0709
 3826W        W20674  13.136   7.974  17.608 -0.0111 -0.1536  0.2551
 3827W        W20675  10.800  16.831  12.686 -0.0506  0.1779  0.3086
 3828W        W20676   4.955   4.333   1.685  0.1514  0.0828  0.2213
 3829W        W20677   9.974   1.463   3.623  0.1880 -0.2154 -0.1427
 3830W        W20678  16.961  15.844   5.431  0.0007  0.1374  0.1094
 3831W        W20679   7.849  11.847   3.952 -0.1203 -0.0417 -0.0197
 3832W        W20680   4.266   9.628  15.747  0.1295  0.2010 -0.1478
 3833W        W20681  13.983  11.419  14.138  0.1492 -0.0024 -0.4905
 3834W        W20682  15.346   1.712  12.107 -0.2371  0.0445  0.0086
 3835W        W20683  11.753   2.816  17.642  0.1441 -0.1201  0.0221
 3836W        W20684  13.637   2.223  12.640  0.0708  0.2802  0.1178
 3837W        W20685   0.201  11.764   4.244  0.0140 -0.0199  0.0749
 3838W        W20686  14.597   3.171  17.139 -0.2142 -0.0659  0.0213
 3839W        W20687   1.668   5.700   1.566  0.1221 -0.2926 -0.1340
 3840W        W20688   7.092   5.229  15.949 -0.4033  0.1256 -0.1392
 3841W        W20689  15.691   3.218   3.933  0.2370 -0.0632 -0.1328
 3842W        W20690  10.163  16.477  14.827  0.1692 -0.1371  0.0105
 3843W        W20691   0.726  14.946  16.971 -0.1057 -0.2860 -0.1979
 3844W        W20692   0.369   7.872   1.153  0.2682 -0.1705 -0.0927
 3845W        W20693   6.306  15.815  16.609 -0.0498  0.0009 -0.1633
 3846W        W20694  11.800  14.777   5.635  0.1545 -0.2684  0.0440
 3847W        W20695   7.675   8.329  16.671  0.0261  0.5435 -0.0524
 3848W        W20696  10.734   8.745  15.519  0.1857 -0.0642  0.0779
 3849W        W20697   1.592   9.440   0.208 -0.2039  0.1888  0.2450
 3850W        W20698  11.875  11.805  13.102  0.1558 -0.0713  0.0567
 3851W        W20699  16.568   9.199   5.475 -0.2176 -0.0475 -0.2313
 3852W        W20700   1.620  14.170   4.397  0.0881 -0.0695 -0.1589
 3853W        W20701  15.694  12.179  12.399 -0.1508  0.0797  0.1511
 3854W        W20702   4.717  10.419  17.298 -0.0888 -0.2779 -0.0436
 3855W        W20703  12.153  15.121   4.669  0.0557  0.2870  0.0394
 3856W        W20704   8.687   8.124   1.952 -0.2499  0.1865  0.0270
 3857W        W20705  15.415  10.856   0.148  0.2161 -0.0555 -0.4690
 3858W        W20706  13.528   6.186   1.877 -0.2125 -0.2329  0.4556
 3859W        W20707   0.167   7.855  13.653 -0.0794  0.0462 -0.0201
 3860W        W20708   9.514   3.106  12.100 -0.0068 -0.0973 -0.1299
 3861W        W20709   6.221   1.724  13.833 -0.1798  0.3172 -0.2001
 3862W        W20710  12.893  11.804  16.387 -0.2249 -0.0369  0.0978
 3863W        W20711   8.209  12.900  12.159 -0.0944  0.2677  0.1966
 3864W        W20712   7.154  15.089  15.970  0.1772  0.0445  0.0726
 3865W        W20713   2.763   7.642   4.334  0.2775 -0.3101  0.2425
 3866W        W20714   2.322  10.696   5.868 -0.0541 -0.0454  0.0824
 3867W        W20715  16.849   5.740   1.276  0.0833  0.1077  0.0719
 3868W        W20716   0.004  16.967  13.963 -0.2105  0.1396  0.1067
 3869W        W20717   6.625  15.781   3.371 -0.1001  0.2044  0.1763
 3870W        W20718   9.574  10.995   5.208 -0.1515 -0.0199  0.0017
 3871W        W20719   2.939   7.015  11.989  0.1808 -0.0374 -0.2291
 3872W        W20720   7.399   3.261   0.748  0.2646  0.1964 -0.0142
 3873W        W20721  12.601   8.689  12.480 -0.1440 -0.2097 -0.1641
 3874W        W20722   7.991   1.283   3.718 -0.0682 -0.2622  0.3574
 3875W        W20723   6.277   2.842  12.955  0.3819  0.1788 -0.2883
 3876W        W20724  17.065   6.685  12.315 -0.2038  0.0513 -0.2470
 3877W        W20725   9.895   1.944  15.634 -0.3420 -0.2148  0.1735
 3878W        W20726  12.718  11.270   3.850 -0.1698 -0.0546 -0.0834
 3879W        W20727  15.863  10.220   2.272  0.0525 -0.0545  0.0356
 3880W        W20728  10.006  15.007  17.352  0.1588  0.1011  0.0792
 3881W        W20729   6.822   9.989   0.146  0.0482  0.0647  0.0103
 3882W        W20730  12.262   9.732   1.429  0.0944  0.2926  0.1955
 3883W        W20731   9.081   5.252   1.206  0.3151 -0.2153  0.1489
 3884W        W20732   1.032   5.430   4.879 -0.0078  0.1548  0.1986
 3885W        W20733   8.246   1.078  14.230  0.2238 -0.2025  0.1061
 3886W        W20734   5.832   0.347   4.698  0.0888 -0.1243  0.0424
 3887W        W20735   2.323   0.478   1.815 -0.1022 -0.0766 -0.0476
 3888W        W20736   3.922   7.105  15.593 -0.1308 -0.1767  0.1389
 3889W        W20737  15.038  14.027  15.713 -0.2654 -0.0562  0.0815
 3890W        W20738   2.121   7.474  12.395  0.2397 -0.0070 -0.1202
 3891W        W20739  16.045   5.359  14.534  0.1576  0.3668  0.0170
 3892W        W20740  11.675   8.571  15.380 -0.2416  0.1081 -0.2750
 3893W        W20741   0.250  15.367   4.089 -0.2870  0.2461  0.0364
 3894W        W20742  10.943   4.019   2.465  0.0714  0.4537  0.2527
 3895W        W20743  11.932   7.553  16.659 -0.1468 -0.0207  0.0103
 3896W        W20744   6.643   0.664   2.463 -0.2753  0.3276  0.1989
 3897W        W20745   2.476   3.967  16.118  0.0604 -0.0756 -0.0248
 3898W        W20746  15.009   9.558  12.447 -0.0432 -0.2314  0.1444
 3899W        W20747   2.801   7.763  15.519 -0.0269  0.1587  0.0084
 3900W        W20748   0.305   6.145  16.202  0.1181 -0.0400  0.1752
 3901W        W20749   0.548  13.452   4.041 -0.3083  0.1401 -0.3193
 3902W        W20750  10.825  14.287   3.318 -0.2556 -0.1437 -0.0122
 3903W        W20751  15.233  12.898   1.861 -0.0392 -0.1270 -0.0859
 3904W        W20752   2.529  12.664  17.333  0.1794 -0.2328 -0.3967
 3905W        W20753  15.039  16.338   1.139  0.0826 -0.0684 -0.0923
 3906W        W20754  17.127  16.066   0.606  0.2112 -0.2933  0.0470
 3907W        W20755   5.646   7.818   5.675 -0.1231  0.1399  0.0921
 3908W        W20756  15.479   9.096   6.648  0.0929 -0.1443 -0.1475
 3909W        W20757   9.275  12.181  14.423 -0.1464 -0.0018 -0.4362
 3910W        W20758   7.208   8.243  14.694 -0.1109  0.1113  0.2832
 3911W        W20759   4.005   2.463  13.211 -0.0404 -0.1881 -0.1410
 3912W        W20760  15.470   6.189   1.212  0.2003 -0.1941  0.1073
 3913W        W20761   5.573  12.423  15.771 -0.1771  0.2596  0.0619
 3914W        W20762   3.041  10.945   2.247 -0.1292 -0.3200  0.0106
 3915W        W20763  12.673   5.873   2.654 -0.0696 -0.1563  0.0404
 3916W        W20764  14.489  16.565   3.311  0.0588  0.1739 -0.0609
 3917W        W20765   1.191  10.842   5.908 -0.3223 -0.2246 -0.2275
 3918W        W20766   9.102   3.611   3.967 -0.1966  0.3096 -0.0062
 3919W        W20767   3.981   0.981   5.489  0.1895 -0.1251 -0.2320
 3920W        W20768   1.095  10.913  15.012 -0.0337  0.0866 -0.2708
 3921W        W20769  14.913  15.828   2.379 -0.2575 -0.1796  0.0838
 3922W        W20770   4.819   9.357   2.206 -0.0632 -0.0764 -0.1114
 3923W        W20771   2.535  16.034  16.538  0.0160 -0.3078 -0.1779
 3924W        W20772  12.688  10.883  13.070 -0.1320  0.1483 -0.3398
 3925W        W20773  13.084   0.706  16.584 -0.1905  0.1447 -0.4436
 3926W        W20774  16.560   3.561   4.140  0.1673 -0.0815 -0.2885
 3927W        W20775  16.242  10.735  16.726  0.0842  0.0417 -0.0728
 3928W        W20776   9.414   5.132  13.957 -0.0732  0.0544  0.1777
 3929W        W20777   6.268   0.858  15.106 -0.1123  0.1979  0.0782
 3930W        W20778   9.633   1.176   4.185 -0.0784 -0.0626 -0.1482
 3931W        W20779   8.231   3.208   3.218  0.2309  0.2494  0.0796
 3932W        W20780   7.742   0.233  15.725  0.0490  0.3400 -0.0346
 3933W        W20781   8.293  11.841  16.034  0.1732  0.1323  0.2128
 3934W        W20782   9.066   5.315   2.990  0.0346 -0.0000  0.0005
 3935W        W20783   6.708   8.221   1.262  0.1173  0.0073  0.0149
 3936W        W20784   5.265   5.949   1.026  0.0546 -0.2423  0.0696
 3937W        W20785   6.088  15.250   5.965 -0.0622  0.2356 -0.2974
 3938W        W20786  14.039  13.360  14.237  0.1065 -0.0942 -0.1397
 3939W        W20787   5.668   0.986  15.135  0.1403 -0.0339 -0.0535
 3940W        W20788  11.441   7.942  17.603  0.1311  0.1632  0.2034
 3941W        W20789   8.524   5.828   1.969 -0.1577 -0.1839  0.2234
 3942W        W20790   5.599   8.557  17.636 -0.0900 -0.2502 -0.0795
 3943W        W20791   4.503  13.103  14.275 -0.0068  0.2798 -0.4901
 3944W        W20792   0.226   5.815   0.456 -0.1966  0.2552 -0.1462
 3945W        W20793  14.561  14.005   4.608 -0.0317 -0.2957 -0.1240
 3946W        W20794   9.377  12.506  12.323  0.0590 -0.1987  0.0902
 3947W        W20795  14.037  17.139  15.061  0.0208 -0.2893 -0.3172
 3948W        W20796   3.777  10.287   0.021  0.1133  0.0802  0.3334
 3949W        W20797   8.041  11.128   1.504 -0.0929  0.4952 -0.1833
 3950W        W20798   5.596   5.509  14.813 -0.1671 -0.0074 -0.2777
 3951W        W20799   4.074   6.271  15.629 -0.5981  0.1079 -0.0919
 3952W        W20800  14.907   6.881  13.976  0.1258 -0.3341 -0.0377
 3953W        W20801   4.765  15.042   3.732  0.2777  0.0460 -0.4786
 3954W        W20802  16.437  11.605   0.425  0.0679  0.0268 -0.0288
 3955W        W20803  12.538   8.481   0.201 -0.0251 -0.0008  0.2562
 3956W        W20804  14.012   3.623   2.051  0.0281 -0.0224 -0.1021
 3957W        W20805   6.950  14.578   3.964 -0.0064  0.0520  0.2501
 3958W        W20806  11.913   8.399   0.792  0.3673  0.4250  0.0364
 3959W        W20807  12.196  10.453   3.625  0.0732  0.1482  0.1941
 3960W        W20808   6.687  13.013  14.876  0.1005 -0.1000  0.4827
 3961W        W20809  15.434  16.857  17.414 -0.2677  0.3383 -0.2593
 3962W        W20810   0.551  15.723  16.640  0.2341  0.2357 -0.3509
 3963W        W20811  15.153   7.107  15.502  0.0775 -0.1047 -0.1268
 3964W        W20812  12.925   5.189  11.398 -0.0796 -0.0934 -0.0798
 3965W        W20813   9.771  12.607   1.897 -0.2150 -0.1742  0.2098
 3966W        W20814  12.226   7.487  15.133 -0.0663  0.1023 -0.0876
 3967W        W20815  16.881   7.273  17.482  0.1603  0.1381  0.1247
 3968W        W20816   7.279  14.201  12.634  0.2342  0.0466  0.1046
 3969W        W20817   5.700   3.326   4.585 -0.1903  0.0859 -0.3099
 3970W        W20818   6.946   2.522  16.694  0.2643 -0.1348 -0.0544
 3971W        W20819  11.253  13.794  15.325  0.1101 -0.2770  0.1353
 3972W        W20820   8.752  15.039  16.371 -0.0910  0.1558  0.0301
 3973W        W20821  15.014   6.646  14.849 -0.0161  0.1706  0.3185
 3974W        W20822   0.541  12.368   0.806 -0.1501  0.0352 -0.0466
 3975W        W20823  11.999  11.564   1.198  0.1781 -0.0436 -0.0676
 3976W        W20824  13.049   4.869  15.173  0.2444  0.2488  0.2275
 3977W        W20825   0.555  10.737   2.627 -0.4939  0.0061  0.1523
 3978W        W20826   5.718   5.178   2.132 -0.0778  0.1582  0.2010
 3979W        W20827  16.367   7.270   2.536 -0.0763 -0.2059  0.1469
 3980W        W20828   7.264   7.118  16.214  0.0295 -0.0122  0.0614
 3981W        W20829   3.916   6.265   3.075  0.0709 -0.0396  0.0862
 3982W        W20830  16.898   4.193  15.973 -0.2751  0.1683 -0.0262
 3983W        W20831  15.812  10.906  16.695 -0.2740 -0.1733  0.0177
 3984W        W20832   5.666   6.448  12.809  0.2431  0.1596 -0.0427
 3985W        W20833   3.917   9.244  16.401 -0.0624  0.1940  0.0636
 3986W        W20834  13.016  12.679   2.579  0.0744 -0.2639 -0.1485
 3987W        W20835   2.765  13.322   2.414  0.1727 -0.1474 -0.2011
 3988W        W20836  13.680  11.236   3.076 -0.1343 -0.1704  0.1246
 3989W        W20837  11.507   8.643   1.983 -0.0948  0.1048 -0.0597
 3990W        W20838  14.900  11.522   3.001  0.0617 -0.1669 -0.1255
 3991W        W20839   4.332  15.561  16.230  0.1513  0.2005  0.0675
 3992W        W20840   6.684  15.345   3.609  0.4060  0.2536 -0.1971
 3993W        W20841  16.399   2.749   1.017 -0.3125  0.4602 -0.1035
 3994W        W20842   8.968  14.233  13.763  0.0070  0.0096 -0.1529
 3995W        W20843   6.656   9.206  16.784 -0.1385 -0.0797 -0.0685
 3996W        W20844  15.815  15.794  13.483 -0.0195 -0.0417  0.0982
 3997W        W20845   4.199   7.026  12.661 -0.2224 -0.0070  0.4260
 3998W        W20846  17.041   0.274  17.002 -0.1894 -0.3218 -0.1327
 3999W        W20847   5.640   7.997  12.534 -0.0372  0.1831 -0.0264
 4000W        W20848   1.367   7.114  14.226 -0.1569  0.2847  0.0868
 4001W        W20849  13.305   8.394   5.372  0.0865  0.0396 -0.3459
 4002W        W20850   9.359  15.478  13.029  0.0707  0.0079 -0.3438
 4003W        W20851  11.730   3.209  12.052  0.0470 -0.1254  0.1021
 4004W        W20852   6.197  15.562  15.526  0.0904 -0.1446 -0.1930
 4005W        W20853   9.453   8.521  16.402 -0.0794  0.1109 -0.0969
 4006W        W20854  10.872   4.744   5.383  0.2654  0.0635  0.0275
 4007W        W20855   1.622   7.511  14.525  0.1145 -0.3639  0.0406
 4008W        W20856   4.746   9.948  13.379 -0.2013  0.0171 -0.0342
 4009W        W20857   4.999  10.449   3.778 -0.1548  0.1468 -0.0586
 4010W        W20858  11.766  14.681  12.656  0.3750  0.1545  0.0576
 4011W        W20859   8.240   1.939   3.064  0.0545 -0.0247 -0.0205
 4012W        W20860  12.020   2.016  17.067 -0.0502 -0.2251  0.1192
 4013W        W20861  11.411   4.902  12.291  0.1893 -0.0304  0.0516
 4014W        W20862  12.697   6.135  15.654 -0.2078 -0.0822 -0.3899
 4015W        W20863   8.873  16.899   0.918 -0.2198 -0.1110  0.1297
 4016W        W20864  15.968  13.028   1.020 -0.1799  0.2047 -0.3311
 4017W        W20865  10.152   7.207   4.148 -0.1330 -0.0883  0.3663
 4018W        W20866   5.780   8.032   1.637  0.1241  0.1567 -0.0582
 4019W        W20867  15.096  16.699   4.260  0.2172 -0.3000 -0.0233
 4020W        W20868   8.593   7.756   5.136  0.0934  0.0136  0.1068
 4021W        W20869   8.848  15.257   4.764  0.1236  0.0553  0.0082
 4022W        W20870   9.659   6.361  14.562 -0.0337  0.0147  0.2369
 4023W        W20871   8.173   3.733   4.262 -0.0692 -0.2746 -0.1890
 4024W        W20872   3.157  11.474  13.443 -0.0496  0.3790  0.1792
 4025W        W20873  14.304   3.963  12.612 -0.1792  0.1489 -0.0024
 4026W        W20874   8.676  13.788   1.079  0.1813 -0.0168  0.0249
 4027W        W20875   6.735  10.231   6.327  0.1482 -0.1728 -0.2009
 4028W        W20876  15.513  13.742  13.756  0.1659  0.0827 -0.1019
 4029W        W20877   0.861   1.823  15.875  0.1227  0.0154  0.1051
 4030W        W20878  17.155  16.690   2.036  0.0644  0.2871  0.2076
 4031W        W20879   1.879   1.454  13.601  0.0358 -0.0621  0.1814
 4032W        W20880   2.516   4.419  12.911  0.3552 -0.0019  0.1323
 4033W        W20881  12.055   4.187   0.409 -0.0603 -0.2721  0.0822
 4034W        W20882   6.121  12.694  12.931 -0.0248  0.0451  0.1067
 4035W        W20883  16.859   9.808  14.377  0.0177 -0.2079 -0.1113
 4036W        W20884   9.957   0.848  11.954  0.0754  0.1335 -0.1906
 4037W        W20885   0.884  15.474   1.446 -0.0559 -0.1219 -0.0222
 4038W        W20886  10.722  16.340  16.772  0.2848  0.1674  0.3087
 4039W        W20887   3.372   5.015   5.685 -0.0540  0.0501  0.1115
 4040W        W20888   1.200   7.288   5.160 -0.1576 -0.0058  0.1972
 4041W        W20889   9.306  13.570   2.160 -0.0107  0.0265  0.0973
 4042W        W20890   5.864   2.427   1.025  0.0688  0.2041  0.0906
 4043W        W20891   8.496  16.110  17.030  0.0097 -0.0220  0.3614
 4044W        W20892   1.924  12.445  13.766 -0.1848  0.0103  0.2006
 4045W        W20893   7.244   7.535  13.305  0.1302 -0.5072  0.1195
 4046W        W20894  16.788  10.915   4.348 -0.0450 -0.2243  0.1506
 4047W        W20895  15.652  16.851  15.377 -0.2343 -0.2484  0.1734
 4048W        W20896  13.799  11.584  14.769 -0.2154  0.0319  0.0881
 4049W        W20897  12.756  16.984  12.096 -0.1738 -0.0440  0.1681
 4050W        W20898   6.419  17.061  12.779 -0.1009 -0.3297 -0.2074
 4051W        W20899  10.819   3.502  13.193 -0.1063  0.2658  0.3461
 4052W        W20900   0.323   7.744  16.744 -0.0977 -0.0186  0.1175
 4053W        W20901   7.391   7.523  13.848 -0.3423 -0.0551  0.0617
 4054W        W20902  13.402   6.054   0.987 -0.0043 -0.1421  0.1726
 4055W        W20903   8.840   4.654  12.662 -0.0707  0.0138  0.0319
 4056W        W20904   1.422   1.326   1.360  0.2741 -0.0650 -0.1169
 4057W        W20905  10.323   1.927  14.445  0.3323 -0.2040  0.3711
 4058W        W20906   6.208   7.610   1.627 -0.0605 -0.2394 -0.0661
 4059W        W20907   2.762  15.618   4.737 -0.1127 -0.2360  0.0272
 4060W        W20908   1.103  11.937  14.111  0.1112  0.2819 -0.2112
 4061W        W20909   8.085   6.266  14.573 -0.1153 -0.2243 -0.0185
 4062W        W20910   0.978  15.913   4.830  0.0561  0.0561  0.1218
 4063W        W20911  16.660   7.883  14.998  0.0253  0.0254 -0.1296
 4064W        W20912   0.355   9.115  17.106 -0.4242  0.1478  0.2773
 4065W        W20913  10.372  15.554  16.146  0.1929  0.2834 -0.1996
 4066W        W20914  15.761   7.481  11.871  0.0105  0.2628 -0.1979
 4067W        W20915  16.583   3.405   0.268  0.0120 -0.0368 -0.1804
 4068W        W20916   1.498   8.646   2.434  0.2188  0.4067 -0.3518
 4069W        W20917   1.906   8.198  13.066  0.2449 -0.0049 -0.1839
 4070W        W20918  11.232   8.623   2.795  0.2946 -0.1432  0.2006
 4071W        W20919   4.803   1.279   0.443 -0.1132 -0.0414  0.0736
 4072W        W20920   9.627   0.877  12.502  0.0364  0.3768 -0.2765
 4073W        W20921  12.705  10.212  14.183 -0.2656 -0.1228  0.1024
 4074W        W20922   4.696  10.670   5.219 -0.0737  0.0973  0.0913
 4075W        W20923   6.349   5.479  17.400 -0.3349 -0.0192 -0.0184
 4076W        W20924   4.571   5.361  13.608 -0.3619  0.2687  0.1350
 4077W        W20925  11.035   1.871  12.014 -0.1896 -0.0168  0.0258
 4078W        W20926  13.544   3.997  17.307 -0.0278  0.3742 -0.0162
 4079W        W20927   7.884  13.700   0.244 -0.1173  0.0653  0.0666
 4080W        W20928   2.454  15.508  16.696  0.0403 -0.2826 -0.0123
 4081W        W20929   5.601  13.476  17.316 -0.1642  0.3020 -0.0052
 4082W        W20930  12.157   6.742  14.543 -0.0580 -0.2733 -0.2236
 4083W        W20931  12.621  14.169   5.722 -0.1555  0.3820 -0.0775
 4084W        W20932  12.534   8.220  16.736  0.0620 -0.1530  0.0241
 4085W        W20933   8.325   6.333  14.116  0.2607 -0.2825  0.1075
 4086W        W20934  11.759  14.250   4.767  0.2060  0.2354  0.0635
 4087W        W20935   7.953   4.162  16.556  0.4254  0.0315 -0.0772
 4088W        W20936  14.839   8.416  15.891  0.0538 -0.2005  0.2559
 4089W        W20937   6.789  13.387  14.597 -0.1713 -0.1854 -0.0439
 4090W        W20938   3.332  17.160   5.797  0.0335 -0.2495  0.1421
 4091W        W20939  12.306   9.992  16.587  0.2268  0.1933 -0.1710
 4092W        W20940  16.601  10.423  15.492 -0.0600  0.1023 -0.1631
 4093W        W20941  16.927  13.503   0.859  0.2362 -0.0430 -0.0132
 4094W        W20942  11.913  13.131   5.892 -0.2011  0.0735  0.0731
 4095W        W20943  14.777   1.651   5.022 -0.0093  0.1062  0.0927
 4096W        W20944  10.823  10.761   3.966 -0.0728  0.0659  0.1104
 4097W        W20945   1.441  11.228  15.349  0.0257  0.0710  0.1586
 4098W        W20946   4.378  11.464  16.354 -0.1183 -0.1080  0.0859
 4099W        W20947  13.225  10.152  17.532 -0.1003 -0.0669 -0.2007
 4100W        W20948  16.983  15.431   3.806  0.2781  0.2389 -0.0040
 4101W        W20949   5.802   5.809   5.832  0.2223 -0.1461 -0.0259
 4102W        W20950   9.345   3.473  13.706 -0.4152 -0.1070 -0.0281
 4103W        W20951  12.712   3.275  14.347 -0.3405 -0.0430  0.2577
 4104W        W20952  14.487  15.939  16.611 -0.0826 -0.1298 -0.1626
 4105W        W20953  10.452  15.012  15.913 -0.0914  0.1129  0.0064
 4106W        W20954  15.752   1.289   0.840 -0.0748 -0.1860  0.0636
 4107W        W20955   8.488   6.868   0.360  0.1829  0.0289 -0.5067
 4108W        W20956   9.701   6.829   2.544  0.2581  0.0500  0.5525
 4109W        W20957   5.611   3.412  17.544 -0.1809  0.2560 -0.4826
 4110W        W20958   8.356   6.531  17.763  0.1662 -0.2107  0.1911
 4111W        W20959   7.593   5.219  12.039  0.0232 -0.1582  0.0976
 4112W        W20960   5.637  10.428  15.286  0.1472  0.0299 -0.2825
 4113W        W20961   3.089  12.112   3.437 -0.1167  0.2162  0.0346
 4114W        W20962   4.452  11.601   0.263  0.0716 -0.4866  0.0866
 4115W        W20963   6.366  11.098   5.245 -0.2860  0.2441 -0.2820
 4116W        W20964   3.176   5.372   1.699 -0.0030 -0.5338  0.1862
 4117W        W20965   6.982   9.600  17.496 -0.0888  0.2055  0.0081
 4118W        W20966  15.097   5.003   2.434  0.3039  0.0489  0.1631
 4119W        W20967   2.352  13.635   3.841  0.1575 -0.1344 -0.0891
 4120W        W20968   8.755  16.147   2.798 -0.2036 -0.2239  0.1197
 4121W        W20969  14.422  13.723  14.299  0.1666  0.1363  0.0564
 4122W        W20970  15.429  10.999   2.612 -0.0506 -0.1718  0.0916
 4123W        W20971   6.350   5.025   0.955  0.1383  0.0894 -0.0348
 4124W        W20972  14.780  12.777   2.188 -0.0885  0.0676 -0.1603
 4125W        W20973  14.300  11.168   5.288 -0.4629 -0.1746  0.0730
 4126W        W20974   3.958  11.870   3.214  0.2772 -0.1718  0.1196
 4127W        W20975   3.623   4.733   4.286 -0.0004 -0.0502  0.0926
 4128W        W20976   6.963   1.246  16.885  0.1347  0.0832 -0.1916
 4129W        W20977  16.196   2.640  12.410  0.2867  0.0094 -0.0781
 4130W        W20978  14.881   1.046   4.956 -0.2442 -0.1868 -0.0030
 4131W        W20979   8.146   1.918  12.269 -0.2033 -0.2112  0.0764
 4132W        W20980  12.154   6.832  13.707 -0.1450  0.0619  0.0482
 4133W        W20981   0.514   5.987  14.039 -0.1066  0.0682 -0.1015
 4134W        W20982  14.204  15.966  14.443 -0.0955  0.1541  0.1488
 4135W        W20983   4.175  15.456   1.877 -0.0732 -0.1334  0.0275
 4136W        W20984   8.391  12.365  15.935 -0.3561 -0.1313  0.3599
 4137W        W20985   3.852   2.834   1.177  0.3532  0.0232 -0.1322
 4138W        W20986   1.545  13.997   3.442 -0.2027 -0.4783 -0.0510
 4139W        W20987   2.690  16.865   4.705  0.0334 -0.0821  0.1543
 4140W        W20988   1.662  11.761  15.411 -0.1180  0.0884 -0.0073
 4141W        W20989  12.838   2.424   3.652 -0.2160 -0.1340 -0.0628
 4142W        W20990   9.674  14.112  15.010  0.1086 -0.0754 -0.2928
 4143W        W20991  13.161   9.487  16.863 -0.0578 -0.0265  0.0085
 4144W        W20992  15.938   6.066   5.470 -0.1779  0.2043  0.2201
 4145W        W20993   3.139   1.669  12.820  0.0124  0.0477  0.2038
 4146W        W20994  10.314   9.011  16.677  0.2832  0.1555 -0.0536
 4147W        W20995   7.931  15.465  13.418 -0.0577  0.0204 -0.3073
 4148W        W20996   4.677   4.493   3.556  0.1602 -0.0206 -0.1179
 4149W        W20997   8.601   8.467   2.745 -0.3759 -0.3628 -0.1271
 4150W        W20998  14.282   4.514  14.442 -0.0531 -0.0801  0.1146
 4151W        W20999   9.976  13.015  12.962 -0.0048  0.2984 -0.0938
 4152W        W21000   6.971  14.253   3.321  0.0128 -0.0776  0.3247
 4153W        W21001   8.067  14.408   1.834 -0.0656  0.2218 -0.1111
 4154W        W21002   6.805  10.708  13.850 -0.1356 -0.1376  0.0415
 4155W        W21003   3.540  11.731  13.083  0.1789  0.1611 -0.2825
 4156W        W21004   8.670   5.478  12.208 -0.0055 -0.1166 -0.2859
 4157W        W21005  11.875  13.704   3.946 -0.2158  0.1180  0.1859
 4158W        W21006  15.366  10.403   3.076  0.0130 -0.1902 -0.1848
 4159W        W21007   4.750   5.057  17.561 -0.0253 -0.3195 -0.1665
 4160W        W21008  14.955   5.469   5.538  0.0016 -0.1683 -0.2046
 4161W        W21009  11.383   8.131  15.864  0.0568  0.0170 -0.0820
 4162W        W21010  12.683  15.485   0.244  0.1159  0.1027  0.0438
 4163W        W21011   4.412  15.089  15.222  0.1506 -0.2539 -0.0224
 4164W        W21012  12.537   7.430   5.265 -0.0305  0.1474 -0.4796
 4165W        W21013  12.709  14.526   2.422  0.0863 -0.2263  0.2130
 4166W        W21014   6.610   8.415   2.139 -0.1664 -0.0539  0.1878
 4167W        W21015  10.636   9.312   1.348  0.0434  0.3326  0.2377
 4168W        W21016  15.019  11.916   5.966  0.1776 -0.0010  0.0923
 4169W        W21017  16.813   5.117  16.689 -0.0496 -0.0142 -0.1381
 4170W        W21018   1.043   8.486   4.025  0.1561 -0.0992  0.2008
 4171W        W21019   0.569  10.087  16.110  0.0788  0.0307  0.1174
 4172W        W21020  15.665  15.411  17.210  0.0475 -0.0726  0.0203
 4173W        W21021   1.298   5.917  12.606 -0.0817  0.2763 -0.0556
 4174W        W21022   9.781  10.067  11.990 -0.0825  0.1092  0.4422
 4175W        W21023  12.567  10.136  11.719 -0.0603 -0.2271 -0.0099
 4176W        W21024  16.134  15.771   4.016  0.2329 -0.2784 -0.0652
 4177W        W21025   2.379  14.146   3.886  0.0380 -0.1460 -0.1205
 4178W        W21026   7.985   2.958  17.233 -0.2197 -0.2541 -0.0059
 4179W        W21027   0.979   8.074   0.511 -0.1462  0.0795  0.1413
 4180W        W21028   5.043   8.983   5.228  0.0717 -0.2466 -0.0345
 4181W        W21029   0.755  12.069   0.447 -0.1999  0.2662  0.1240
 4182W        W21030   7.278   7.400   6.398  0.1058 -0.1309  0.0323
 4183W        W21031  14.767  12.319  11.333 -0.1844 -0.0331 -0.0536
 4184W        W21032  12.598  11.109  14.165  0.0822 -0.2322  0.1748
 4185W        W21033  16.128  13.520   3.088 -0.0418 -0.1155 -0.3657
 4186W        W21034  13.979   0.341   4.038 -0.2417  0.0288 -0.1696
 4187W        W21035   1.718   7.043   3.357  0.0940  0.1247  0.0334
 4188W        W21036   5.656   1.199  14.420 -0.3343  0.0759 -0.1697
 4189W        W21037   7.975  11.995  16.890  0.1578 -0.3222 -0.1016
 4190W        W21038   0.744  10.697  13.151  0.1875  0.2630 -0.2590
 4191W        W21039  16.870   3.231  11.991 -0.1570 -0.0987 -0.2001
 4192W        W21040   6.779   7.951  16.021 -0.1230  0.2456  0.1171
 4193W        W21041  10.653  16.731  11.657 -0.1493  0.0028 -0.2421
 4194W        W21042  14.960  16.353  14.460 -0.1839 -0.0591 -0.2926
 4195W        W21043  12.795   5.884   0.438 -0.1969 -0.0511 -0.1869
 4196W        W21044   4.993  13.734  13.149  0.4245  0.1722  0.1955
 4197W        W21045   8.558   1.554   1.799  0.1055 -0.1401  0.3007
 4198W        W21046  10.507  13.124   5.160  0.0808 -0.0743 -0.1428
 4199W        W21047  13.396  15.599  13.811 -0.2150  0.2281 -0.1890
 4200W        W21048  16.386   7.319  12.158  0.0942  0.0175 -0.1421
 4201W        W21049   7.118  13.652  16.136 -0.0780  0.2455 -0.0090
 4202W        W21050  11.768   2.189  15.428 -0.2839  0.1685  0.3269
 4203W        W21051  14.804   4.761   4.312 -0.0522  0.5274  0.1185
 4204W        W21052  10.129  12.269   2.741  0.0660  0.0626  0.2186
 4205W        W21053   8.011   7.086   2.413 -0.4286  0.3302  0.2615
 4206W        W21054  12.362  16.673   3.888  0.1977 -0.3176  0.2301
 4207W        W21055   8.748   2.861  14.628 -0.0252 -0.1240  0.0190
 4208W        W21056   8.115   8.672  12.771 -0.1460 -0.1866 -0.2168
 4209W        W21057   3.390   6.128   5.415  0.0443  0.0216 -0.0388
 4210W        W21058   8.034  16.921  15.739  0.2534 -0.1875  0.1685
 4211W        W21059  10.769   0.404   2.033  0.3309 -0.0501  0.0120
 4212W        W21060   8.894   8.942   4.500  0.1652  0.1403  0.3033
 4213W        W21061   5.968  12.807  15.403  0.2813  0.2902 -0.0251
 4214W        W21062  10.622   5.357   2.352  0.0876  0.1189  0.0876
 4215W        W21063  12.656   6.283  16.988  0.3456  0.1091 -0.1381
 4216W        W21064   0.945   1.896  15.322  0.5288  0.3663 -0.0522
 4217W        W21065   5.315   8.169   3.653 -0.1487 -0.0573  0.2410
 4218W        W21066  14.438   9.196   5.439  0.1066 -0.0256  0.2126
 4219W        W21067   6.176  16.687   0.954 -0.0122  0.1501 -0.1498
 4220W        W21068  17.125   5.344   0.987  0.4130 -0.1579  0.1926
 4221W        W21069   2.174   4.855  15.729  0.0821  0.0448 -0.0172
 4222W        W21070   2.105  12.537   2.733 -0.0716  0.1836 -0.3545
 4223W        W21071   1.516  11.098  17.328 -0.2811 -0.0307  0.1738
 4224W        W21072   3.993   5.080   4.067  0.0916  0.0631  0.0446
 4225W        W21073   5.650   9.975  14.291  0.0364 -0.2782  0.4488
 4226W        W21074  14.597  11.105  11.333  0.1833 -0.1447  0.3192
 4227W        W21075   0.772   8.497   1.876  0.3307 -0.2274 -0.0513
 4228W        W21076  11.432  16.469   0.882 -0.2343  0.3193 -0.2976
 4229W        W21077   2.670  16.554   1.006 -0.1668 -0.1908 -0.0692
 4230W        W21078  16.398   0.601  14.603  0.1241 -0.1313  0.2752
 4231W        W21079   8.014  10.793   4.580  0.2657 -0.0004 -0.1008
 4232W        W21080   2.710   2.048  15.811 -0.1429 -0.2598 -0.1699
 4233W        W21081   8.917   4.068  15.640  0.2628 -0.1583  0.1192
 4234W        W21082  14.955   2.256   4.671  0.3265 -0.1410 -0.0268
 4235W        W21083  13.402  16.752  16.620 -0.1367 -0.2311 -0.2416
 4236W        W21084  10.756  15.600  12.955 -0.2014  0.0210 -0.2633
 4237W        W21085  11.375  10.799   1.245  0.1377  0.0708  0.1312
 4238W        W21086  10.999   8.613  13.395  0.2616  0.1348  0.0015
 4239W        W21087  16.399  15.165   5.908 -0.0024 -0.0769  0.0068
 4240W        W21088  14.264  17.075   1.752 -0.2254 -0.1558 -0.0759
 4241W        W21089  13.721   5.918   2.420  0.1002  0.0700  0.0073
 4242W        W21090   4.762   2.453   0.192  0.0279 -0.0797  0.1840
 4243W        W21091   8.517   1.075   6.283  0.2964 -0.2940 -0.0752
 4244W        W21092   8.136  14.305  16.516 -0.1140  0.0142  0.0757
 4245W        W21093  15.779   4.617  13.400 -0.2300  0.1430 -0.3002
 4246W        W21094  16.763   0.302   0.893 -0.2299 -0.0251 -0.0441
 4247W        W21095  11.622   7.997   4.751  0.0377 -0.3310  0.0036
 4248W        W21096   2.837   0.973  14.926  0.3561  0.1054 -0.1599
 4249W        W21097  12.760  10.983   2.369  0.1946  0.0178 -0.2428
 4250W        W21098   7.811   3.126  13.978  0.3400  0.0433 -0.0511
 4251W        W21099   2.047  10.248   2.216 -0.3038  0.1178 -0.2688
 4252W        W21100  11.282   5.116   1.937  0.3279  0.2205 -0.0531
 4253W        W21101   4.954   7.884   0.299  0.3022  0.0567 -0.0055
 4254W        W21102  11.853   9.940   6.308 -0.1606  0.3499  0.0860
 4255W        W21103  16.667   9.042   2.037  0.1465 -0.0173  0.0970
 4256W        W21104   0.209   9.454  14.997  0.1584  0.2053 -0.1904
 4257W        W21105   8.196   9.646   3.226 -0.0002  0.0607 -0.0156
 4258W        W21106   3.742   2.866  14.760  0.3354 -0.0407 -0.1767
 4259W        W21107   2.454   8.482   2.077  0.1413  0.1443 -0.0227
 4260W        W21108   5.141  13.066  13.193 -0.2886 -0.1074  0.2263
 4261W        W21109   6.697   2.287  17.530 -0.5683  0.2206  0.1219
 4262W        W21110   6.489   1.187  14.784 -0.4018  0.1331 -0.1692
 4263W        W21111  12.091  16.727  12.611  0.0642  0.3064 -0.1520
 4264W        W21112   2.775  13.882  17.305 -0.0127 -0.1007 -0.0428
 4265W        W21113   3.716   8.239   1.394 -0.1609 -0.0278  0.3151
 4266W        W21114   3.808  13.289  12.804 -0.1252  0.2415  0.0836
 4267W        W21115   0.199   6.431   3.909 -0.4209  0.0227  0.0349
 4268W        W21116   4.892   5.092   0.479  0.0909  0.2831 -0.1245
 4269W        W21117   5.878  13.061  17.352 -0.0725 -0.0373  0.2672
 4270W        W21118  14.261   5.906  15.233  0.0291  0.0632  0.1203
 4271W        W21119   3.682   3.463   3.353 -0.1352  0.1953 -0.0305
 4272W        W21120   9.100   5.067   4.681 -0.0800  0.0498 -0.1182
 4273W        W21121   1.518  12.467   1.534  0.0552 -0.0011  0.0017
 4274W        W21122   8.177   8.285  12.275  0.0760 -0.2089  0.0197
 4275W        W21123   8.545  13.643  15.945  0.0606 -0.0254  0.2104
 4276W        W21124  12.966   5.483  16.542  0.1550  0.2324 -0.1443
 4277W        W21125  17.118   1.014  15.370  0.3517  0.2945 -0.3093
 4278W        W21126  13.238  14.393   4.058 -0.3558 -0.2949 -0.1555
 4279W        W21127  10.965  11.106   0.340 -0.1213 -0.1337 -0.0331
 4280W        W21128   5.544   6.407  11.355  0.1625 -0.1508  0.0931
 4281W        W21129  14.653   8.786   3.163 -0.0315  0.1119  0.0245
 4282W        W21130  11.584  10.191  15.402 -0.5550 -0.1235 -0.1440
 4283W        W21131  11.313   7.802   2.590  0.0642  0.3360 -0.1758
 4284W        W21132  11.397   2.349  14.129  0.3239 -0.0634  0.0710
 4285W        W21133   8.982   5.746  11.748 -0.1221 -0.1969  0.2706
 4286W        W21134   0.633   2.232  14.359 -0.1657 -0.0924 -0.2201
 4287W        W21135  11.197  11.316  17.764  0.0186 -0.2527 -0.1058
 4288W        W21136   1.005  15.342   3.639 -0.1570  0.2655  0.0266
 4289W        W21137  10.333   1.394  14.677  0.0013  0.3288  0.2905
 4290W        W21138  13.834   1.846  12.290 -0.1366 -0.1742  0.1037
 4291W        W21139   4.384  10.181  17.070  0.0648  0.1047 -0.2552
 4292W        W21140  12.561   4.290   1.658 -0.2482  0.2002 -0.0807
 4293W        W21141   6.747  12.638   0.971  0.1298  0.0821 -0.0755
 4294W        W21142   7.244  12.660  15.433  0.0492  0.1429  0.2984
 4295W        W21143   7.221  15.517  17.637 -0.1903  0.1921  0.0585
 4296W        W21144   5.496   8.762   2.748 -0.3298 -0.0926 -0.2018
 4297W        W21145  15.997   8.283   5.404  0.1732 -0.3551 -0.0089
 4298W        W21146   7.362   6.298   5.558  0.2979 -0.0059  0.1229
 4299W        W21147   2.568  12.503   1.916 -0.0217 -0.0958 -0.0692
 4300W        W21148  10.584   2.411  15.902 -0.1204 -0.0304 -0.1818
 4301W        W21149  12.739   0.556   1.932 -0.1652 -0.0019  0.0203
 4302W        W21150   8.941  11.713  16.293 -0.1935 -0.1852  0.0338
 4303W        W21151   6.032   5.319  14.595 -0.0779 -0.0610  0.0610
 4304W        W21152   4.596   6.789   6.815  0.2630 -0.0843  0.0642
 4305W        W21153   3.373   6.544   0.788  0.2828 -0.0116 -0.3288
 4306W        W21154  15.829   5.717  15.905 -0.1473  0.0634 -0.0870
 4307W        W21155   9.914  11.233  17.192  0.1720 -0.1759 -0.2630
 4308W        W21156   7.226  11.734   1.095  0.3714  0.2450  0.1155
 4309W        W21157  10.966  10.716  15.023  0.0123  0.2796  0.2178
 4310W        W21158  14.373   7.513  13.486  0.0518 -0.0484 -0.0703
 4311W        W21159  16.367   9.546  11.383 -0.1113  0.0716  0.1313
 4312W        W21160  14.265  14.192   5.234 -0.2884 -0.2368 -0.0571
 4313W        W21161   8.841  11.288   5.277  0.1083 -0.1630  0.2170
 4314W        W21162   8.045  16.898  13.893  0.0396 -0.1269  0.0539
 4315W        W21163  15.014   1.503   3.307  0.3536  0.1150  0.2989
 4316W        W21164  16.052  15.081   4.730  0.0854 -0.1889  0.1173
 4317W        W21165   2.676   1.343   6.084 -0.1002 -0.1421  0.0446
 4318W        W21166  10.332   8.099   2.461 -0.0610 -0.0375 -0.3259
 4319W        W21167   0.763  16.212   3.161 -0.1627  0.0026  0.1816
 4320W        W21168   5.035   3.388   1.158 -0.1066  0.0674  0.2785
 4321W        W21169  11.383  14.389  17.163 -0.1132  0.0557  0.0578
 4322W        W21170   7.890   7.474   0.147  0.3356 -0.0467 -0.0397
 4323W        W21171   3.150   4.199   2.361 -0.1268  0.0088 -0.0668
 4324W        W21172  10.171   3.060   4.631  0.3473  0.4124 -0.0596
 4325W        W21173   7.143  13.481  14.205  0.0719 -0.3975  0.1015
 4326W        W21174  14.188   9.100   3.914 -0.0308 -0.0047 -0.0644
 4327W        W21175   0.301  11.236   5.547 -0.0521  0.1045  0.2827
 4328W        W21176   3.364  11.594   5.310  0.1200  0.0408 -0.1813
 4329W        W21177   6.725   8.747  12.188 -0.4479  0.0046  0.0981
 4330W        W21178   4.953   6.451  15.489  0.0328 -0.1342  0.1640
 4331W        W21179   8.414   8.984  12.016  0.2135 -0.1258  0.2463
 4332W        W21180   9.483  12.946  12.023  0.0129 -0.0366  0.1281
 4333W        W21181   8.998  15.281  12.263 -0.0095  0.2137 -0.0627
 4334W        W21182   9.286  10.949   2.263  0.1147  0.2910 -0.3612
 4335W        W21183  15.952   8.166   4.110  0.2026 -0.1170 -0.3394
 4336W        W21184   6.017  15.806   0.928  0.0307 -0.2528 -0.2466
 4337W        W21185  12.863   7.816   4.401  0.2735 -0.0020 -0.0499
 4338W        W21186  16.659   8.055  13.677 -0.0428 -0.2802 -0.4100
 4339W        W21187  12.612   7.263   0.442  0.0299 -0.0591  0.2156
 4340W        W21188   4.366   5.298   3.091  0.1837  0.0526 -0.2918
 4341W        W21189  15.028   4.523  11.975  0.1436 -0.0720 -0.0010
 4342W        W21190  12.933   7.618   1.300 -0.1537  0.2052 -0.0984
 4343W        W21191   4.847  12.307  12.926  0.0147  0.1001 -0.0247
 4344W        W21192  11.954   9.954  12.391  0.1786  0.1467  0.1324
 4345W        W21193   7.796   6.955  16.041 -0.0567  0.2848  0.1603
 4346W        W21194  15.860  11.385   0.813  0.0018  0.3961 -0.1851
 4347W        W21195   1.799  16.530   5.012 -0.0553  0.1688 -0.1787
 4348W        W21196  13.462  12.347   3.458 -0.2278 -0.2504 -0.0324
 4349W        W21197  11.934   0.157  16.338  0.0164  0.0051  0.1422
 4350W        W21198  16.463  11.905  17.423  0.0197 -0.0928  0.0094
 4351W        W21199   7.619   6.641   1.981 -0.1088  0.2135 -0.1328
 4352W        W21200  16.329   1.275  14.060 -0.0831 -0.2393 -0.1803
 4353W        W21201  12.152  12.316   1.634  0.1045 -0.0045  0.0203
 4354W        W21202   5.023  14.100   1.153 -0.2143  0.1542 -0.1189
 4355W        W21203  10.516   9.265  15.358 -0.1395 -0.1937 -0.2900
 4356W        W21204   5.286   5.953  16.697 -0.2036  0.5615  0.0120
 4357W        W21205  14.077   0.821   3.900 -0.1957  0.1994 -0.1661
 4358W        W21206  10.737  14.458  13.194 -0.0172  0.0098 -0.0614
 4359W        W21207   1.937  16.847  16.455  0.3216 -0.1242 -0.1281
 4360W        W21208  15.247   8.627  14.792 -0.3639 -0.2594  0.0756
 4361W        W21209   6.013   0.416   5.547 -0.0808 -0.2934 -0.3096
 4362W        W21210  14.349   2.382   0.919 -0.0515 -0.3182 -0.0510
 4363W        W21211   4.559  16.044  13.579  0.0416  0.0600 -0.3045
 4364W        W21212  13.462   5.292  12.255  0.2076  0.2353  0.2785
 4365W        W21213  10.422  16.264  17.219 -0.1433 -0.0013  0.0599
 4366W        W21214   2.227  16.758   5.968 -0.2494 -0.0954 -0.0267
 4367W        W21215  12.779  11.714   5.393  0.0092 -0.0216 -0.0355
 4368W        W21216  12.061   9.706  13.754 -0.1798  0.0146 -0.0599
 4369W        W21217   2.715   7.619   1.268  0.4130  0.3930 -0.0136
 4370W        W21218  17.166   5.634  16.148  0.0964 -0.1960  0.0868
 4371W        W21219   6.300   6.982   2.193 -0.1931 -0.3858  0.1787
 4372W        W21220  15.251   7.466  13.500  0.0164 -0.2271  0.2673
 4373W        W21221  13.809  13.660   4.600 -0.0038 -0.0433  0.4428
 4374W        W21222  11.236   3.766   2.788  0.0442 -0.1573  0.0186
 4375W        W21223   4.354  16.859   5.544 -0.0199  0.0619  0.2053
 4376W        W21224   0.207   0.165   0.853  0.0392 -0.1019  0.4739
 4377W        W21225  14.445  14.923  16.892  0.0499  0.1364  0.1189
 4378W        W21226   3.934   5.899   4.924  0.2760  0.3132 -0.0193
 4379W        W21227   7.231  13.538   1.580  0.0672 -0.0651 -0.2411
 4380W        W21228   3.759   1.793   5.078  0.1061 -0.2088 -0.0330
 4381W        W21229  12.058  10.694  15.213 -0.2608  0.0374  0.1713
 4382W        W21230  14.014   8.586   1.607  0.1507  0.0378  0.2529
 4383W        W21231  16.979   1.411   4.695  0.0145 -0.3407 -0.1377
 4384W        W21232   1.763   9.044   2.814 -0.2112  0.2270 -0.2176
 4385W        W21233   8.197   0.592  14.553 -0.1146  0.0189 -0.1677
 4386W        W21234  15.090   0.705  17.266  0.0977 -0.2232 -0.2405
 4387W        W21235  15.004   3.369   1.219  0.0850  0.4993 -0.0978
 4388W        W21236   9.112   8.557  16.044  0.2658 -0.1206  0.1526
 4389W        W21237   5.736  15.653   0.605  0.1468  0.1745  0.1868
 4390W        W21238   8.808   9.814  15.940 -0.0175 -0.1414 -0.1004
 4391W        W21239   5.579   0.638  14.390  0.0769 -0.3050 -0.1744
 4392W        W21240   4.791   3.072   1.920  0.0620 -0.1049  0.0545
 4393W        W21241  12.319   0.616   3.037 -0.2356  0.0290  0.0376
 4394W        W21242   3.468   4.109  17.125  0.4311  0.0171  0.0556
 4395W        W21243  13.634   5.181   4.838 -0.0178  0.0406 -0.4258
 4396W        W21244   7.726  10.041   5.234 -0.0650 -0.2972  0.0917
 4397W        W21245   2.990  14.068  12.743 -0.4178  0.0942  0.1488
 4398W        W21246   0.165   0.959   2.926 -0.2125  0.0077 -0.1441
 4399W        W21247  16.211  14.303   5.336 -0.0503 -0.4810  0.3493
 4400W        W21248   0.381  12.563  17.239  0.0440 -0.0149 -0.1717
 4401W        W21249   4.117   9.386  12.584 -0.1738 -0.0032  0.0115
 4402W        W21250   8.122  13.370   3.697 -0.2756  0.1173 -0.0821
 4403W        W21251  17.161   9.548  12.855  0.0762 -0.1849  0.1055
 4404W        W21252  12.340  13.591  16.343  0.0932  0.2402 -0.0621
 4405W        W21253  15.924   9.683   4.288  0.2847  0.1019  0.1332
 4406W        W21254  10.849   0.161  12.685 -0.3612 -0.0696 -0.0388
 4407W        W21255   8.723   8.205   6.405 -0.1353 -0.2086 -0.0851
 4408W        W21256   1.164   4.047  12.033  0.3063 -0.2144 -0.1089
 4409W        W21257   7.173  11.556  15.732  0.1712 -0.2396 -0.1176
 4410W        W21258  12.280  15.712   3.454  0.2475 -0.0270 -0.3218
 4411W        W21259   3.722   6.626   2.204  0.2792  0.1994  0.1007
 4412W        W21260   9.200   7.465  13.640 -0.1174 -0.0609  0.3518
 4413W        W21261   9.918   1.759  12.750  0.0663  0.1265 -0.3162
 4414W        W21262   6.465   7.344   0.204  0.0161  0.0341  0.1133
 4415W        W21263   4.733   3.638   0.822 -0.0117  0.1198 -0.0805
 4416W        W21264  10.105  17.157  12.082 -0.0073 -0.0668 -0.3698
 4417W        W21265  10.452  14.737   1.074 -0.0396  0.0705 -0.1547
 4418W        W21266  11.327   1.498  16.258  0.0924 -0.1534  0.3231
 4419W        W21267  16.682   3.674   0.697 -0.2544  0.0627  0.0142
 4420W        W21268  15.291   3.249  14.792  0.0967  0.1369 -0.0593
 4421W        W21269   1.351   9.135  14.382 -0.2588  0.0246  0.3809
 4422W        W21270  14.541   0.203  17.667 -0.1576  0.2672 -0.1175
 4423W        W21271   1.242   5.695  13.814 -0.0420 -0.1189 -0.0278
 4424W        W21272   3.862   7.175   1.419  0.0602 -0.1898 -0.1001
 4425W        W21273  11.656   6.920  17.312 -0.0226 -0.1255 -0.3615
 4426W        W21274  15.032  12.989   2.604  0.1853 -0.0521  0.0050
 4427W        W21275  15.526   0.754  14.196 -0.0541  0.0388  0.3267
 4428W        W21276  12.534   4.183  12.339  0.0980 -0.1544  0.1230
 4429W        W21277  16.273   6.964  12.536 -0.2406 -0.1451 -0.0808
 4430W        W21278  14.731  10.217  13.964  0.2727 -0.0448  0.1665
 4431W        W21279   4.111   8.208  12.190 -0.1665  0.0937  0.0685
 4432W        W21280  14.579   0.968  13.863 -0.2403  0.0898 -0.3864
 4433W        W21281  14.261   9.216   1.606 -0.0480  0.1342  0.1990
 4434W        W21282   1.810   5.291  12.688 -0.1160  0.2024  0.0959
 4435W        W21283  12.715   0.590  14.303  0.0227 -0.2094 -0.3654
 4436W        W21284  15.190   1.723   0.736 -0.0605  0.1232  0.1329
 4437W        W21285  17.122  11.430  15.185 -0.0348  0.0880 -0.1375
 4438W        W21286   3.417  11.332  16.200 -0.0630 -0.1126 -0.3350
 4439W        W21287   2.207   8.609   7.104 -0.2465  0.0389  0.1409
 4440W        W21288   1.400   6.904   1.111 -0.1973 -0.0121  0.0498
 4441W        W21289  13.972   8.702  14.677 -0.2413 -0.3221  0.0335
 4442W        W21290   5.309   1.844  16.540  0.0458 -0.2509  0.0667
 4443W        W21291   7.333  17.100  12.603 -0.2078 -0.0128 -0.1746
 4444W        W21292  12.078   8.585   4.940 -0.0773  0.1120 -0.1431
 4445W        W21293   8.662   3.361  15.930 -0.1156  0.0508  0.2903
 4446W        W21294   5.512   4.856  16.184 -0.0133 -0.0427  0.0247
 4447W        W21295   0.275  15.125   1.681 -0.0803  0.1608 -0.2466
 4448W        W21296  11.263   6.302   4.288 -0.0064  0.2085  0.1198
 4449W        W21297   5.747  11.618   3.481 -0.2691 -0.0285 -0.1006
 4450W        W21298   3.166   3.419  16.531  0.2329 -0.1334 -0.1084
 4451W        W21299  10.685   6.235  14.439  0.0610 -0.3970 -0.0479
 4452W        W21300   2.075  16.257   3.203 -0.0376 -0.4967 -0.1684
 4453W        W21301  16.333   7.452  17.578  0.0003  0.1284 -0.4348
 4454W        W21302   8.095  14.030  13.685  0.3478 -0.0453 -0.2012
 4455W        W21303  12.723   0.285   0.385  0.0419 -0.0596  0.0452
 4456W        W21304  10.179   9.315  16.226  0.1085 -0.0594 -0.2038
 4457W        W21305   1.700  16.281  12.932  0.1145  0.1300 -0.2609
 4458W        W21306   6.868   8.587  14.435 -0.0410 -0.2083  0.0670
 4459W        W21307  13.028  10.306  15.877 -0.0775  0.0759  0.1476
 4460W        W21308  15.969   6.862   4.468  0.1203 -0.1151  0.2873
 4461W        W21309   3.813   3.761   4.359  0.1992 -0.0058 -0.1571
 4462W        W21310   5.555   3.114  12.377  0.3261 -0.3834  0.1119
 4463W        W21311   4.995   9.729   5.902 -0.2990 -0.3637  0.2084
 4464W        W21312   2.490  15.803   5.209 -0.1153  0.1507  0.3235
 4465W        W21313   5.168  11.448   0.043 -0.0558  0.1817  0.1704
 4466W        W21314   2.017  11.308   3.569  0.3330  0.1240  0.1661
 4467W        W21315   9.822   8.304   4.026  0.4251 -0.3266  0.0875
 4468W        W21316   5.766   2.922   2.325 -0.0549 -0.2156 -0.1776
 4469W        W21317   7.004   3.280   1.818 -0.0328 -0.1778  0.2247
 4470W        W21318  11.654   0.081   3.938  0.1426  0.0679  0.1489
 4471W        W21319  16.999  10.798   1.951  0.1373 -0.1742  0.2658
 4472W        W21320  14.355   4.405  16.641 -0.1188  0.1369  0.2525
 4473W        W21321   9.776   1.894  17.078 -0.0039  0.3153 -0.0771
 4474W        W21322   8.226   3.800   0.655 -0.1141  0.1112 -0.2018
 4475W        W21323   0.816   6.611   4.221 -0.1260 -0.0786  0.0552
 4476W        W21324   1.366   7.522  13.363  0.2945  0.0691 -0.1865
 4477W        W21325   9.709   7.588   4.818  0.2230  0.2472 -0.0074
 4478W        W21326   8.394   8.182   0.895 -0.2921 -0.4360 -0.1333
 4479W        W21327   3.520  13.639  15.455  0.3202 -0.0115  0.3679
 4480W        W21328  16.722  10.596  13.653  0.0347  0.1520  0.1776
 4481W        W21329   8.139   3.572  15.629  0.2593 -0.0088 -0.1947
 4482W        W21330   5.657  13.151   4.469 -0.0855 -0.0104 -0.0663
 4483W        W21331  10.900   1.978  14.379  0.1627 -0.0614  0.1923
 4484W        W21332   0.655   1.335  15.931 -0.2662 -0.1220  0.3411
 4485W        W21333   6.117  10.126  17.539  0.1350  0.2350 -0.2786
 4486W        W21334  10.680   0.634   0.114 -0.0116 -0.1032 -0.2072
 4487W        W21335   8.909  13.045  14.946 -0.1133  0.2384  0.1255
 4488W        W21336   3.352  10.283   1.629  0.2345 -0.2193 -0.0865
 4489W        W21337  16.030   6.098  15.633 -0.0303  0.0114 -0.1975
 4490W        W21338   8.702   5.946  14.064  0.2264 -0.1237  0.2338
 4491W        W21339   4.472   0.114   0.108  0.0542 -0.1351  0.1202
 4492W        W21340  12.648   4.425  16.937  0.0514  0.1121  0.4286
 4493W        W21341   0.410   4.465   3.938  0.1214 -0.2484  0.1813
 4494W        W21342   4.484   9.669   3.916  0.0161  0.0735 -0.1400
 4495W        W21343   2.970  13.778  15.025 -0.1471 -0.0678 -0.5980
 4496W        W21344  13.681   6.630  15.760 -0.0945 -0.0321 -0.4422
 4497W        W21345  14.770  14.872   5.162  0.3562 -0.1250 -0.1669
 4498W        W21346   9.114  14.888  13.824  0.1833  0.0875  0.2199
 4499W        W21347  14.405  16.640  11.922  0.1820 -0.3337  0.0495
 4500W        W21348   9.117  15.023   0.089  0.0576 -0.3791  0.1896
 4501W        W21349   3.755   1.992  13.825 -0.3491  0.0564 -0.2044
 4502W        W21350  13.425   3.118   0.434 -0.0626 -0.0431 -0.0773
 4503W        W21351  16.657   4.975   0.776  0.2659  0.0080  0.2426
 4504W        W21352  10.981   1.032   0.239 -0.2014 -0.1639 -0.1431
 4505W        W21353   6.397   8.188  16.258  0.0278  0.2001 -0.1583
 4506W        W21354  10.308   7.213   1.706 -0.4297  0.2367 -0.0073
 4507W        W21355   6.459   8.365   2.807  0.0547 -0.3371 -0.0403
 4508W        W21356   1.484   1.805   2.800  0.0468  0.1928 -0.0521
 4509W        W21357   4.895  16.724   5.195 -0.3069  0.0797 -0.0636
 4510W        W21358  10.655   9.753   2.257  0.2820  0.0113  0.1258
 4511W        W21359  10.805   3.190  14.397  0.0820 -0.0836 -0.0331
 4512W        W21360   8.720   6.983   1.201  0.0091 -0.0357  0.0262
 4513W        W21361   0.084   7.279   4.864 -0.0605  0.0917 -0.1924
 4514W        W21362  16.901   6.905  16.409  0.1068 -0.1884  0.0050
 4515W        W21363  13.968   4.552   1.620  0.0007  0.1091 -0.1061
 4516W        W21364  10.017   4.261  17.191  0.4208 -0.1945  0.1693
 4517W        W21365   0.769  10.305   1.434  0.0582 -0.2708 -0.3413
 4518W        W21366  12.370  16.851  16.295  0.2021 -0.0721  0.1212
 4519W        W21367   9.496  10.897   6.420  0.1092 -0.1927 -0.3666
 4520W        W21368  15.976   5.675   5.163  0.0772 -0.2237  0.0006
 4521W        W21369  12.453  13.752  14.889  0.0604 -0.4574  0.2353
 4522W        W21370   6.601   8.396  15.840  0.0750  0.0631  0.1394
 4523W        W21371  12.980  16.064  12.754 -0.0762 -0.1484  0.1152
 4524W        W21372  10.851  15.843  13.441  0.0148  0.6291 -0.0672
 4525W        W21373  12.557  15.099  13.702 -0.1373 -0.0103 -0.3171
 4526W        W21374   7.662   7.155   1.122  0.2206  0.1927  0.0440
 4527W        W21375   5.217  17.138  14.106  0.1428  0.0073  0.4209
 4528W        W21376  16.114  16.624   1.741 -0.0136  0.0263  0.1482
 4529W        W21377   4.489  10.537   0.339 -0.0709 -0.1315  0.3190
 4530W        W21378  14.465   9.992  17.335  0.2981  0.0365  0.0537
 4531W        W21379  13.589  12.906   1.065 -0.0212 -0.0139 -0.0726
 4532W        W21380   3.304  15.326  17.016  0.0328 -0.1441  0.3200
 4533W        W21381  16.591  17.016  16.227 -0.1173  0.1310  0.0553
 4534W        W21382  11.834   4.614  15.191  0.0506 -0.1616 -0.1337
 4535W        W21383   4.492   4.090   2.905  0.3049  0.1551 -0.1240
 4536W        W21384   2.628  13.026  16.885 -0.2821 -0.2146  0.1014
 4537W        W21385   9.005   8.740  15.550  0.1091 -0.0614  0.1202
 4538W        W21386   8.698   0.608  16.956  0.1414  0.0663 -0.2167
 4539W        W21387   5.563  11.054  13.255  0.0759  0.0982  0.1523
 4540W        W21388  14.001  15.845  16.909 -0.0169 -0.1947 -0.1363
 4541W        W21389   7.858  13.564  13.885  0.0785  0.2921 -0.0817
 4542W        W21390  15.789  10.701  17.638  0.0522 -0.0197  0.1474
 4543W        W21391   2.342   7.870   4.296 -0.0131 -0.0192 -0.1466
 4544W        W21392   4.255   9.226   1.570 -0.2764 -0.2893 -0.1289
 4545W        W21393   5.790   2.750  13.594  0.0820  0.3272  0.1276
 4546W        W21394  13.281   5.666  14.223 -0.0346 -0.1548  0.1061
 4547W        W21395   8.053   5.518   0.764 -0.0052  0.1200  0.1055
 4548W        W21396  12.149   1.788  15.386 -0.1034 -0.0201  0.0493
 4549W        W21397   9.879   9.958   0.972  0.0973  0.1639 -0.0418
 4550W        W21398  13.612   4.452  12.571  0.1479 -0.1264 -0.1855
 4551W        W21399  16.610  10.488  14.972  0.4141  0.0676 -0.2511
 4552W        W21400  12.157   9.412  17.685  0.2731 -0.0642  0.0764
 4553W        W21401  15.575  11.836   4.244  0.1500  0.1117 -0.1383
 4554W        W21402   3.880  16.307   4.265  0.0483  0.1906 -0.0649
 4555W        W21403  13.166   3.027  12.671 -0.0868 -0.3346  0.1245
 4556W        W21404  12.065   9.833   5.456 -0.3173 -0.0498 -0.4836
 4557W        W21405  13.494  14.727   5.190 -0.0881 -0.4337  0.2567
 4558W        W21406   4.289   9.665   4.385 -0.0239  0.1012  0.0478
 4559W        W21407   2.393  12.600   3.939 -0.3208  0.0813  0.0570
 4560W        W21408   8.990   8.862  12.226  0.1543  0.0803  0.0266
 4561W        W21409   8.650  13.002  12.439  0.2148  0.1429  0.1629
 4562W        W21410  10.594   8.182   5.572 -0.2675 -0.1128 -0.1225
 4563W        W21411  10.688   9.831  14.761 -0.0210 -0.0352 -0.0237
 4564W        W21412  14.537   1.832   1.180  0.2815  0.0821 -0.0805
 4565W        W21413   6.422   4.825   4.369 -0.1339 -0.0560 -0.1041
 4566W        W21414  12.764  13.120  12.921 -0.0342 -0.1019 -0.2049
 4567W        W21415   7.452   3.421   3.738  0.0505  0.0320  0.1178
 4568W        W21416   2.135  10.342  13.288  0.0070  0.0297  0.0412
 4569W        W21417  14.255   4.313   1.085 -0.1001 -0.3185  0.0846
 4570W        W21418  14.626   2.167   2.945 -0.0402 -0.1468 -0.1616
 4571W        W21419  15.077  10.416   3.781  0.0991  0.2596  0.0302
 4572W        W21420   6.152  11.869   0.645 -0.2359 -0.2029  0.0765
 4573W        W21421   2.903  11.021   3.224  0.0657  0.3256  0.0899
 4574W        W21422   4.478   4.656  15.887  0.1600 -0.1005 -0.3935
 4575W        W21423   4.254  13.795   1.077  0.2698 -0.0871 -0.0941
 4576W        W21424  11.681   9.596   1.627  0.1815 -0.0116  0.0180
 4577W        W21425   8.002  14.991  13.333 -0.0439  0.3320  0.1200
 4578W        W21426  16.492   8.381  14.990 -0.0158  0.2201 -0.0304
 4579W        W21427   9.302   9.052   3.194  0.2240 -0.2195 -0.1027
 4580W        W21428   2.053   2.450  16.729  0.1746  0.1133  0.0441
 4581W        W21429   2.774   6.952  14.114 -0.0796  0.1036  0.0462
 4582W        W21430   5.954  10.071   4.118 -0.2524 -0.1465  0.1115
 4583W        W21431   5.197   2.154   2.600 -0.2227 -0.2305  0.2913
 4584W        W21432   9.236   5.631  15.443  0.1843 -0.0509  0.0941
 4585W        W21433  15.805   7.774   2.919 -0.1557  0.1396  0.1955
 4586W        W21434  14.666   3.686  12.941 -0.2801  0.3128 -0.3636
 4587W        W21435   9.700  14.882   3.995  0.0351 -0.0800  0.0399
 4588W        W21436  12.030  10.338   0.212 -0.0967 -0.0388  0.2328
 4589W        W21437   3.519   1.742  15.254 -0.3115 -0.0706 -0.0402
 4590W        W21438  13.516  16.441   5.419 -0.0241 -0.0219  0.0805
 4591W        W21439   1.499   7.042   5.605  0.0456 -0.0947 -0.5260
 4592W        W21440  16.437   5.361  14.824  0.0962 -0.0523  0.0620
 4593W        W21441   1.182  12.198  17.285  0.1900  0.0843  0.0836
 4594W        W21442   5.616   2.436   4.879  0.1316  0.3594  0.0686
 4595W        W21443  15.800   8.013  12.932 -0.2142  0.1589 -0.0383
 4596W        W21444  17.058   4.945   4.495 -0.0782 -0.1911  0.0450
 4597W        W21445   2.696   8.155   0.607 -0.0710  0.0557 -0.2680
 4598W        W21446   0.178   3.460   3.728 -0.0300  0.3426 -0.0757
 4599W        W21447   0.030  10.830  14.432  0.1968 -0.1368  0.0618
 4600W        W21448  13.504  10.525  13.391  0.1259  0.2175  0.1401
 4601W        W21449  14.523  10.883   1.064  0.3021  0.0567 -0.2171
 4602W        W21450   1.893   7.717  13.999 -0.0145 -0.0319  0.2382
 4603W        W21451   5.914   3.668   3.634  0.0875 -0.0396 -0.1360
 4604W        W21452   8.745  12.570   2.502 -0.0256  0.1311  0.3050
 4605W        W21453  10.897   7.850   3.253  0.0808 -0.1590  0.1462
 4606W        W21454   2.069   0.384   4.989 -0.3204  0.2166 -0.0281
 4607W        W21455   2.725   9.281  12.747 -0.0729  0.1104  0.1198
 4608W        W21456   6.585   5.417  14.605  0.0441  0.1746 -0.0351
 4609W        W21457   1.937  14.895   6.075 -0.1816 -0.2768  0.0932
 4610W        W21458   9.793   4.827   2.955 -0.0390  0.0446  0.1067
 4611W        W21459   8.519   8.531   4.682 -0.0433  0.1516 -0.0729
 4612W        W21460   1.682   9.184   6.036  0.0817  0.0365  0.0200
 4613W        W21461   9.909  15.871  16.752 -0.0139 -0.3511 -0.1760
 4614W        W21462   9.116   1.981  17.349 -0.2521  0.1648  0.1059
 4615W        W21463   0.325  11.226   4.321 -0.2821 -0.1948 -0.0939
 4616W        W21464   0.924  16.428   2.320  0.2340 -0.2381 -0.1825
 4617W        W21465  10.896   9.655  15.204 -0.2932  0.2268 -0.1631
 4618W        W21466  14.568   0.698   5.103 -0.2901 -0.1159 -0.1071
 4619W        W21467   6.694  12.171   3.356  0.2868  0.4448  0.1090
 4620W        W21468   0.311  10.540   1.201 -0.2120 -0.1476 -0.2285
 4621W        W21469  10.488   7.739  14.294  0.0541  0.1493 -0.0479
 4622W        W21470  14.672   5.381  14.461  0.1896 -0.0762 -0.1386
 4623W        W21471   4.722  12.000  16.486  0.2287  0.1851  0.2449
 4624W        W21472   3.880  16.959  17.146 -0.2106  0.0020  0.0587
 4625W        W21473  14.891  15.720   5.547 -0.1579 -0.0589 -0.1502
 4626W        W21474   6.972  13.657   5.097 -0.3609  0.0716  0.2118
 4627W        W21475   2.845  13.045  12.735  0.2439  0.3721  0.0015
 4628W        W21476   6.756   2.636  13.000  0.1509  0.2160 -0.4479
 4629W        W21477   2.817   4.431   2.681 -0.1040  0.0386  0.1737
 4630W        W21478  15.802   3.801   3.826 -0.1104 -0.0295 -0.1127
 4631W        W21479  13.225  11.153   2.941 -0.0952  0.3576 -0.1254
 4632W        W21480   6.605  17.142   3.119  0.0545  0.2908  0.2062
 4633W        W21481   2.389   4.330   1.906  0.0537 -0.0969  0.1310
 4634W        W21482   5.571   8.117  15.897 -0.0692 -0.1565 -0.2277
 4635W        W21483  13.112  13.427   1.838  0.1669  0.2102  0.0205
 4636W        W21484  13.517   1.702  12.683  0.0279  0.1722  0.3330
 4637W        W21485  15.246   5.523   3.523  0.0553 -0.1364 -0.1885
 4638W        W21486   7.486  15.434   5.239 -0.1920 -0.2886 -0.0871
 4639W        W21487  14.325   5.197   4.195  0.1534  0.0505 -0.2288
 4640W        W21488   3.867   7.845   6.827  0.2849  0.0749 -0.2300
 4641W        W21489  16.278   9.641   5.697 -0.1086 -0.1649  0.1594
 4642W        W21490  11.657   8.566   4.187 -0.0694  0.1193 -0.0000
 4643W        W21491  16.011   7.500  16.060 -0.2049  0.0253  0.2741
 4644W        W21492   4.450   8.023  15.492  0.0189 -0.2214 -0.2280
 4645W        W21493   2.940  13.611  14.401 -0.2672 -0.0853  0.0104
 4646W        W21494   9.713   3.149  15.136  0.3509  0.2671  0.2778
 4647W        W21495  14.848   8.163   2.765  0.0061 -0.0672 -0.0073
 4648W        W21496   6.194   9.600  16.663  0.0439  0.3062 -0.0570
 4649W        W21497   4.749   0.253  16.879  0.1387 -0.1575  0.1885
 4650W        W21498   0.063  14.739   5.057 -0.0086 -0.2033 -0.2713
 4651W        W21499  15.197   4.009  12.154 -0.1648 -0.1738  0.1010
 4652W        W21500  14.025  11.853  13.919  0.0066 -0.0199 -0.1644
 4653W        W21501  11.015   0.961  17.019  0.1640  0.0921 -0.0116
 4654W        W21502  12.421  14.563   1.497  0.3259 -0.0598  0.0034
 4655W        W21503  12.185  17.056  14.070 -0.1914 -0.0698  0.0292
 4656W        W21504   8.263  13.364  15.624  0.0647  0.3651  0.0135
 4657W        W21505   1.439  13.261  16.523 -0.1822  0.1185 -0.2504
 4658W        W21506   5.717   6.842  13.124 -0.1064 -0.2277  0.1654
 4659W        W21507  13.002  15.598  12.507 -0.3509  0.0999  0.2885
 4660W        W21508   3.008  15.312   5.744  0.0887  0.0535  0.1242
 4661W        W21509  16.743   1.086  13.124  0.0396 -0.1831  0.3637
 4662W        W21510   2.702   9.467  14.188  0.2623  0.1100  0.2188
 4663W        W21511  16.371  11.955   5.418 -0.1905 -0.0668 -0.1089
 4664W        W21512   2.747   8.101  13.500 -0.2650  0.1511 -0.1409
 4665W        W21513  10.968  12.271  16.527 -0.1519  0.1248  0.1224
 4666W        W21514   4.418   8.598  13.444  0.1832  0.1550  0.0937
 4667W        W21515   4.391   8.517   1.617 -0.1144 -0.0090  0.3818
 4668W        W21516   5.181   3.312   0.098  0.2081 -0.1742 -0.0824
 4669W        W21517  12.599   9.434   1.741  0.1016  0.1571  0.1871
 4670W        W21518   0.376  10.270   2.556 -0.0369 -0.1822 -0.0248
 4671W        W21519  16.343  16.947   3.899  0.0145 -0.1835 -0.0176
 4672W        W21520  16.370   4.426   0.109 -0.0250  0.2866 -0.1165
 4673W        W21521   3.760  11.677   3.673  0.0355 -0.0577 -0.1237
 4674W        W21522   5.484   1.259   3.019 -0.3535 -0.1429  0.0180
 4675W        W21523  10.563   2.203  14.063 -0.1994 -0.3204 -0.2389
 4676W        W21524   7.612   8.437  15.596 -0.3316 -0.1977 -0.1318
 4677W        W21525  15.565  11.390  13.451 -0.1310 -0.0091  0.0128
 4678W        W21526   9.415   6.818   0.779  0.2725  0.2589 -0.3182
 4679W        W21527   9.050   6.191  15.372 -0.3185  0.1703 -0.0097
 4680W        W21528  11.439  15.953   3.660  0.0876 -0.0841  0.0743
 4681W        W21529   0.217  13.544  17.254 -0.0529 -0.0149 -0.1820
 4682W        W21530  11.837  16.891   2.221 -0.0874 -0.0993  0.1329
 4683W        W21531   5.256   1.886   1.295  0.1983  0.1679 -0.0650
 4684W        W21532  15.314   4.044   2.018 -0.2068  0.0975 -0.2682
 4685W        W21533   4.465   4.243  12.144  0.1809 -0.2409  0.0586
 4686W        W21534   9.536   7.490  12.690 -0.0681 -0.2527 -0.0556
 4687W        W21535  13.718   4.099  14.985 -0.0512 -0.2287  0.0556
 4688W        W21536  12.989  13.216   5.519  0.0919  0.0058 -0.0527
 4689W        W21537   4.042  14.402   2.076 -0.1927 -0.3464  0.0395
 4690W        W21538  14.109  11.957   1.178 -0.0593  0.2716 -0.1169
 4691W        W21539   7.473  11.163   2.375  0.0483  0.3682 -0.1509
 4692W        W21540   0.140   6.491  13.294  0.2410  0.0428 -0.0608
 4693W        W21541   6.224   5.856   5.571 -0.3045 -0.2544  0.0428
 4694W        W21542   9.247   4.761  15.672 -0.3429 -0.1737  0.3028
 4695W        W21543   4.261   4.040  16.621  0.0823 -0.0222 -0.1950
 4696W        W21544  14.689   2.885   1.184 -0.2662 -0.0665  0.2481
 4697W        W21545  10.792  11.324  14.910 -0.2298 -0.0563  0.0390
 4698W        W21546   3.128  10.233  14.140  0.0256 -0.0959  0.1919
 4699W        W21547  11.758   9.065   0.209 -0.1195 -0.0573  0.0132
 4700W        W21548  15.582  14.707   1.008 -0.1352  0.0109 -0.0679
 4701W        W21549  11.947   9.974   4.379 -0.0318  0.1289  0.2631
 4702W        W21550  14.029   1.077   2.137 -0.1417 -0.0244 -0.1075
 4703W        W21551  11.361  14.491   4.580  0.0106 -0.3315 -0.1765
 4704W        W21552  16.003   6.914   4.957 -0.1567 -0.0831  0.1233
 4705W        W21553   2.499   1.062   0.063  0.0883 -0.0612 -0.0391
 4706W        W21554   1.549  17.086  15.332 -0.0598  0.0293 -0.0836
 4707W        W21555   6.167  12.591  14.505  0.2135  0.1029 -0.1471
 4708W        W21556  12.617   3.783  11.600  0.1286  0.1750 -0.2015
 4709W        W21557   5.680  10.374   6.288  0.2298  0.1591  0.4336
 4710W        W21558  12.618   6.895  15.802  0.2344  0.1707  0.0717
 4711W        W21559   0.122  14.433   2.885 -0.1950 -0.2331  0.1442
 4712W        W21560   2.065   3.004   3.140 -0.1298  0.2041 -0.1110
 4713W        W21561   0.934  11.724   0.803 -0.0906 -0.2800  0.1507
 4714W        W21562   7.250  11.545   1.884 -0.3759 -0.1025  0.0623
 4715W        W21563   0.363   4.266   1.678  0.1624  0.3442 -0.1127
 4716W        W21564  14.558  14.254   0.476 -0.2746 -0.0607 -0.2080
 4717W        W21565  11.710  12.118   2.876  0.0310 -0.1551 -0.0946
 4718W        W21566   8.104   4.396   1.933  0.0096  0.1342 -0.1426
 4719W        W21567  12.266   4.751  14.988 -0.1771 -0.1275 -0.2286
 4720W        W21568  11.225  16.523  17.456 -0.0764 -0.0811 -0.0710
 4721W        W21569   9.790   0.976   2.222  0.0228  0.1852  0.0519
 4722W        W21570  12.120  15.807  17.259 -0.1370 -0.0764 -0.1553
 4723W        W21571  12.526  12.649   5.458  0.0589 -0.0258  0.0612
 4724W        W21572  10.658   9.827   2.796 -0.0752  0.0279  0.0652
 4725W        W21573  10.894   3.376   2.765  0.3223 -0.2233  0.1802
 4726W        W21574  16.524  10.992   0.464  0.1880  0.2728  0.2275
 4727W        W21575  11.404   5.382  15.781  0.3251 -0.0644  0.3331
 4728W        W21576   0.778   3.714  13.824  0.0750 -0.1552  0.2473
 4729W        W21577   5.800   1.995   1.295  0.2912 -0.0088 -0.0685
 4730W        W21578   4.305   6.316   0.497 -0.1695 -0.0124  0.1421
 4731W        W21579   3.962   9.860  13.153 -0.1491 -0.2896 -0.0442
 4732W        W21580  10.450  13.900   1.257 -0.2315  0.2115 -0.1446
 4733W        W21581   1.473   7.705   2.031 -0.3363 -0.1178  0.1594
 4734W        W21582   3.196  10.357   3.961 -0.2426  0.1034  0.0213
 4735W        W21583   1.535   6.594  16.372 -0.1581  0.1453  0.0285
 4736W        W21584  14.584   4.918  14.031 -0.1680  0.2472 -0.2801
 4737W        W21585   5.841   6.630  14.260 -0.2166 -0.0201  0.0878
 4738W        W21586   9.284  16.186   1.467 -0.1054 -0.0941 -0.2591
 4739W        W21587   0.895  14.457   5.741  0.2871  0.2876 -0.2311
 4740W        W21588   9.911   4.263   2.881  0.0363  0.0837  0.2268
 4741W        W21589   5.282   5.292  13.000 -0.2680 -0.0968 -0.1810
 4742W        W21590   6.257  12.227  13.020 -0.0557 -0.0460 -0.2660
 4743W        W21591   8.067  12.489   1.409  0.1233  0.0991 -0.0040
 4744W        W21592   4.121   3.348   2.254  0.2997  0.2187 -0.0207
 4745W        W21593   6.422   6.707   4.367 -0.1555 -0.3082 -0.2102
 4746W        W21594   2.184   1.397  13.065  0.0134 -0.2290 -0.0387
 4747W        W21595  10.421   1.433  16.171  0.1203  0.2463  0.0384
 4748W        W21596  12.407   6.854   4.329  0.0191  0.2962  0.1400
 4749W        W21597   1.136   8.350   2.856 -0.4085 -0.0794 -0.2257
 4750W        W21598   7.179   8.989   0.437 -0.0489  0.3251  0.2323
 4751W        W21599  15.033   7.978  16.040  0.2483  0.0999  0.0336
 4752W        W21600   2.013   0.364   5.525  0.5469 -0.0055  0.0505
 4753W        W21601   7.423   1.756   0.077 -0.0080 -0.0854 -0.2936
 4754W        W21602   1.762  12.287   2.463 -0.3466  0.0673 -0.2139
 4755W        W21603   1.730   0.235   1.278 -0.1427  0.1874  0.1330
 4756W        W21604   9.578   9.019  15.385 -0.4286  0.2018 -0.1902
 4757W        W21605  10.201   8.879  14.137 -0.0357 -0.2433 -0.1626
 4758W        W21606   9.463   6.063   3.768  0.2429 -0.0729  0.0619
 4759W        W21607   9.435  11.693  17.413 -0.1243  0.2700  0.2023
 4760W        W21608   4.488  12.909  14.792  0.0888 -0.1739  0.1251
 4761W        W21609   2.557   9.192   4.142 -0.0112  0.0219  0.1894
 4762W        W21610   9.484   0.277  13.240  0.3067  0.1357  0.0800
 4763W        W21611   3.707   3.772   1.754 -0.3053  0.3421 -0.0841
 4764W        W21612   5.785  13.617   3.716  0.1688 -0.2378  0.0127
 4765W        W21613  11.334  14.421   5.082  0.1918  0.1870 -0.2016
 4766W        W21614   0.029   2.686  12.590  0.2738  0.0355 -0.0705
 4767W        W21615  11.549   3.146   0.719 -0.0733  0.1708 -0.3305
 4768W        W21616  12.195  17.038  12.181  0.0649 -0.1049  0.0588
 4769W        W21617   9.253   3.820   0.217 -0.0560  0.2033 -0.4855
 4770W        W21618   9.306  16.381   1.966  0.4127  0.0305 -0.2545
 4771W        W21619  11.582   2.348  15.845  0.2045 -0.2898 -0.0466
 4772W        W21620  13.759  16.513   4.007 -0.1620 -0.2378 -0.0608
 4773W        W21621   4.009   2.967   5.378  0.0432 -0.0668  0.1552
 4774W        W21622  16.102   2.119  13.729  0.1692  0.0995 -0.0022
 4775W        W21623  11.998   1.047  12.769  0.2731 -0.1709  0.0813
 4776W        W21624   7.651  15.534   3.026  0.0468  0.0958  0.0796
 4777W        W21625  10.538  12.457  16.468  0.3872  0.0115 -0.1801
 4778W        W21626  15.437   3.736  16.394  0.1197 -0.4126 -0.0127
 4779W        W21627  14.440  13.079   1.912 -0.2209 -0.1289 -0.0142
 4780W        W21628  13.510   8.602  12.795 -0.0871  0.1129 -0.2923
 4781W        W21629   5.468  10.548  13.887 -0.1595  0.0308 -0.1733
 4782W        W21630   5.706   7.179   4.601 -0.0848  0.3069 -0.1710
 4783W        W21631   0.838   8.170  17.301  0.0728 -0.2129 -0.1014
 4784W        W21632   1.953   3.306  15.004 -0.0686  0.0398  0.0503
 4785W        W21633   5.840   4.943   2.964 -0.0094 -0.0635 -0.1933
 4786W        W21634  13.739  11.542   0.849  0.0866  0.1104  0.2394
 4787W        W21635  16.537  13.105  12.911 -0.1193 -0.4110  0.0439
 4788W        W21636  12.751   7.665  17.467 -0.0523  0.1084 -0.1313
 4789W        W21637   3.714  11.200   0.065  0.0857 -0.2374  0.1166
 4790W        W21638   5.641   0.922   4.743  0.2132  0.0209 -0.4540
 4791W        W21639  16.452   5.435   5.055 -0.1956  0.2479 -0.0583
 4792W        W21640   8.418  10.379  15.852 -0.0499 -0.1191 -0.1515
 4793W        W21641   2.741  10.582   5.564  0.2682  0.0499  0.1031
 4794W        W21642   0.634  12.248   6.020 -0.0675  0.0802 -0.1266
 4795W        W21643   3.507  13.604   5.298 -0.1469 -0.2292 -0.1194
 4796W        W21644   5.969   7.500  14.491  0.1286 -0.1495  0.2049
 4797W        W21645   4.510   7.993  16.506 -0.1195  0.3203  0.0028
 4798W        W21646   9.425   6.205   0.864  0.1613 -0.0282  0.1144
 4799W        W21647   3.537   9.789   4.809 -0.0110  0.2446 -0.1800
 4800W        W21648   9.277  12.436   3.581  0.0665 -0.1069 -0.1689
 4801W        W21649   7.771   6.341   3.034  0.0402 -0.0490 -0.2464
 4802W        W21650   8.461  12.995   3.511  0.1441  0.1756  0.0364
 4803W        W21651  11.956   4.279   0.945 -0.1559 -0.2187  0.1767
 4804W        W21652   1.933   2.769   0.395  0.0563 -0.1621 -0.2603
 4805W        W21653   4.072   8.635  13.104  0.0838  0.1692 -0.1637
 4806W        W21654   3.279   3.495  17.519 -0.0459  0.2016  0.0634
 4807W        W21655   9.709   0.447  17.636 -0.0493 -0.0026 -0.1715
 4808W        W21656   2.066  14.904   4.369  0.1168  0.0681 -0.1995
 4809W        W21657   2.912  12.273   0.165  0.1728  0.2016 -0.1772
 4810W        W21658   3.311  12.942  13.690 -0.0738 -0.0089  0.0382
 4811W        W21659  13.438   2.171  12.150  0.0289 -0.1702  0.2453
 4812W        W21660   8.578  14.792   2.550 -0.0627 -0.0866  0.2224
 4813W        W21661   7.709  10.504   5.405  0.1460 -0.3408 -0.0318
 4814W        W21662  10.018  11.158  15.266  0.1734  0.0704  0.2771
 4815W        W21663   9.431  13.102   3.696  0.3515  0.1608 -0.2167
 4816W        W21664  16.581  12.208  12.751  0.1547 -0.0459 -0.1915
 4817W        W21665  14.040   8.102   2.819 -0.0629  0.0762  0.0258
 4818W        W21666   9.687   8.414   4.574 -0.0110 -0.0358 -0.2327
 4819W        W21667   6.086  16.305   0.570 -0.2588  0.1017 -0.1506
 4820W        W21668  16.498  11.404   5.938 -0.2490 -0.0583 -0.1526
 4821W        W21669  11.705   6.576   3.288 -0.1219 -0.0058 -0.0431
 4822W        W21670  16.520   3.426   2.351 -0.1132  0.1380  0.0637
 4823W        W21671   3.145   1.169   3.177  0.0507  0.0273  0.3091
 4824W        W21672   4.106  12.224   5.067  0.0267  0.0202 -0.0668
 4825W        W21673  11.107   0.787  16.513 -0.0620  0.2341  0.2791
 4826W        W21674   8.053   6.813  13.434 -0.3258 -0.0431 -0.2297
 4827W        W21675   7.141   0.813  12.212  0.0684  0.0426  0.0434
 4828W        W21676   4.160   1.625   4.189  0.3184 -0.0065  0.1720
 4829W        W21677  17.106  11.230  15.644 -0.1014  0.2437  0.0372
 4830W        W21678   7.449  16.742   2.499 -0.2132 -0.1986  0.1006
 4831W        W21679   3.523   5.101   3.411  0.0071 -0.2839 -0.1168
 4832W        W21680  13.093  12.309   2.288  0.1640 -0.0671 -0.0564
 4833W        W21681   6.048   7.930   2.045 -0.1573 -0.0933 -0.0012
 4834W        W21682   8.495  15.196   6.094  0.2087 -0.1029 -0.0530
 4835W        W21683  11.904  10.437   2.552  0.0577  0.0691 -0.0841
 4836W        W21684   2.112   9.806   1.950  0.0395  0.1580  0.1025
 4837W        W21685   1.236   9.958   1.146 -0.1222 -0.1433 -0.0600
 4838W        W21686   2.273   6.825   1.502  0.2677  0.2905  0.2881
 4839W        W21687   7.346  11.552  13.389  0.2855 -0.0368 -0.0880
 4840W        W21688  13.156  14.902  17.294 -0.0126  0.5114 -0.0274
 4841W        W21689  11.174   7.521   5.076 -0.1496 -0.0215  0.1036
 4842W        W21690  14.765  12.841   4.555  0.1865  0.1152 -0.0373
 4843W        W21691   1.976  14.823  16.947  0.0508  0.0757 -0.2090
 4844W        W21692   8.584   6.398   0.696 -0.1387 -0.0998  0.2538
 4845W        W21693  12.892   1.134  16.782 -0.1717  0.0058  0.0803
 4846W        W21694   4.202  10.115   1.318  0.1690  0.2071  0.0619
 4847W        W21695   6.271   6.846  17.454  0.0198 -0.4321 -0.0047
 4848W        W21696  14.530  13.298   3.853  0.2791  0.1054  0.0887
 4849W        W21697  16.662   6.897   5.554  0.2362 -0.2699 -0.1791
 4850W        W21698   1.786   5.814  12.818 -0.4074 -0.0857 -0.3421
 4851W        W21699   8.143   9.915  17.445 -0.1037  0.2775  0.3198
 4852W        W21700   5.156   1.372   5.974  0.1975  0.2466  0.1097
 4853W        W21701  11.082  11.145  13.530 -0.0607 -0.0105  0.0503
 4854W        W21702  14.581  10.799  14.014  0.4966 -0.0311  0.1828
 4855W        W21703   3.908  11.061  16.904  0.0075  0.1370 -0.0629
 4856W        W21704   1.044  11.364  14.246 -0.5345 -0.0250  0.2210
 4857W        W21705   6.519  14.434   0.647 -0.1246  0.1792 -0.0314
 4858W        W21706  13.089   8.594   0.980 -0.1145  0.0680 -0.1114
 4859W        W21707  12.354   5.264   4.867  0.3167 -0.2493 -0.1099
 4860W        W21708   7.193  15.408   3.962 -0.1606 -0.0246  0.1503
 4861W        W21709  14.864  12.108  16.127 -0.0425  0.3799  0.2436
 4862W        W21710   4.704   3.047  12.610  0.0141 -0.0471  0.1266
 4863W        W21711  12.204   2.154   0.816  0.1055 -0.0477 -0.1889
 4864W        W21712   0.318   5.323  15.861 -0.2081 -0.1426 -0.2786
 4865W        W21713  14.645   8.168  16.356 -0.1572  0.3281  0.5707
 4866W        W21714   5.901  10.993  15.940  0.0927 -0.0704 -0.2868
 4867W        W21715   7.151   2.480  13.694 -0.1122  0.0543  0.1857
 4868W        W21716   0.413  14.240  15.909  0.0012 -0.0448  0.2146
 4869W        W21717  11.809  14.355   5.273  0.2502 -0.0386  0.1890
 4870W        W21718   5.551  15.402   4.864  0.0341 -0.0211 -0.0267
 4871W        W21719   8.134  13.167  11.187  0.2061 -0.0917 -0.0685
 4872W        W21720  10.067  10.798  13.417  0.1267 -0.2066  0.1755
 4873W        W21721   3.739   9.325   1.631  0.2895 -0.1013  0.0227
 4874W        W21722  15.129   7.927  14.213  0.1489 -0.3306  0.4253
 4875W        W21723   7.863   4.206   1.408 -0.0614  0.1938 -0.3080
 4876W        W21724  12.027   1.929  17.613 -0.1526  0.0453 -0.2149
 4877W        W21725   6.811   3.126  13.193  0.1697  0.3892  0.0477
 4878W        W21726  13.371   9.408   0.719  0.0525  0.2347 -0.0948
 4879W        W21727  10.922  12.004  13.814  0.0924 -0.1419 -0.1916
 4880W        W21728   3.311   3.435  13.663 -0.0663 -0.3154 -0.2375
 4881W        W21729  15.002  10.755  14.659  0.2924 -0.0859 -0.0119
 4882W        W21730   1.974  10.424  15.625 -0.0472  0.2132  0.2687
 4883W        W21731   7.033   9.602  13.533  0.0208  0.2398 -0.1201
 4884W        W21732   6.538  15.938   2.902  0.2801 -0.1230 -0.0772
 4885W        W21733   9.010   8.956   1.986  0.1008  0.3119 -0.1303
 4886W        W21734   8.675   9.947  14.041  0.2800 -0.1725  0.3010
 4887W        W21735   0.612   5.487  14.682  0.0130 -0.1012 -0.0498
 4888W        W21736   6.011   8.381   2.470  0.0028 -0.3052  0.0129
 4889W        W21737   0.987   1.905   2.777  0.0884 -0.0261 -0.0872
 4890W        W21738   1.882   9.350  13.195 -0.1311  0.0519 -0.1701
 4891W        W21739  13.869  14.105   3.217  0.0792 -0.3233  0.2048
 4892W        W21740  12.014   1.797  14.484  0.4840  0.1962 -0.0910
 4893W        W21741   9.037   2.179  13.552  0.0695  0.2791 -0.1366
 4894W        W21742   0.469  10.677  14.670  0.4147 -0.0362  0.4542
 4895W        W21743   5.391   8.385  12.308 -0.3245 -0.1518  0.3184
 4896W        W21744   9.919   2.615   2.024 -0.1463 -0.0305 -0.0166
 4897W        W21745  12.897   3.875  12.165  0.3640  0.2020  0.0543
 4898W        W21746  13.702  12.459   3.031 -0.1047  0.2967 -0.4967
 4899W        W21747  10.441   8.517  13.290 -0.4844 -0.0721  0.1305
 4900W        W21748   2.430   9.257  16.049  0.2784 -0.0399 -0.1679
 4901W        W21749   0.047   8.854  14.327  0.1919 -0.2866 -0.3717
 4902W        W21750   5.967   2.246   4.531  0.3818  0.0068  0.1230
 4903W        W21751  16.502   2.906  15.428  0.2442  0.1839  0.3927
 4904W        W21752   0.052  11.118   6.794  0.0642  0.0477 -0.1049
 4905W        W21753   9.950   0.121  13.126 -0.3211  0.1560  0.0186
 4906W        W21754   0.502   6.485  13.711 -0.1306  0.0514 -0.3318
 4907W        W21755   2.906   1.983  14.248  0.2701  0.2980  0.0296
 4908W        W21756   0.112   6.871  13.726  0.2287  0.0114  0.0915
 4909W        W21757  12.563   0.640   3.889  0.3552  0.2643  0.0481
 4910W        W21758   0.941   0.842   4.864  0.1318  0.0520  0.1087
 4911W        W21759  15.474  13.589   3.741  0.0033  0.3687  0.1655
 4912W        W21760   5.763   8.136   3.374 -0.0939 -0.0810 -0.0197
 4913W        W21761   0.005   7.539  12.580  0.0312  0.0077  0.0363
 4914W        W21762   9.187   4.755  16.914  0.0523 -0.1434  0.0357
 4915W        W21763  16.876  10.831   5.980 -0.2315  0.0736  0.2120
 4916W        W21764   3.518   7.053  13.679  0.0015 -0.0933 -0.0799
 4917W        W21765  14.701  15.266  13.848 -0.1125  0.3064  0.1924
 4918W        W21766   5.640  14.701  15.389  0.2169 -0.1100  0.0650
 4919W        W21767   8.515  16.204  13.389  0.2328  0.0244 -0.0435
 4920W        W21768  15.104   1.516  13.098  0.1555  0.0907  0.1804
 4921W        W21769   7.894  15.627  14.730  0.3098  0.2588 -0.0085
 4922W        W21770   9.980   6.545   2.228  0.0150  0.3169 -0.1866
 4923W        W21771  10.568  14.772   3.634 -0.1459  0.3175  0.0436
 4924W        W21772   1.814  16.013   5.669 -0.0583 -0.1109  0.0321
 4925W        W21773   6.924   4.771   4.952 -0.0765  0.2015 -0.1390
 4926W        W21774  15.553   5.000  17.032 -0.1159  0.2507  0.2175
 4927W        W21775   2.366  16.115   5.648  0.1059 -0.0046 -0.0044
 4928W        W21776   5.769  14.092   4.051  0.2054 -0.0662  0.0469
 4929W        W21777  10.926  11.241   2.979 -0.0293 -0.1470 -0.2402
 4930W        W21778   7.822   4.667  13.234  0.0801 -0.0029  0.0408
 4931W        W21779   8.732   4.572  13.201 -0.1565 -0.0200 -0.3068
 4932W        W21780   9.907   0.405   3.244 -0.0428 -0.1437 -0.2146
 4933W        W21781  12.772   1.049   4.040 -0.1375 -0.1363  0.0335
 4934W        W21782   8.485   9.497  13.894  0.0198  0.1624  0.0689
 4935W        W21783   4.059  10.472  15.792  0.1226 -0.2144  0.0447
 4936W        W21784  12.233   9.780   0.888  0.0788 -0.0198  0.3469
 4937W        W21785  15.765  15.570   0.721 -0.0301  0.2410  0.0958
 4938W        W21786   7.661  16.252   1.460 -0.0654  0.1055  0.1151
 4939W        W21787  14.918  14.326  13.848  0.2635 -0.1118 -0.0084
 4940W        W21788  12.825   0.734  13.020  0.1366  0.1876  0.2117
 4941W        W21789   8.789  14.779   3.074 -0.0480  0.0978  0.1678
 4942W        W21790   0.402  12.028   2.231  0.1055 -0.2697  0.0990
 4943W        W21791  10.045  16.353  12.426 -0.3821 -0.1451  0.0749
 4944W        W21792  14.478  15.751  13.095  0.0277 -0.1581  0.1222
 4945W        W21793   4.872  12.704  13.919  0.1707 -0.0269  0.1167
 4946W        W21794  11.421  16.961  11.554 -0.0360  0.1147 -0.0079
 4947W        W21795  14.107  13.697  14.691  0.2788 -0.3368 -0.0204
 4948W        W21796  13.467   5.980   4.896  0.2944  0.3811 -0.0629
 4949W        W21797  12.180  11.682  15.347  0.1140  0.1476  0.0436
 4950W        W21798   7.209  11.174   0.225 -0.2682  0.1389  0.0182
 4951W        W21799   9.131   6.472  16.157 -0.0134 -0.2646  0.0591
 4952W        W21800  15.599   4.092  15.180  0.0795 -0.1543  0.2517
 4953W        W21801  11.391   7.801   3.956 -0.1004  0.1306 -0.1921
 4954W        W21802   8.641  12.561   4.896  0.1493 -0.1452 -0.3256
 4955W        W21803   1.761  15.300  15.784  0.1949  0.1142 -0.2379
 4956W        W21804   8.892   8.370  17.068  0.0168 -0.2698 -0.1043
 4957W        W21805  11.416   4.501  12.636 -0.0049  0.0910 -0.3934
 4958W        W21806   8.945  14.234  16.842  0.2407  0.0548 -0.1892
 4959W        W21807   5.484   9.144   5.078  0.0220  0.0312  0.5497
 4960W        W21808   1.829   9.687   0.555 -0.0390 -0.2150 -0.0629
 4961W        W21809   4.840   3.037  13.404 -0.1207 -0.0136  0.1681
 4962W        W21810   1.158   3.038  17.111  0.1710 -0.0640  0.0069
 4963W        W21811  12.260   5.042   4.414 -0.1558  0.0471  0.0272
 4964W        W21812   8.605   9.373  13.246  0.0797 -0.0381 -0.0577
 4965W        W21813   2.192  13.281  12.724  0.0912  0.2299 -0.1921
 4966W        W21814   6.580   7.350   1.987  0.1227 -0.1954  0.2632
 4967W        W21815   1.199   5.388  16.949  0.0695 -0.0523 -0.2841
 4968W        W21816   0.831  11.212   0.889  0.0936  0.1039 -0.0858
 4969W        W21817   5.090   3.351  16.456 -0.3353  0.0116 -0.1251
 4970W        W21818   3.084   5.959  12.505 -0.0207  0.1425 -0.0583
 4971W        W21819   7.907  16.018  16.798 -0.0021  0.0233  0.0319
 4972W        W21820  14.748   2.764  14.874 -0.1427 -0.2470 -0.1069
 4973W        W21821   8.327   0.652   4.891  0.0991 -0.2349  0.2186
 4974W        W21822  15.086   0.043   1.209 -0.0530 -0.2214 -0.1658
 4975W        W21823   4.647   4.959   4.875 -0.0582 -0.0283  0.3700
 4976W        W21824   0.647  11.825   0.014  0.1555  0.1386 -0.1861
 4977W        W21825  11.853   8.356  17.587  0.1384 -0.4802  0.0945
 4978W        W21826   9.670   8.829   5.495  0.3951 -0.3048 -0.0446
 4979W        W21827  13.204   6.343   3.596  0.0761  0.0933 -0.1001
 4980W        W21828   6.227   6.612   2.542  0.2126 -0.0806 -0.0660
 4981W        W21829  15.108   2.469   5.117  0.0848 -0.1334 -0.2416
 4982W        W21830  13.449   8.738   0.609 -0.0646 -0.1146 -0.2807
 4983W        W21831   3.846  10.578  15.335 -0.1456 -0.0875  0.1257
 4984W        W21832  10.258  16.667  11.974  0.1008  0.0443 -0.0156
 4985W        W21833  11.426   0.093   5.404 -0.2523 -0.1070 -0.2863
 4986W        W21834   0.631   3.826   1.562  0.2074  0.1401  0.2243
 4987W        W21835   1.451   2.891   2.787  0.0543  0.1243 -0.3859
 4988W        W21836  14.573   4.876  12.379  0.4181  0.0209  0.0338
 4989W        W21837   1.390   3.124   2.003 -0.1556 -0.1163  0.0397
 4990W        W21838  13.309   5.877   0.460 -0.0380  0.1868 -0.2253
 4991W        W21839   2.219  14.469   6.324 -0.1035  0.0163 -0.1810
 4992W        W21840  15.645   4.748  16.527  0.4074 -0.1758  0.3360
 4993W        W21841   5.763   1.191  16.801  0.1262  0.0120 -0.3221
 4994W        W21842  11.793  17.164  17.669 -0.1617 -0.1972 -0.0728
 4995W        W21843   3.576   2.726  16.936 -0.1988  0.0699  0.2831
 4996W        W21844   5.753   7.927  16.885  0.2827  0.1480 -0.4645
 4997W        W21845  13.777  12.280  13.152  0.3057 -0.1338  0.1584
 4998W        W21846  14.511   2.816  13.586 -0.1270 -0.2073  0.1573
 4999W        W21847   1.347   4.711   0.354  0.1045  0.0018 -0.0311
 5000W        W21848   2.437   6.542  16.628 -0.2386 -0.0971  0.2797
 5001W        W21849  16.121  17.051   0.467  0.2420  0.3112  0.1033
 5002W        W21850   3.342   0.972  13.566  0.2023  0.0665  0.1073
 5003W        W21851   5.628   4.511   2.865  0.2834  0.0581 -0.0406
 5004W        W21852  10.656   0.609  16.994 -0.0565  0.0992  0.2935
 5005W        W21853   3.516  14.441   5.872 -0.1741 -0.0034  0.0682
 5006W        W21854  11.170   7.064  16.747 -0.0597  0.0720  0.1908
 5007W        W21855  12.404  14.041  13.959 -0.0628 -0.1446 -0.3647
 5008W        W21856   0.411  13.371   2.289  0.3458  0.0862  0.1396
 5009W        W21857  10.723   3.991  14.365  0.0708 -0.0629  0.2722
 5010W        W21858   9.265   1.740   0.467 -0.0769 -0.1222 -0.0393
 5011W        W21859   1.457  12.966  13.090 -0.4427  0.0069 -0.1720
 5012W        W21860   1.019  11.081  17.305 -0.2897 -0.0737 -0.3347
 5013W        W21861   1.206  12.742  17.062  0.1699  0.0450 -0.1534
 5014W        W21862   2.874  11.181  14.821  0.3155  0.0255 -0.2270
 5015W        W21863  13.269  15.777   4.575  0.0412  0.0300  0.1151
 5016W        W21864   0.730  10.675   4.048 -0.0558  0.0432 -0.0304
 5017W        W21865   3.369   9.233   1.315  0.3568  0.0623 -0.0258
 5018W        W21866   4.721   2.306   4.830  0.1175 -0.2535  0.1267
 5019W        W21867  16.961   7.285  14.601 -0.0506 -0.3187 -0.2298
 5020W        W21868   6.665  10.372  16.888 -0.0310 -0.0609  0.4787
 5021W        W21869   6.286   7.093   1.579 -0.2377  0.2161  0.1214
 5022W        W21870   5.036  10.812  16.042 -0.3081  0.0876 -0.0666
 5023W        W21871  14.739   0.426   5.451  0.0685  0.2800 -0.0834
 5024W        W21872  11.382  10.302  15.823  0.1665 -0.2263  0.1434
 5025W        W21873   9.133  15.895   3.172  0.1602  0.0566  0.1850
 5026W        W21874   6.923   5.095  16.880 -0.2222  0.1588  0.0973
 5027W        W21875   1.886   8.199   2.348 -0.0075  0.0729 -0.0754
 5028W        W21876  13.209   1.981   2.323  0.2322  0.0768 -0.2674
 5029W        W21877  16.383   4.515  14.781  0.1557  0.1443  0.0280
 5030W        W21878  12.456   4.088   4.187  0.1652  0.0976  0.1178
 5031W        W21879  14.514   7.995  13.103  0.4277 -0.0633 -0.0261
 5032W        W21880   3.099   0.170  16.705 -0.0798  0.1694 -0.1026
 5033W        W21881   8.734   5.479  17.094 -0.0060  0.0858 -0.0492
 5034W        W21882   0.420   1.221  13.425  0.0773 -0.0734 -0.0706
 5035W        W21883   0.773  12.759   0.933  0.0511 -0.0911  0.2114
 5036W        W21884   8.287   0.869  16.454  0.0744  0.0011 -0.0745
 5037W        W21885   9.977   9.491   3.497  0.1350  0.0270 -0.0126
 5038W        W21886  13.685   0.910   4.278 -0.1416  0.0256  0.0399
 5039W        W21887   6.378   6.178   4.281  0.0145  0.0522 -0.0418
 5040W        W21888  10.305   2.375   3.233  0.1762  0.1428 -0.2258
 5041W        W21889  14.265   7.202  16.641 -0.2664  0.1116  0.1155
 5042W        W21890   6.357   0.331   3.337 -0.3677  0.1078 -0.1054
 5043W        W21891   4.627  14.548  17.619  0.3355  0.0867  0.2796
 5044W        W21892  15.627   0.751  17.159 -0.0320 -0.1660 -0.3804
 5045W        W21893   1.681  15.990  14.782 -0.2259 -0.0620 -0.1144
 5046W        W21894   8.192  12.544   3.263 -0.0687  0.0401 -0.2555
 5047W        W21895   8.023  15.875   0.535  0.1412  0.1563  0.0730
 5048W        W21896  14.791   1.009   4.176  0.3088  0.0094  0.0073
 5049W        W21897  12.391   9.459  16.568  0.1945 -0.2743 -0.0604
 5050W        W21898  10.297  17.137   4.563  0.0927 -0.0396 -0.0693
 5051W        W21899   0.829  13.644  13.631  0.2949  0.1055 -0.0044
 5052W        W21900  16.551   5.898  12.346  0.1692  0.0654 -0.1779
 5053W        W21901   9.823  15.436   4.759  0.0483  0.2022  0.1151
 5054W        W21902   2.337  11.698   3.310  0.1190  0.1890 -0.0176
 5055W        W21903  17.014   5.190   3.524  0.0143 -0.3578 -0.0408
 5056W        W21904   4.586   0.575  13.570  0.1708  0.1961 -0.0961
 5057W        W21905   9.544  14.564   2.713 -0.1465 -0.0114  0.4687
 5058W        W21906   9.256   7.723   0.863  0.0674 -0.0238  0.0071
 5059W        W21907   5.072   9.210  13.886  0.0201  0.4199  0.0708
 5060W        W21908   9.630   1.617  13.225  0.1870 -0.2444  0.1298
 5061W        W21909   1.786  11.556  13.903 -0.0842  0.1503  0.0717
 5062W        W21910   2.472   0.181  17.033  0.0183  0.1978 -0.0840
 5063W        W21911  17.059  10.583   0.094 -0.1449 -0.0071  0.1583
 5064W        W21912   9.300   3.996   0.762 -0.2463  0.0473 -0.2394
 5065W        W21913   6.574  12.267   5.804 -0.2116 -0.0457  0.2374
 5066W        W21914   0.657   2.379   4.497 -0.0846 -0.1690 -0.1124
 5067W        W21915  12.761   0.653  12.320 -0.1258  0.1565 -0.1601
 5068W        W21916   1.524  16.518  15.885 -0.1095 -0.0996  0.0250
 5069W        W21917   5.260   4.364  16.286 -0.1356  0.2033  0.1329
 5070W        W21918   2.786   5.238  17.666  0.4056  0.1070 -0.0345
 5071W        W21919   1.460   8.043  12.731  0.0276 -0.2864  0.0184
 5072W        W21920   3.510  16.193   1.941  0.1878 -0.1260  0.1228
 5073W        W21921  11.875  12.693   4.407  0.1781  0.0476  0.1074
 5074W        W21922   7.651   5.099   3.776  0.4267 -0.0436  0.0324
 5075W        W21923  12.033   3.119  14.194 -0.2380 -0.2557 -0.0613
 5076W        W21924   9.799  12.439  14.282  0.1759 -0.0551 -0.3240
 5077W        W21925   0.876  10.297   2.598 -0.0328 -0.0619  0.0457
 5078W        W21926  14.001   3.530  17.779 -0.2459 -0.0854 -0.3577
 5079W        W21927   5.197  10.797  11.477 -0.1276 -0.2483  0.2681
 5080W        W21928  15.076  15.591   3.421  0.1845  0.4547  0.1783
 5081W        W21929   7.045  14.135   5.417 -0.1721  0.2705 -0.1230
 5082W        W21930  13.021   2.742   4.942  0.0624 -0.1343 -0.3989
 5083W        W21931   1.782   4.021  14.506  0.4481  0.0270  0.1551
 5084W        W21932  15.716  13.527  12.217  0.0554  0.1531  0.0991
 5085W        W21933   3.139   8.328  13.068  0.2817 -0.4123  0.1253
 5086W        W21934   6.939   9.972   3.377  0.0563  0.0013 -0.1747
 5087W        W21935   6.297   2.009  16.884  0.1243  0.1167 -0.2370
 5088W        W21936  13.192   7.080  12.358 -0.0666 -0.4010 -0.0032
 5089W        W21937   4.713  13.985  15.599 -0.0108 -0.2940  0.1687
 5090W        W21938   6.950   9.458   0.507  0.0264 -0.2717 -0.1510
 5091W        W21939  12.786  10.327  12.288  0.1527 -0.1666 -0.0888
 5092W        W21940  11.107  10.584  12.539  0.0303  0.1696 -0.1404
 5093W        W21941   4.425  12.264  16.884  0.3289 -0.0550  0.3074
 5094W        W21942   0.314  14.840   3.301 -0.1282  0.0397 -0.0988
 5095W        W21943  10.277  12.199  12.986  0.2551  0.0063 -0.1952
 5096W        W21944   8.033   9.047   3.871  0.0673  0.0285  0.2070
 5097W        W21945  14.854   1.789  12.273 -0.0321 -0.2030 -0.0590
 5098W        W21946  10.395   3.820  13.346 -0.1110 -0.2126 -0.1002
 5099W        W21947   8.238  11.172  14.479 -0.0609 -0.1509  0.1123
 5100W        W21948   7.460  15.438   2.031 -0.0848 -0.0462  0.2231
 5101W        W21949   5.720  16.591  13.324  0.1865  0.1370 -0.2178
 5102W        W21950   2.014   3.622   5.234 -0.0036  0.0751  0.2170
 5103W        W21951   3.392  12.012  13.856  0.1450 -0.1135 -0.1650
 5104W        W21952  12.341  16.547  12.014  0.0212 -0.0193 -0.2178
 5105W        W21953  10.066  15.069  14.227  0.2783 -0.0955 -0.1445
 5106W        W21954  10.726   7.203   2.596  0.1037  0.0493 -0.2684
 5107W        W21955   8.095   6.350   1.196  0.2736 -0.0132 -0.1347
 5108W        W21956   9.791   6.279   1.841 -0.2031  0.1070  0.0725
 5109W        W21957  14.773   0.082   4.441 -0.2915  0.4047 -0.0654
 5110W        W21958  13.110  12.309   3.936 -0.1177  0.2782 -0.0343
 5111W        W21959   5.059   1.354   2.154 -0.2304 -0.3351 -0.1414
 5112W        W21960  14.219  12.387   4.910  0.0932 -0.2306 -0.2956
 5113W        W21961  11.257   7.637   1.705 -0.2645 -0.2095 -0.0709
 5114W        W21962   2.390   5.713   2.216  0.2938 -0.1253 -0.1132
 5115W        W21963  14.772   8.880  16.164  0.1454  0.0088  0.0926
 5116W        W21964   9.695  15.010   2.357 -0.1615  0.0067  0.1358
 5117W        W21965  10.843  15.100  13.764 -0.1420 -0.1993  0.3965
 5118W        W21966   7.043   1.873   1.107 -0.0245  0.1221 -0.0223
 5119W        W21967   3.751  10.392  12.185  0.0382 -0.3046  0.0371
 5120W        W21968  11.270  10.189  17.095  0.2025 -0.0295 -0.0724
 5121W        W21969   3.873   0.556   5.708 -0.0952 -0.0980 -0.1435
 5122W        W21970  13.986   1.300   4.452 -0.1761 -0.2175  0.1386
 5123W        W21971   6.446  15.085   2.190  0.1817 -0.0013 -0.0706
 5124W        W21972  16.534  10.669   4.664  0.1176  0.2790 -0.2990
 5125W        W21973  14.297  13.991   6.022  0.2228 -0.0455 -0.2272
 5126W        W21974  14.133   9.302   6.041 -0.0986 -0.0070  0.1384
 5127W        W21975   4.763  16.914   1.487  0.3073  0.1123 -0.1112
 5128W        W21976   9.162   5.124   3.439 -0.3129  0.1916 -0.0188
 5129W        W21977   2.538  10.830   0.443  0.0318  0.0995 -0.0633
 5130W        W21978   0.522   5.389   0.622  0.2627 -0.0187  0.0300
 5131W        W21979   6.763  13.153   3.147 -0.2199 -0.0391 -0.2808
 5132W        W21980  17.162   6.736   2.578 -0.0556 -0.1220  0.0581
 5133W        W21981   3.008  14.766  15.088 -0.2711 -0.0179  0.0090
 5134W        W21982   0.907  11.326  13.671 -0.0284 -0.1857  0.2883
 5135W        W21983  12.461  11.826   0.625  0.1493 -0.0894  0.4112
 5136W        W21984   5.365   4.809  13.198 -0.1432 -0.0968 -0.0100
 5137W        W21985  10.803  15.682  15.274  0.1878 -0.0447 -0.1309
 5138W        W21986   5.922   3.267  13.774 -0.0043 -0.1221  0.1798
 5139W        W21987  12.472   0.461   4.386  0.0980 -0.1736  0.4039
 5140W        W21988  16.683   8.753  16.613 -0.0356  0.0765 -0.1324
 5141W        W21989   5.555   6.948  13.879 -0.1916 -0.2416 -0.1373
 5142W        W21990  13.734  11.317  16.044 -0.2099 -0.2374  0.0414
 5143W        W21991   2.714  10.081  13.799  0.1572  0.1694 -0.1044
 5144W        W21992   7.819  14.698  10.989 -0.0344 -0.0747 -0.0749
 5145W        W21993   5.445  15.038  15.032  0.0594  0.1294 -0.0354
 5146W        W21994  11.786  12.721  14.732 -0.1439 -0.2655 -0.0897
 5147W        W21995   9.161   0.886   1.589  0.1931  0.0202 -0.0796
 5148W        W21996  16.984   8.631   2.665  0.0202 -0.0089 -0.2196
 5149W        W21997   3.649   4.496  16.610  0.3109  0.1693  0.2372
 5150W        W21998   7.349   7.917   4.625  0.3183  0.1884 -0.0607
 5151W        W21999  15.620  12.683   4.350 -0.1999 -0.2129  0.1272
 5152W        W22000  11.252  12.962  17.359 -0.0434  0.1124  0.2329
 5153W        W22001  16.730  10.275   1.742 -0.0726  0.2497 -0.0376
 5154W        W22002  11.263  15.536  16.517  0.1204  0.2220 -0.1383
 5155W        W22003   0.184   7.418   1.738  0.0489  0.2520 -0.3039
 5156W        W22004  13.360  15.584   4.088  0.2828  0.2954  0.2182
 5157W        W22005  11.710   5.048  14.549 -0.1131 -0.0517  0.1400
 5158W        W22006  12.190  14.551  11.778 -0.1954  0.1557  0.2311
 5159W        W22007   2.609   4.475   6.689  0.0393  0.2259 -0.1399
 5160W        W22008   9.843  12.325  12.559 -0.0329 -0.0008  0.2720
 5161W        W22009   9.096  13.145   4.298 -0.0742  0.3803  0.1627
 5162W        W22010   8.199  11.234   4.426  0.0744  0.2664  0.1886
 5163W        W22011  11.142   1.107   2.459  0.1433 -0.0554  0.0333
 5164W        W22012  14.807  17.131   6.192 -0.1152 -0.0420  0.1652
 5165W        W22013   4.522   0.238   3.168 -0.0128 -0.0806  0.0643
 5166W        W22014  16.926   5.358   2.151 -0.0641  0.2231 -0.2009
 5167W        W22015   7.196  12.899   2.891  0.0438  0.2574 -0.0771
 5168W        W22016   6.329  13.925  14.013 -0.1194 -0.2315  0.1628
 5169W        W22017   7.126  14.104  16.559 -0.2526  0.4589  0.0664
 5170W        W22018   8.525  10.436   1.347 -0.0166 -0.1654 -0.0182
 5171W        W22019  11.334  10.450  16.324 -0.0186 -0.0308 -0.0868
 5172W        W22020   7.970   6.921   3.895 -0.0325 -0.2476  0.0810
 5173W        W22021   3.598   3.257   2.420  0.0225  0.1864 -0.1580
 5174W        W22022   6.932   0.585   0.958  0.3291  0.0290  0.1335
 5175W        W22023   7.882   7.330  12.449  0.1271 -0.4009 -0.1278
 5176W        W22024  14.412   8.973   2.023  0.0264 -0.3114  0.2448
 5177W        W22025   4.258   0.769   5.951 -0.1643 -0.3221 -0.3636
 5178W        W22026   1.236   0.258   3.215 -0.0878  0.2912 -0.1005
 5179W        W22027   4.125   6.767   3.325  0.1719 -0.0538 -0.1311
 5180W        W22028  12.455   2.399   2.281 -0.2493  0.0792  0.0911
 5181W        W22029   5.934   0.771  15.522 -0.0362 -0.0893 -0.1908
 5182W        W22030   2.577  13.593   6.671 -0.2377 -0.2152 -0.1720
 5183W        W22031   6.128  12.220   1.557  0.0700 -0.1424 -0.3209
 5184W        W22032   7.894  11.476  15.176  0.1320 -0.0203  0.0042
 5185W        W22033   5.241   9.805  15.214 -0.0204  0.2505  0.1715
 5186W        W22034   0.567   4.172   0.320 -0.1355 -0.1994  0.3170
 5187W        W22035   5.575  10.184   3.030 -0.0319  0.2687  0.0444
 5188W        W22036  10.192   4.374  12.534  0.1921  0.3232  0.1226
 5189W        W22037  14.505   3.832  17.720  0.0301  0.0760 -0.1988
 5190W        W22038   6.175  11.240   4.548  0.0437  0.0301  0.0189
 5191W        W22039   5.156   2.578  17.645 -0.1262 -0.2430 -0.3009
 5192W        W22040  16.842   2.386   0.304  0.2727  0.1093  0.0106
 5193W        W22041  13.059   4.965  16.476 -0.2398 -0.0800 -0.1061
 5194W        W22042   2.105   0.722   4.556 -0.1387  0.1488  0.3875
 5195W        W22043  11.204   2.095  13.043 -0.1491 -0.0861 -0.0935
 5196W        W22044  10.798  10.386   3.624  0.1171  0.0752  0.1397
 5197W        W22045   5.447   0.622  14.875  0.2346 -0.1445  0.0274
 5198W        W22046   0.037   7.028   3.099 -0.1769  0.2122  0.1254
 5199W        W22047  15.875   3.261  16.586  0.2225 -0.4171  0.0652
 5200W        W22048   7.789   7.702   2.940  0.0309  0.0257 -0.1308
 5201W        W22049  14.168  15.436   3.455 -0.2646  0.0144 -0.0242
 5202W        W22050  13.715  13.010  15.208 -0.0812  0.2549  0.1298
 5203W        W22051  12.418   1.675  12.178 -0.1839 -0.0330 -0.2236
 5204W        W22052   7.065   9.186   3.719 -0.1564 -0.1491 -0.1388
 5205W        W22053   8.762  12.329   2.984  0.0562 -0.1300  0.1891
 5206W        W22054  10.551  15.439  13.429  0.0762  0.1501  0.1019
 5207W        W22055   8.321   4.870   4.422 -0.1727 -0.0852 -0.1499
 5208W        W22056  12.942  12.487  12.154  0.0853 -0.1738  0.0527
 5209W        W22057  12.316   9.227  15.760 -0.1802  0.0178 -0.0074
 5210W        W22058  13.877   0.095   4.466  0.0608 -0.3067 -0.1952
 5211W        W22059  15.992  14.955   1.424 -0.2920 -0.2017  0.1513
 5212W        W22060  14.836  13.986  13.319  0.0105  0.0190  0.1756
 5213W        W22061  13.551  16.654  17.357  0.0692 -0.1287  0.0795
 5214W        W22062   2.272   4.543  15.286  0.0168  0.2077 -0.1558
 5215W        W22063   6.618  14.637  13.049 -0.3114 -0.3185 -0.1447
 5216W        W22064  10.855  16.972  15.113  0.0426  0.0487  0.1744
 5217W        W22065   1.094   4.515  11.980  0.2544 -0.0892 -0.0527
 5218W        W22066   2.895  14.200  13.359 -0.1722 -0.1561 -0.1049
 5219W        W22067   7.485  13.755   0.568 -0.0006  0.1412  0.0750
 5220W        W22068  14.063   6.833   0.029  0.1055 -0.1653  0.1559
 5221W        W22069  12.572  15.883  15.592  0.3691 -0.0954  0.0632
 5222W        W22070  14.609   2.447   3.381 -0.0470 -0.2033  0.0269
 5223W        W22071   3.239  11.102   0.955  0.0701  0.1336 -0.1174
 5224W        W22072  12.322  15.504   5.005 -0.0694 -0.2409 -0.1354
 5225W        W22073   2.081  14.980   5.585  0.3201  0.1090  0.2707
 5226W        W22074  10.185  12.797   3.075 -0.1954  0.0433  0.0360
 5227W        W22075   2.628   5.275   0.821  0.2794 -0.0027  0.0281
 5228W        W22076   6.507   2.088  15.181 -0.0315  0.0228  0.2398
 5229W        W22077  10.579  16.360  14.509  0.1881  0.2604 -0.0888
 5230W        W22078   7.776  16.586   1.826 -0.0194  0.1279 -0.2446
 5231W        W22079   0.530  13.921   0.411 -0.2878  0.4704 -0.1298
 5232W        W22080  11.586   9.375   5.585  0.1440 -0.1594 -0.2108
 5233W        W22081   3.733   6.661  13.927  0.1778 -0.2350  0.2571
 5234W        W22082   7.283   8.246   2.878  0.0279  0.2634  0.3876
 5235W        W22083  12.224   0.639   3.538  0.1396 -0.1458  0.3764
 5236W        W22084   7.526   2.095   0.460  0.2845  0.1910  0.0636
 5237W        W22085   9.281  12.217   1.267  0.1278  0.4420  0.3002
 5238W        W22086  16.992  10.080   5.642  0.1517 -0.0746 -0.0447
 5239W        W22087  15.778   5.639   5.753 -0.0182  0.1245  0.0496
 5240W        W22088  10.914   6.198  13.437  0.2551  0.1196 -0.0417
 5241W        W22089   0.023   2.951  15.623 -0.0925  0.1320  0.0186
 5242W        W22090   0.493  12.824  17.650  0.1135  0.0343 -0.1740
 5243W        W22091  12.598   6.338  13.375 -0.1695 -0.1309 -0.0661
 5244W        W22092   3.231   8.157  14.697  0.1169 -0.1560  0.0024
 5245W        W22093   3.468   4.585   4.748  0.0377 -0.1411  0.0833
 5246W        W22094   8.969   0.877  11.876  0.0406 -0.1752  0.1283
 5247W        W22095   4.626  10.562   3.379 -0.1620  0.1020  0.0372
 5248W        W22096  12.950   4.091   4.423 -0.0192  0.0089  0.3651
 5249W        W22097  14.536  13.521   4.801 -0.0812 -0.2605  0.1586
 5250W        W22098  12.120   7.232  11.753 -0.0197 -0.1344 -0.0153
 5251W        W22099  16.916  11.367   0.253 -0.2416 -0.0353 -0.0919
 5252W        W22100   7.475   9.421  17.460 -0.2786 -0.1481 -0.2161
 5253W        W22101   7.855  16.895  13.362  0.3066  0.1669 -0.0162
 5254W        W22102   5.142  11.121   1.807 -0.0416 -0.1667 -0.0536
 5255W        W22103   5.258   2.928  15.519 -0.0556 -0.0039  0.1309
 5256W        W22104   5.996  16.808   5.262  0.1749  0.1846  0.1722
 5257W        W22105  16.827   0.231  16.024 -0.1551 -0.0383  0.2949
 5258W        W22106   1.123   6.662  16.639  0.0751  0.0825  0.0796
 5259W        W22107   9.141   3.079  15.315 -0.0815 -0.0772 -0.0837
 5260W        W22108  16.277  13.907   5.568  0.6286  0.2827  0.1352
 5261W        W22109  16.836   1.048  12.660  0.0812 -0.1087 -0.3966
 5262W        W22110  16.097  12.294   3.601 -0.0535 -0.2139 -0.2137
 5263W        W22111  10.967  12.441  17.454 -0.0622  0.0382 -0.0440
 5264W        W22112  12.294   1.972  14.869 -0.1275  0.0916 -0.1572
 5265W        W22113  14.042   2.703  13.547  0.2347  0.1109 -0.1364
 5266W        W22114   4.927  13.690  14.937 -0.1651  0.1725 -0.0837
 5267W        W22115   5.999  15.568   4.171  0.0969 -0.0049 -0.0778
 5268W        W22116  11.912  14.442   2.827 -0.0939 -0.1589  0.3370
 5269W        W22117   6.148  12.340  13.707 -0.2108  0.0315  0.1852
 5270W        W22118   3.387  11.431  15.505  0.0124 -0.2031  0.3140
 5271W        W22119   5.200   6.466   1.296 -0.1509  0.2310  0.0593
 5272W        W22120   5.049   0.111   5.945 -0.1895  0.3310 -0.0078
 5273W        W22121  15.933   4.857  14.498  0.2511 -0.2076  0.0833
 5274W        W22122  15.557   2.673   1.624 -0.0666  0.2429  0.0760
 5275W        W22123   1.405  14.218  13.548  0.0542  0.3261 -0.1085
 5276W        W22124  16.300  13.965  15.078 -0.2285 -0.0196  0.0940
 5277W        W22125   7.776   2.100  14.326  0.1435 -0.0831  0.0944
 5278W        W22126  14.089   5.633   5.026 -0.2995 -0.3191  0.0719
 5279W        W22127   9.263   7.670   1.374  0.0379 -0.0148  0.2691
 5280W        W22128  10.211   2.337  16.396 -0.0131  0.0788 -0.0479
 5281W        W22129   4.484  17.089   5.125  0.0906 -0.2067  0.2410
 5282W        W22130  11.935   9.329  14.903 -0.1356  0.0647  0.1785
 5283W        W22131   2.932  10.645   0.989 -0.1090  0.2451  0.1337
 5284W        W22132  10.569   7.622  17.617 -0.1758 -0.3103  0.3568
 5285W        W22133  12.279   5.386  16.230  0.1004  0.0870  0.0194
 5286W        W22134  14.656   0.630   0.039  0.3058  0.0688 -0.1380
 5287W        W22135  15.183  16.494  16.822  0.0298 -0.1077  0.1631
 5288W        W22136  10.208  12.702  11.728 -0.2758  0.1181  0.1480
 5289W        W22137   4.422  15.967  16.508  0.0199  0.0124 -0.1562
 5290W        W22138  12.289  12.873   0.878  0.0345  0.0759 -0.1472
 5291W        W22139  12.791   2.757  13.120 -0.0100 -0.1029  0.0698
 5292W        W22140   2.260  16.474  15.139  0.0026 -0.0331 -0.3913
 5293W        W22141   7.659   1.077   4.683  0.1426 -0.2294  0.0644
 5294W        W22142   7.945   3.664   5.093 -0.1224  0.2832  0.0351
 5295W        W22143   4.263   5.511  15.106 -0.1062  0.0045 -0.0976
 5296W        W22144  10.676   3.616   4.467 -0.1375 -0.5315  0.1046
 5297W        W22145   4.675  16.523   0.516 -0.0343 -0.0779 -0.3489
 5298W        W22146   3.326  12.553   0.328  0.2343 -0.0268  0.2974
 5299W        W22147   2.119   8.598   5.261  0.0292 -0.2003 -0.0246
 5300W        W22148  11.259   4.917  17.416 -0.0047 -0.0920 -0.0602
 5301W        W22149   1.824  16.039   4.053  0.1258  0.0094  0.0567
 5302W        W22150  13.968  12.419   4.360  0.3219 -0.0381 -0.1103
 5303W        W22151  16.305  12.994  15.147 -0.2663 -0.2177  0.2637
 5304W        W22152   3.213   6.440   0.288  0.0114 -0.1582  0.0228
 5305W        W22153   3.808   1.463  17.595  0.2373 -0.1112 -0.1301
 5306W        W22154   2.554   4.785   4.946 -0.0638 -0.0091 -0.2579
 5307W        W22155  13.572   3.670   1.547 -0.1310 -0.0353  0.0842
 5308W        W22156   9.045  14.954   4.290 -0.2964  0.1049  0.0083
 5309W        W22157   2.091   1.366   0.925 -0.1928 -0.0431 -0.3375
 5310W        W22158  12.325  13.071  14.166  0.0160  0.0421  0.0389
 5311W        W22159   4.202   8.112  16.879 -0.1190  0.0005  0.3348
 5312W        W22160   4.484   7.804   0.122 -0.0848  0.2805  0.0966
 5313W        W22161   6.918   7.427   2.951  0.1183  0.0764 -0.0079
 5314W        W22162  13.281   6.579  12.337  0.1858  0.1519 -0.2148
 5315W        W22163  13.351  16.916   2.763 -0.0562 -0.2615  0.1514
 5316W        W22164   2.529   6.360   4.873 -0.2471 -0.0985  0.0300
 5317W        W22165   8.437  16.546   3.076  0.0161  0.0152  0.1885
 5318W        W22166  16.872  16.441  17.012  0.3506  0.0905 -0.2117
 5319W        W22167  16.356   1.366   1.736  0.1782  0.3119 -0.0328
 5320W        W22168   0.066   8.118  17.779  0.1443  0.0103  0.1767
 5321W        W22169  11.662  16.434   2.051 -0.0544  0.0547  0.1644
 5322W        W22170  11.415   2.890   5.208  0.4110 -0.3228 -0.1540
 5323W        W22171   9.755  10.115  16.211  0.1222  0.2111 -0.3757
 5324W        W22172   6.523   6.249   2.775 -0.0635 -0.1487  0.0132
 5325W        W22173   5.818   6.589  14.772  0.2555 -0.0717 -0.4647
 5326W        W22174   8.287   4.601  11.895 -0.1670  0.2613  0.1853
 5327W        W22175  10.990   4.741   3.347 -0.3282  0.1129  0.0209
 5328W        W22176   2.978   4.000  16.247 -0.0980 -0.0669  0.0606
 5329W        W22177   5.539   0.051   1.646  0.1450 -0.0401 -0.0958
 5330W        W22178   5.073   5.658   3.028 -0.3802  0.0096  0.3580
 5331W        W22179   2.259   0.820   5.510 -0.0078 -0.2220 -0.0191
 5332W        W22180  14.413   3.278  17.677  0.0724  0.2216 -0.0039
 5333W        W22181  10.358  11.463  17.392  0.0769 -0.3599 -0.1330
 5334W        W22182   7.596  13.652   2.444 -0.0106 -0.1250 -0.1271
 5335W        W22183   0.332  11.570   1.460  0.5022 -0.1390  0.1492
 5336W        W22184  16.057   5.315  13.134 -0.2337  0.3340 -0.2442
 5337W        W22185  10.886   6.630   5.598  0.2414  0.0724  0.1168
 5338W        W22186   1.685  11.577  17.091 -0.3304  0.1889 -0.1177
 5339W        W22187   2.093   6.934   2.886 -0.1687 -0.2188  0.1097
 5340W        W22188   4.232  14.161   0.397 -0.1820 -0.4811 -0.1429
 5341W        W22189  14.506   5.740   4.049  0.0259  0.3207  0.3114
 5342W        W22190  10.934   5.625   4.809  0.1021  0.0274  0.0341
 5343W        W22191   4.543  12.187   0.533 -0.2519  0.0450 -0.2050
 5344W        W22192   3.281   9.702   1.686  0.0755 -0.2347  0.2531
 5345W        W22193   3.009  13.137  14.596 -0.0399  0.4637  0.1316
 5346W        W22194   1.494  14.951  12.932 -0.1840 -0.1191  0.0140
 5347W        W22195   2.602  14.903   3.488 -0.1603  0.1934 -0.5333
 5348W        W22196   4.949   9.553   1.081 -0.1077  0.0204 -0.1255
 5349W        W22197   4.305   5.192   1.266 -0.2360  0.1141 -0.0889
 5350W        W22198   9.191   5.243  16.226 -0.0826  0.1794  0.1553
 5351W        W22199  14.506   9.881  13.643  0.0596 -0.4303  0.4251
 5352W        W22200  16.471   6.708   4.485 -0.3271 -0.0932  0.1603
 5353W        W22201   7.949   7.972   0.700  0.4739  0.2411 -0.0619
 5354W        W22202   3.949  10.894   4.727 -0.0735  0.0674 -0.2521
 5355W        W22203  11.542   1.866  13.869  0.0521  0.1212  0.1756
 5356W        W22204   9.088   5.760   1.035  0.1171 -0.0754  0.3549
 5357W        W22205  15.897  15.029   4.278  0.2699 -0.1600 -0.0752
 5358W        W22206   1.792   1.418   0.311  0.1801 -0.2835 -0.3442
 5359W        W22207   6.817   7.223   5.239 -0.0969 -0.1198  0.0026
 5360W        W22208   6.799   3.995   1.573 -0.2519 -0.0706  0.1804
 5361W        W22209  13.721   4.796  17.669 -0.3122 -0.0166  0.0470
 5362W        W22210  14.557   7.765  12.616 -0.0394  0.1168 -0.0211
 5363W        W22211   1.850  12.297   3.878 -0.4352 -0.0482 -0.0840
 5364W        W22212   5.501  11.635   0.458  0.2833  0.2118 -0.1651
 5365W        W22213  12.331  14.636  15.990 -0.0235  0.2201  0.1352
 5366W        W22214  15.577   2.012  17.721  0.0028  0.1455 -0.2129
 5367W        W22215   0.491  13.873  14.037  0.0110 -0.1331 -0.1895
 5368W        W22216  10.391  16.754   4.217 -0.1243 -0.2022  0.2705
 5369W        W22217  10.800  12.867   1.713 -0.2570 -0.1644  0.2446
 5370W        W22218   0.451   4.230  12.601  0.1060 -0.0235  0.2073
 5371W        W22219  14.887   4.624   5.387  0.2087  0.1787  0.2598
 5372W        W22220  11.293   6.901  13.892  0.0067 -0.1143 -0.0788
 5373W        W22221  16.576   6.110   2.092  0.2051  0.0253  0.2438
 5374W        W22222   3.772   0.966  14.271  0.0020 -0.0206 -0.2829
 5375W        W22223   9.857   7.308  12.995  0.0527 -0.0113  0.0944
 5376W        W22224  10.493   0.903   3.440  0.1215 -0.0737  0.0847
 5377W        W22225  10.512   7.402  12.199  0.3425  0.2841 -0.0027
 5378W        W22226   0.266   9.808   2.152  0.0164 -0.0830  0.0842
 5379W        W22227   7.707  12.573   4.276 -0.0804  0.0188  0.1786
 5380W        W22228   3.144  11.830   0.260 -0.0757 -0.2311 -0.1002
 5381W        W22229   8.615   3.679  17.194 -0.2398  0.1399 -0.4517
 5382W        W22230  16.928  10.557  16.441 -0.0845  0.0680 -0.3524
 5383W        W22231   7.827   2.021  11.904 -0.1616  0.1618  0.0369
 5384W        W22232   9.126  17.007   5.475 -0.1711 -0.0067  0.0931
 5385W        W22233   7.723  11.834   3.093  0.0837 -0.1238 -0.1066
 5386W        W22234   0.717   3.282   1.291  0.0965  0.2568 -0.2072
 5387W        W22235   6.492  14.567   2.481  0.0522  0.0138  0.2358
 5388W        W22236   6.786   0.693   1.943  0.1771  0.2587 -0.0385
 5389W        W22237   2.033  10.041   3.989 -0.2773 -0.1795 -0.2608
 5390W        W22238  11.298   8.967  12.277  0.0242  0.0874  0.0701
 5391W        W22239  12.640  12.803  13.263  0.1677  0.1997  0.2985
 5392W        W22240  11.131   4.081  16.579  0.1170  0.2213 -0.1713
 5393W        W22241   0.305  15.782   3.044  0.0766  0.1652 -0.0183
 5394W        W22242   9.993   7.106  16.728 -0.2599 -0.0521  0.1073
 5395W        W22243  15.343   8.803  16.214  0.1096 -0.1089 -0.2907
 5396W        W22244  14.248   8.760   0.444 -0.0552 -0.1834  0.0134
 5397W        W22245   4.432  12.471   0.961 -0.0541  0.0619 -0.1795
 5398W        W22246   0.442  11.592   0.938 -0.0425 -0.0637  0.0188
 5399W        W22247   4.974  17.015  14.538  0.0726  0.1446  0.0733
 5400W        W22248  14.252  16.969   1.222 -0.0575 -0.1008  0.0919
 5401W        W22249   0.159   3.058   4.064 -0.2047  0.2669  0.0739
 5402W        W22250   3.021  14.548  13.037 -0.0475 -0.0032  0.1072
 5403W        W22251  12.773   8.617  15.092 -0.0905  0.0875 -0.0250
 5404W        W22252   4.457   7.345  13.702 -0.1375  0.1967 -0.1996
 5405W        W22253   1.933  14.531  16.514 -0.1701  0.2858 -0.3089
 5406W        W22254   3.171   8.292   0.797 -0.0040 -0.2444 -0.1239
 5407W        W22255   2.546   4.145  15.230 -0.1936  0.0379  0.2664
 5408W        W22256  10.699   2.230   1.275 -0.2646 -0.2222  0.0407
 5409W        W22257  10.032   4.962  15.135  0.2045 -0.2082  0.0417
 5410W        W22258   1.981   7.376  16.950  0.0273 -0.2914 -0.0726
 5411W        W22259   7.524  10.260  17.184  0.0494  0.1243 -0.0905
 5412W        W22260  13.253   2.561   3.432  0.0417 -0.3077 -0.0430
 5413W        W22261   8.122   1.632  17.636  0.4736 -0.1853  0.0011
 5414W        W22262  17.022   9.472   2.163 -0.1774 -0.0083 -0.1751
 5415W        W22263   3.598   1.809  17.149 -0.1104  0.3405 -0.2622
 5416W        W22264   9.996   0.868   3.415 -0.0030  0.0408 -0.2004
 5417W        W22265  12.399  11.386   3.311 -0.1032  0.1219 -0.2085
 5418W        W22266  13.743   1.799   3.017 -0.0155 -0.1556  0.1168
 5419W        W22267   5.197   6.797  13.541 -0.1145  0.0624  0.0121
 5420W        W22268  16.799  12.247   1.855  0.0763 -0.0312 -0.4206
 5421W        W22269   2.566   2.035   2.729 -0.0203 -0.1727  0.2867
 5422W        W22270   7.956  16.567  12.394 -0.2406 -0.1735  0.1074
 5423W        W22271   0.934  15.332  15.368  0.1215 -0.2021  0.2926
 5424W        W22272  12.220  11.413   0.803  0.0110  0.1374  0.2574
 5425W        W22273   9.857  11.138   3.021  0.0238 -0.1242  0.1289
 5426W        W22274   7.511  11.502  16.792  0.1232 -0.1746  0.0207
 5427W        W22275  10.638   0.519   3.750 -0.3179 -0.0187 -0.0195
 5428W        W22276  16.268  12.178   2.271 -0.2352 -0.2159  0.1263
 5429W        W22277  11.725   6.908  11.943  0.1788  0.0631 -0.3212
 5430W        W22278  10.019   5.167  16.689 -0.2947  0.0257 -0.3376
 5431W        W22279  14.738   4.219   2.267 -0.1956  0.0568  0.1848
 5432W        W22280   5.434   8.294  14.324  0.0449  0.0094 -0.2569
 5433W        W22281  11.517   0.613  14.241  0.0321 -0.1344  0.3408
 5434W        W22282   6.497  16.750  14.528  0.4765 -0.1108  0.1547
 5435W        W22283  10.864  13.258   0.759 -0.1936 -0.0510  0.0788
 5436W        W22284  15.819  10.034   3.859  0.3078  0.4497  0.1194
 5437W        W22285  12.431   8.379   0.708  0.0059 -0.2441 -0.0336
 5438W        W22286   8.274  12.764   0.423 -0.0983 -0.0756 -0.0142
 5439W        W22287  16.380   8.815  17.127  0.1074  0.2206 -0.1411
 5440W        W22288   6.576   6.385   5.189 -0.1320 -0.0647 -0.1836
 5441W        W22289   0.812   4.553   4.759 -0.2064  0.2697  0.5437
 5442W        W22290   5.362   0.441  12.950 -0.2501 -0.1828 -0.0224
 5443W        W22291  14.460   8.337   3.002  0.4233 -0.0168 -0.1198
 5444W        W22292  10.924   5.100   0.117 -0.4512 -0.0586  0.0557
 5445W        W22293   9.380  16.673  16.701  0.3994 -0.1245  0.3501
 5446W        W22294   2.112   5.356   1.304  0.0817  0.3148  0.3139
 5447W        W22295   4.800  15.626   1.105 -0.0585  0.3798 -0.0482
 5448W        W22296  13.077  13.114   2.285  0.0584  0.0297  0.3530
 5449W        W22297  14.194  10.062  12.924 -0.2178 -0.1048 -0.2511
 5450W        W22298   6.761   2.599  13.470 -0.1977 -0.3502  0.0559
 5451W        W22299   0.561   8.117   2.236 -0.2079 -0.2175  0.2600
 5452W        W22300   9.210   7.791  17.612  0.1666  0.1598 -0.4578
 5453W        W22301   2.560   3.105   3.196 -0.0320 -0.3548  0.1289
 5454W        W22302   9.761   3.044   0.743  0.2448 -0.0988  0.1321
 5455W        W22303   1.981  10.462   0.008 -0.0719 -0.2440  0.3062
 5456W        W22304  16.476  10.886  12.148 -0.0161 -0.2000  0.3681
 5457W        W22305  13.829   8.653  10.903 -0.1249  0.3258 -0.0360
 5458W        W22306  13.589   2.897   4.080  0.1224 -0.3683  0.2003
 5459W        W22307   3.191  12.041  13.183  0.0233 -0.4321  0.2347
 5460W        W22308   6.114   0.064   2.157 -0.0983  0.0868  0.1461
 5461W        W22309  13.854  12.448   1.263  0.3112 -0.0538 -0.0473
 5462W        W22310   7.367  13.790  13.751 -0.1382 -0.1440  0.4452
 5463W        W22311   4.077  12.855   6.514  0.1400  0.3027  0.0530
 5464W        W22312  15.857  13.289   3.609  0.0870  0.2090 -0.0420
 5465W        W22313   3.110   9.685  13.998 -0.2461  0.1748 -0.1281
 5466W        W22314  11.909  13.816  13.862  0.2549  0.0404  0.0113
 5467W        W22315   0.222   3.439  12.015  0.0098  0.1736  0.1552
 5468W        W22316  13.897   2.549   4.931  0.0463  0.1076 -0.3132
 5469W        W22317  14.104  14.183  15.931  0.0598 -0.1517  0.1454
 5470W        W22318   8.777  10.698  13.090 -0.0848  0.1130 -0.1686
 5471W        W22319  13.630  14.570   3.274  0.0170  0.0448  0.0046
 5472W        W22320  14.094  16.366   2.378  0.0459  0.1740  0.1717
 5473W        W22321  10.537  16.406   0.351  0.1100  0.1119 -0.1124
 5474W        W22322  10.280  15.224   1.869 -0.0888 -0.0212  0.1754
 5475W        W22323  10.847   2.388  12.162 -0.0791 -0.0812  0.2757
 5476W        W22324  14.187   9.898  15.017 -0.1026  0.0061 -0.1181
 5477W        W22325  13.766   2.394  11.743 -0.2962  0.1635 -0.1828
 5478W        W22326  17.153  15.194  16.829 -0.0181  0.0825  0.0444
 5479W        W22327   6.150  15.897   3.238  0.1155 -0.0119 -0.0377
 5480W        W22328  16.720   0.262  17.359  0.2109 -0.1210 -0.2196
 5481W        W22329  12.917  13.116   3.239 -0.0653  0.0944 -0.0446
 5482W        W22330   1.367   5.621   3.308 -0.1820  0.0583  0.1283
 5483W        W22331   2.070   6.546  14.348  0.1015  0.2375 -0.0709
 5484W        W22332  11.906   8.802   1.336 -0.0263 -0.1565 -0.0342
 5485W        W22333   0.398   6.307   5.611  0.1012  0.2329  0.1023
 5486W        W22334   6.182  16.393  13.486 -0.1548  0.1147  0.1068
 5487W        W22335   9.535  16.774   2.255  0.0897 -0.1857 -0.0485
 5488W        W22336  14.269  15.020  12.526  0.3134  0.0408  0.3428
 5489W        W22337   3.528  15.777  16.775  0.0934  0.2356  0.3126
 5490W        W22338  14.028   0.834  13.718 -0.3521 -0.2439 -0.2062
 5491W        W22339  11.971  14.011  14.317 -0.0762 -0.2582 -0.3359
 5492W        W22340  13.048   6.321  14.707 -0.0307 -0.0703 -0.0959
 5493W        W22341  15.139  17.151   0.450 -0.0937  0.3521  0.3551
 5494W        W22342   7.960  14.183  17.699  0.0852 -0.1233  0.0373
 5495W        W22343  15.088   6.023  16.202  0.0927  0.0811  0.0509
 5496W        W22344   7.641   4.281   3.784  0.0503 -0.3216 -0.1562
 5497W        W22345  15.804   0.166  13.925 -0.4073 -0.0676  0.1616
 5498W        W22346   6.871   3.000  12.642 -0.1186  0.1262  0.2180
 5499W        W22347   6.346  14.964   0.473  0.1460  0.3751 -0.2350
 5500W        W22348   8.506  12.906  13.520 -0.0734  0.2529  0.2269
 5501W        W22349  12.249  10.823  16.324  0.1678 -0.0703  0.3255
 5502W        W22350  14.702   9.812  16.056  0.0941 -0.0972  0.1218
 5503W        W22351  11.077   3.925  17.575 -0.0335  0.0262  0.1398
 5504W        W22352   7.567  16.465   3.377 -0.0930 -0.0762  0.0506
 5505W        W22353  10.948   4.261   3.491  0.1283 -0.1234 -0.0883
 5506W        W22354   3.542  14.985  13.181  0.0581 -0.1516 -0.0065
 5507W        W22355   8.293   4.416   0.478  0.0035 -0.0256  0.1527
 5508W        W22356  10.700   8.997  14.042 -0.0830  0.1944 -0.3131
 5509W        W22357  14.439  12.021  15.410  0.0552  0.2060  0.2491
 5510W        W22358  11.869   5.201  12.193 -0.1491 -0.0639  0.1131
 5511W        W22359   8.170  15.022   0.673  0.3538 -0.1365  0.0607
 5512W        W22360  15.487  12.903   1.019  0.0085  0.1767  0.0579
 5513W        W22361  14.138   6.213  13.914  0.0514 -0.0209 -0.1063
 5514W        W22362  11.643  11.172  16.116  0.1657  0.1404 -0.0444
 5515W        W22363   6.517  13.407  14.005 -0.0698 -0.1004 -0.2692
 5516W        W22364   5.203   1.742   5.157 -0.1091 -0.0092 -0.0182
 5517W        W22365   8.272  11.943   3.131 -0.0783 -0.0179  0.0574
 5518W        W22366   0.418  10.169   4.406 -0.0757 -0.1948 -0.0664
 5519W        W22367   5.628   9.565  12.856 -0.0616  0.3216  0.1993
 5520W        W22368   5.433  11.600  16.123  0.0618  0.1049  0.0041
 5521W        W22369   8.336  16.675  11.892 -0.1526  0.1444 -0.2220
 5522W        W22370   0.891  15.412  16.389 -0.0259  0.2948  0.0770
 5523W        W22371  13.071   7.662  13.669 -0.2117 -0.0979  0.3329
 5524W        W22372  12.781   8.655  16.512 -0.3646 -0.3576  0.0738
 5525W        W22373   7.554   7.842  13.050  0.1066 -0.1924  0.1987
 5526W        W22374   4.098   7.355   6.041  0.0369 -0.1181 -0.0136
 5527W        W22375   5.414  16.094   6.055 -0.0083 -0.0134  0.4002
 5528W        W22376   3.006   2.688  12.917  0.3713 -0.1465 -0.0954
 5529W        W22377   7.364   5.313  16.425 -0.0675 -0.2687 -0.1525
 5530W        W22378   9.697  13.301  16.137 -0.0963 -0.0772  0.0262
 5531W        W22379  16.644   3.606  16.279 -0.0436 -0.3424 -0.2590
 5532W        W22380   6.789   9.815  12.745  0.0322 -0.3549 -0.0152
 5533W        W22381   2.667  14.322  14.437 -0.1037 -0.0454 -0.1757
 5534W        W22382  13.730  15.191  14.330  0.1162 -0.0888 -0.2854
 5535W        W22383  11.640   1.973  12.326  0.0919 -0.0377  0.0948
 5536W        W22384  15.022   8.385   3.259  0.0914 -0.1954  0.1704
 5537W        W22385  10.782  16.801  16.829 -0.0534  0.1646 -0.1583
 5538W        W22386  13.801   8.454   0.443  0.4567 -0.0373  0.1608
 5539W        W22387  10.389  13.454  15.662  0.0032  0.0300 -0.2310
 5540W        W22388  13.269   0.786   3.074  0.1412  0.1888 -0.2321
 5541W        W22389   0.463  13.048  14.558 -0.2572  0.4319 -0.2492
 5542W        W22390  16.789   2.713  12.899 -0.0705  0.3900  0.2378
 5543W        W22391  16.372  14.695  17.160 -0.0286 -0.0524 -0.3474
 5544W        W22392  14.808  16.466  12.213  0.2074 -0.1336  0.0530
 5545W        W22393  13.329  13.062  15.626 -0.2382 -0.0096 -0.2776
 5546W        W22394  15.480   7.815  16.023  0.0406 -0.1726  0.0854
 5547W        W22395   3.373   7.303   0.148  0.0012  0.0740 -0.1993
 5548W        W22396   5.514   1.796  13.461 -0.0418  0.1406  0.3487
 5549W        W22397   3.808  10.473  17.080  0.1985 -0.0528 -0.2418
 5550W        W22398  14.505   7.065   1.802 -0.1494 -0.1158  0.0169
 5551W        W22399  16.880  11.024  16.694 -0.1580  0.2297 -0.5063
 5552W        W22400  12.777   6.937  16.302  0.2784 -0.2089 -0.0719
 5553W        W22401  15.212   8.432  13.591  0.2477 -0.1046 -0.1652
 5554W        W22402   5.439   9.547   1.171  0.0249  0.0001 -0.0741
 5555W        W22403  15.400   1.890  14.181  0.0928 -0.0450  0.0669
 5556W        W22404  14.809  10.356   2.205 -0.1673 -0.0456  0.0210
 5557W        W22405  11.901   0.680  14.539  0.0101  0.0741 -0.2024
 5558W        W22406  11.410  13.948  17.534 -0.1452  0.1143 -0.5947
 5559W        W22407  13.664   7.774  11.682 -0.0956 -0.0016  0.1440
 5560W        W22408  16.259  12.633  15.608  0.1265 -0.3455  0.1383
 5561W        W22409  11.877   2.837  15.190  0.2066  0.5746  0.1858
 5562W        W22410   2.942  12.995  15.385 -0.1634  0.1179  0.0079
 5563W        W22411   5.070   9.494  12.807 -0.2103  0.0133  0.0186
 5564W        W22412   1.591   5.734   5.632  0.2643 -0.3649  0.0367
 5565W        W22413   4.098   0.087  15.633 -0.3096  0.3070 -0.1982
 5566W        W22414  12.005  14.660  15.658 -0.0893  0.0907  0.0852
 5567W        W22415  16.334  13.021   2.987  0.1041 -0.0048 -0.0102
 5568W        W22416   7.765   8.679   2.513  0.1960  0.0642 -0.2257
 5569W        W22417   1.082   8.592   5.173 -0.0421  0.0693  0.2079
 5570W        W22418  10.150   8.245  14.354 -0.0869 -0.1696 -0.2400
 5571W        W22419   7.388   5.825  14.991  0.0038 -0.2674 -0.1222
 5572W        W22420  10.241  16.773  16.143  0.3142  0.0640  0.1478
 5573W        W22421   0.747   3.217  15.775  0.0425  0.1422 -0.3224
 5574W        W22422  12.532   9.643   3.888  0.0185 -0.2798 -0.1070
 5575W        W22423   4.616  15.472   2.399 -0.1567 -0.3623  0.4226
 5576W        W22424   8.062  11.793  12.547 -0.1199 -0.1416  0.1118
 5577W        W22425   3.117  10.378   2.154  0.2448  0.0061  0.0938
 5578W        W22426  16.009   0.033   2.729 -0.3126  0.3357  0.0546
 5579W        W22427  14.953   0.141  11.753  0.1269 -0.0822  0.1100
 5580W        W22428   8.775  12.861  16.504  0.2773  0.0979 -0.2937
 5581W        W22429   6.745   4.447  13.446 -0.0095  0.0487  0.0912
 5582W        W22430  12.903   9.798  14.402 -0.2509 -0.2892  0.4501
 5583W        W22431  11.084   1.479  12.726  0.2021  0.2229  0.6182
 5584W        W22432  15.299   0.451   0.308  0.1101 -0.3376 -0.1457
 5585W        W22433   5.774  16.905   3.099 -0.1448 -0.0684  0.2649
 5586W        W22434   8.792  14.606  12.906  0.0344  0.0477  0.2082
 5587W        W22435   4.641   1.373   0.904  0.0197 -0.0036  0.1763
 5588W        W22436  13.312  14.448  16.988  0.1191  0.1635  0.0093
 5589W        W22437   3.441   2.485   0.017  0.1169  0.2594  0.4253
 5590W        W22438  14.525  11.598   4.411  0.3192 -0.2134 -0.0831
 5591W        W22439  12.244   6.337  13.700  0.1709  0.1657  0.0706
 5592W        W22440   9.184   3.544   1.802 -0.2832 -0.1671 -0.2314
 5593W        W22441  11.217   6.601  15.050 -0.0009 -0.0295  0.0845
 5594W        W22442  11.474   6.195  16.873  0.1105 -0.4072 -0.3667
 5595W        W22443   4.771  15.680  16.592 -0.0004  0.1529  0.0820
 5596W        W22444   9.458   2.591  15.822  0.1629 -0.0526  0.2039
 5597W        W22445   6.982  15.929  12.737  0.0174  0.3030  0.2965
 5598W        W22446  16.172  16.613   5.036  0.3681  0.2967 -0.1042
 5599W        W22447  13.829  11.436  12.155 -0.0453  0.0622 -0.2548
 5600W        W22448  15.936   9.612   5.128 -0.2125  0.0982  0.1414
 5601W        W22449   5.045   8.478   5.566 -0.3798 -0.0679 -0.0738
 5602W        W22450   4.255  16.236   3.928 -0.1421 -0.1869  0.0825
 5603W        W22451   7.990   5.952  16.933 -0.2152  0.0727  0.2025
 5604W        W22452   3.836   7.165   3.344 -0.0586 -0.2460 -0.1591
 5605W        W22453   2.030  14.932   0.991 -0.2830  0.0202 -0.0011
 5606W        W22454   2.231  13.998   2.562 -0.0112  0.0220 -0.1630
 5607W        W22455  16.874  10.775   4.999 -0.1492  0.0516 -0.1037
 5608W        W22456   4.055  11.228   1.511 -0.3345 -0.1455  0.3419
 5609W        W22457   4.009   2.660  16.317 -0.1227 -0.5200  0.0615
 5610W        W22458   2.560  13.897  14.731  0.1042 -0.3689 -0.0649
 5611W        W22459   6.944  13.818  17.502  0.1856  0.2515 -0.0176
 5612W        W22460  16.251   5.954   1.703  0.3527 -0.0951  0.0700
 5613W        W22461   2.814   2.112   1.519 -0.0243 -0.3759 -0.2130
 5614W        W22462   1.178   8.654   3.545 -0.1482 -0.3212 -0.2494
 5615W        W22463   3.979   7.654  14.813 -0.3509 -0.2540 -0.2014
 5616W        W22464   4.799  11.880   0.978 -0.2571  0.1535  0.4233
 5617W        W22465  12.866   9.891   0.517  0.1725  0.0409 -0.2810
 5618W        W22466   6.816  14.745   2.157  0.1932 -0.0881 -0.0233
 5619W        W22467   9.597   4.853   0.242  0.1796  0.1438  0.1441
 5620W        W22468  12.142  16.535   2.051  0.3145 -0.0051 -0.1111
 5621W        W22469   6.567  16.619  13.184 -0.1072 -0.1799 -0.0757
 5622W        W22470   4.823   7.597  12.371  0.3197 -0.2628  0.2325
 5623W        W22471  16.285  14.857   5.254 -0.4085 -0.1240  0.1969
 5624W        W22472   6.700  16.238   1.437 -0.1353  0.2609 -0.0499
 5625W        W22473   4.142  11.408  17.724  0.2124  0.1040 -0.0504
 5626W        W22474  16.203  12.818  17.147 -0.0726  0.1830 -0.0804
 5627W        W22475  13.586   8.499   1.894  0.0987  0.3036  0.2145
 5628W        W22476  16.534  14.675  14.715  0.2769  0.0230  0.3160
 5629W        W22477  12.180   2.025  16.557 -0.2907 -0.0669 -0.0141
 5630W        W22478   4.106  11.716  12.391 -0.0074 -0.0181 -0.2529
 5631W        W22479   8.635  16.487   2.399  0.0859 -0.0306  0.1019
 5632W        W22480   4.636   2.803  14.196  0.2920  0.1242 -0.0054
 5633W        W22481   9.141  12.061  16.550 -0.1369 -0.0375 -0.0370
 5634W        W22482  11.997   1.684   1.903  0.0669 -0.0256 -0.1083
 5635W        W22483   9.036  15.924   3.651 -0.2161  0.3141 -0.0607
 5636W        W22484   2.094  14.490  17.439  0.0746 -0.1847 -0.2130
 5637W        W22485   8.509  16.251   4.877  0.1701  0.2155  0.0851
 5638W        W22486  14.144   0.180  14.474 -0.0951 -0.0155  0.0590
 5639W        W22487  16.232   8.044  14.741  0.1112  0.0222  0.2279
 5640W        W22488  12.725   7.397  15.026  0.2529 -0.1738  0.3158
 5641W        W22489   0.868   3.063   2.197  0.0207 -0.0746 -0.4016
 5642W        W22490   5.070  15.293   3.251  0.0233  0.0357 -0.2518
 5643W        W22491   2.294   2.083   5.724 -0.1721  0.0447 -0.1609
 5644W        W22492  11.715   8.249   1.275 -0.1313  0.0644  0.0142
 5645W        W22493   9.487  11.073   4.130  0.0652  0.0941  0.0738
 5646W        W22494   8.673   9.690   4.657  0.2609  0.0621  0.0424
 5647W        W22495  16.756   9.334  12.470 -0.5116  0.1159 -0.0982
 5648W        W22496   2.047   3.886  11.526 -0.1574 -0.2390  0.1374
 5649W        W22497   6.529   4.746  17.000 -0.1259 -0.0499  0.2091
 5650W        W22498   1.336   4.623   4.022 -0.0890 -0.0210 -0.2151
 5651W        W22499  16.246  10.464   0.577  0.1416 -0.3529  0.0132
 5652W        W22500  11.667   9.727   2.788  0.3767 -0.1101  0.0999
 5653W        W22501  11.313   8.300   0.835 -0.0466 -0.0362 -0.1676
 5654W        W22502   6.837   8.728   2.979 -0.0513 -0.1450  0.0227
 5655W        W22503  11.671   1.061   1.001  0.1441 -0.0498 -0.2420
 5656W        W22504   8.396  12.126  15.491  0.1769 -0.3742  0.0160
 5657W        W22505  12.102  12.434  12.678  0.1021  0.3075 -0.2280
 5658W        W22506  11.031  16.590  14.393  0.1261 -0.0047  0.3113
 5659W        W22507  10.373  15.071  12.164 -0.1096 -0.0384  0.2306
 5660W        W22508   6.502   3.835   0.399  0.0525 -0.1117  0.1887
 5661W        W22509  12.147  15.373   2.557  0.0843  0.2174 -0.0485
 5662W        W22510   8.100   4.887  17.548  0.1179  0.0742  0.3958
 5663W        W22511  14.194  11.142  17.238 -0.1174  0.4080  0.0406
 5664W        W22512  11.821   4.501  11.747  0.2139  0.0486  0.0190
 5665W        W22513   4.157   5.947   2.258 -0.0093 -0.0728 -0.1424
 5666W        W22514  15.939  16.460  16.703  0.0188 -0.1906 -0.1317
 5667W        W22515  13.357   5.336  11.625  0.4206  0.1907  0.2201
 5668W        W22516   6.441   3.911  13.886  0.4218  0.1638 -0.1168
 5669W        W22517  14.274   2.704  14.030 -0.1057 -0.3432 -0.0911
 5670W        W22518   9.857   7.980   4.493  0.0154  0.0542  0.2554
 5671W        W22519  15.279  11.843  15.275  0.0361 -0.1026  0.1390
 5672W        W22520   3.897   2.284   2.962 -0.1157 -0.0309  0.2168
 5673W        W22521   7.460  15.081   1.443 -0.0484 -0.0155 -0.0131
 5674W        W22522  10.707   7.369   3.463  0.3514  0.0866 -0.1541
 5675W        W22523  10.915  12.137   4.226 -0.0064  0.2926 -0.1238
 5676W        W22524   9.458   2.921  14.026 -0.2318  0.1781 -0.0572
 5677W        W22525   6.632   8.229  13.302 -0.3183  0.0587 -0.0776
 5678W        W22526   1.348   4.208  13.150  0.0448 -0.0645 -0.3168
 5679W        W22527   7.472   6.375  15.998 -0.1794 -0.3522  0.0657
 5680W        W22528  14.917   3.501  14.115 -0.1928  0.3853 -0.0795
 5681W        W22529   0.567   7.335  15.530  0.0724  0.0009 -0.0684
 5682W        W22530   5.644  10.405   4.882 -0.3011  0.0100 -0.2828
 5683W        W22531   2.524   4.942  17.334  0.0678  0.0424  0.3255
 5684W        W22532  14.644   5.862   4.717  0.0010 -0.1062 -0.0209
 5685W        W22533  15.996  10.347  15.513 -0.2551 -0.2086 -0.1912
 5686W        W22534  10.955   9.253   5.658  0.3046 -0.0843  0.0469
 5687W        W22535   9.224  12.725   4.912 -0.0401  0.0244 -0.0498
 5688W        W22536  16.636   4.994  16.182 -0.0818  0.2126  0.1494
 5689W        W22537  15.990  15.814  12.590 -0.1809 -0.2179 -0.1787
 5690W        W22538  14.082  15.479  14.552 -0.0349 -0.0025  0.4084
 5691W        W22539  16.831  12.508   4.299 -0.2229  0.2312 -0.0438
 5692W        W22540  15.861   3.381  12.651 -0.3439  0.1819  0.1948
 5693W        W22541  11.342   9.591   3.449 -0.1950  0.1298  0.3443
 5694W        W22542   7.009  10.418  14.790  0.0545 -0.0227  0.1273
 5695W        W22543  13.724   8.382  17.612  0.0489  0.0400 -0.0303
 5696W        W22544  14.281  15.780   5.016 -0.2154  0.0594  0.0066
 5697W        W22545   5.613  12.118   1.341 -0.1914  0.0817 -0.4133
 5698W        W22546   8.899   2.822  17.638  0.2730  0.0591 -0.0894
 5699W        W22547   7.587   9.157  14.674 -0.0696  0.1240  0.0800
 5700W        W22548   4.617   1.586   3.934 -0.0388 -0.2024  0.0992
 5701W        W22549   1.536   1.085   3.628 -0.0832  0.3016 -0.1535
 5702W        W22550   9.734  15.030   1.838  0.1455 -0.0414 -0.0256
 5703W        W22551  12.795  11.093   1.226 -0.1679 -0.0496 -0.0582
 5704W        W22552   4.363  16.803   0.205 -0.0500  0.0838 -0.0656
 5705W        W22553   9.473   1.518   4.572  0.0128 -0.0148 -0.1123
 5706W        W22554  16.168   8.959  15.691 -0.1925  0.0265 -0.0010
 5707W        W22555  14.623  11.084   3.054  0.3150 -0.3528  0.0969
 5708W        W22556   0.051  10.118  12.135 -0.2181 -0.0282  0.2177
 5709W        W22557   1.933   7.516   4.299  0.0428 -0.0387 -0.2577
 5710W        W22558   8.768   6.389   1.922  0.3279 -0.3404  0.1874
 5711W        W22559   8.537   8.843  12.441  0.0185 -0.2768 -0.2682
 5712W        W22560   7.252   0.946  15.554 -0.3031  0.0903  0.0760
 5713W        W22561  16.067   8.909  12.038  0.1761 -0.1092  0.1764
 5714W        W22562   3.800  12.726   6.918  0.2489  0.1851  0.1184
 5715W        W22563   8.981   0.801   3.561  0.2787 -0.2332  0.2907
 5716W        W22564   1.590  15.960  14.299 -0.0596 -0.0768  0.0750
 5717W        W22565  15.751   6.746  14.711 -0.5710  0.0099  0.1771
 5718W        W22566  15.525   7.033   0.117  0.1684 -0.0879 -0.1255
 5719W        W22567  12.518   1.420  11.371 -0.4416  0.1515  0.1859
 5720W        W22568  10.358   6.481  15.356  0.2185  0.0448 -0.0695
 5721W        W22569  13.562   5.047   1.516 -0.1802  0.1752 -0.2657
 5722W        W22570   4.064   8.576   2.074 -0.2811  0.0673  0.2235
 5723W        W22571   8.266   9.986  13.723  0.2212 -0.0502 -0.0492
 5724W        W22572  10.695   5.954   1.455 -0.1691 -0.0672 -0.0661
 5725W        W22573   5.665   4.352   5.294  0.0480  0.0881  0.0946
 5726W        W22574   1.481   7.941   0.538  0.1572  0.2807  0.2349
 5727W        W22575  12.494  14.678  13.249  0.1504 -0.0764 -0.3089
 5728W        W22576   4.611  16.684   2.791 -0.3196  0.3536 -0.0585
 5729W        W22577   9.047  15.679   4.397 -0.0559 -0.2827 -0.0371
 5730W        W22578  15.788   1.149   2.295 -0.0602 -0.2492 -0.2657
 5731W        W22579  11.913   1.009   4.535  0.0688 -0.1692 -0.0414
 5732W        W22580   0.201  11.166   0.150 -0.4775  0.0908 -0.1677
 5733W        W22581   7.967  13.585  16.022  0.0075  0.1993  0.3116
 5734W        W22582   0.288  15.541   2.593  0.1269 -0.0249  0.0453
 5735W        W22583   8.575   1.772  17.672 -0.1092 -0.1651 -0.0691
 5736W        W22584   3.403   9.289  16.356 -0.1738  0.1611 -0.2329
 5737W        W22585  14.274   9.681   3.747 -0.0507  0.2933 -0.1887
 5738W        W22586  12.370  11.113  12.758  0.0440  0.0149 -0.0164
 5739W        W22587   6.585   2.832   3.087 -0.0497  0.0104  0.3571
 5740W        W22588  13.568  16.315  16.938 -0.3205 -0.0458  0.0732
 5741W        W22589   6.744   0.073   4.459  0.1986 -0.3058 -0.0505
 5742W        W22590   8.995  16.161  15.362 -0.0405  0.1617 -0.1326
 5743W        W22591  13.330  15.361  17.437  0.2761 -0.2148 -0.1845
 5744W        W22592  12.598   9.032  16.205  0.3948 -0.1408  0.1578
 5745W        W22593   8.868  16.020   1.808 -0.1051  0.2379 -0.1820
 5746W        W22594   0.217   6.328  14.328 -0.2568 -0.2106  0.0350
 5747W        W22595   0.901   2.195  12.925 -0.4088  0.3168  0.1492
 5748W        W22596   1.807  15.041   1.444  0.1043  0.1841 -0.2170
 5749W        W22597   6.256   3.320   4.374  0.1958 -0.1384  0.0076
 5750W        W22598   7.738   8.221  11.007  0.1002  0.3067  0.0710
 5751W        W22599   8.946   1.865   5.149 -0.0464 -0.1663  0.1061
 5752W        W22600  12.416   1.971   1.871  0.4318  0.2976 -0.0649
 5753W        W22601   2.889   5.786   3.622  0.1631  0.0625 -0.1259
 5754W        W22602   9.533  16.012   5.100  0.0280  0.1866  0.0550
 5755W        W22603   3.928   6.944  14.631 -0.0223 -0.2511 -0.2692
 5756W        W22604  15.208   3.727  16.861 -0.1738 -0.0106  0.2077
 5757W        W22605   9.949   8.932   4.673 -0.3874  0.0894 -0.0815
 5758W        W22606  10.362  15.360  17.073  0.1511 -0.0427 -0.1097
 5759W        W22607   1.186   3.385   2.438  0.2300  0.1202 -0.1639
 5760W        W22608  12.457  12.441   2.498 -0.1347 -0.2815  0.0405
 5761W        W22609  16.722  17.027   0.004 -0.1713  0.1963  0.0879
 5762W        W22610  10.542   1.516  17.446  0.2222  0.0667 -0.2440
 5763W        W22611   7.036   8.017   2.098  0.3064 -0.1499 -0.0253
 5764W        W22612  11.888  12.785  14.231 -0.1978 -0.0648 -0.2928
 5765W        W22613  15.789  12.381  15.939 -0.1733 -0.1016 -0.1851
 5766W        W22614  15.662  13.194   1.982 -0.0734  0.1829 -0.1798
 5767W        W22615   3.777  14.026   3.663 -0.1504  0.0636 -0.3094
 5768W        W22616  15.982  13.237   2.653 -0.0138 -0.1683 -0.2870
 5769W        W22617  17.055   2.492   5.614 -0.1804  0.2591 -0.1742
 5770W        W22618   8.310  15.833  16.594 -0.1864 -0.0874  0.1015
 5771W        W22619   2.592  16.070  12.855 -0.0696  0.2381  0.1521
 5772W        W22620  13.643   9.336   5.115  0.0090  0.0770  0.3652
 5773W        W22621   0.512   8.143   3.050  0.1686 -0.2914 -0.1257
 5774W        W22622   0.653   4.558   5.221  0.0738 -0.2402 -0.1696
 5775W        W22623   0.296  14.598   0.334 -0.1683  0.1803 -0.2827
 5776W        W22624  15.506  12.753  17.763 -0.0055 -0.4535  0.2463
 5777W        W22625   5.328   9.212   1.483 -0.0382  0.0480  0.0654
 5778W        W22626   4.038   5.896   0.529  0.0907  0.0317 -0.2203
 5779W        W22627  16.056  14.451   0.776 -0.1006 -0.0046  0.2643
 5780W        W22628   3.912  11.287  15.401 -0.0260  0.1253  0.2230
 5781W        W22629   5.066   6.032  17.757 -0.0814 -0.1409  0.0559
 5782W        W22630   8.875  12.525  12.381  0.0686  0.2130  0.1344
 5783W        W22631  14.838   6.108  14.071  0.2489 -0.1856 -0.0001
 5784W        W22632   4.585   8.034   2.778 -0.2450  0.2041  0.1446
 5785W        W22633  16.743  13.610   5.782 -0.0651  0.3520 -0.2631
 5786W        W22634  10.613   3.543  16.920  0.0243 -0.0001 -0.0742
 5787W        W22635   2.371   4.655   3.533  0.3000  0.0601 -0.0679
 5788W        W22636   7.124   2.229   5.416  0.1639 -0.0915 -0.0585
 5789W        W22637  16.089   8.637   1.387 -0.2795  0.0873  0.4265
 5790W        W22638   2.253   9.275  17.503  0.2221  0.0623 -0.1167
 5791W        W22639   7.532   0.479  13.830 -0.0250 -0.2563  0.1050
 5792W        W22640  11.784  14.550   4.241  0.0182 -0.3159  0.5281
 5793W        W22641  11.609  15.649   1.264 -0.0533  0.2176  0.0616
 5794W        W22642   4.258  10.602  13.759 -0.1154 -0.1187  0.1723
 5795W        W22643  14.462   7.019  14.169 -0.2010 -0.0049 -0.1312
 5796W        W22644   1.718  14.814   2.301 -0.0300 -0.1615 -0.1034
 5797W        W22645  16.039  12.882   3.477  0.1068  0.1173  0.1910
 5798W        W22646   1.473  14.974   2.696  0.0458 -0.2085 -0.0244
 5799W        W22647   9.917  15.431   2.156  0.1527  0.0092 -0.1238
 5800W        W22648   6.108   5.346   1.318 -0.0476 -0.2309 -0.2333
 5801W        W22649   7.830   1.367  14.122  0.2547 -0.1003  0.1251
 5802W        W22650   3.399   4.948  11.695  0.1106 -0.1702 -0.1559
 5803W        W22651   8.105   7.324  16.581  0.0779 -0.0392 -0.0855
 5804W        W22652   0.988   2.682  13.102  0.3119  0.1490  0.0835
 5805W        W22653   8.428   7.528  14.652  0.2337  0.0299 -0.1586
 5806W        W22654   7.848   7.798  13.864 -0.0409  0.0919 -0.1344
 5807W        W22655  10.067   6.401   5.818  0.0606  0.1693  0.1592
 5808W        W22656  11.264   9.872  16.606 -0.1398 -0.4206 -0.0405
 5809W        W22657   9.946  12.720   4.316 -0.1341 -0.0742 -0.3402
 5810W        W22658   5.974  16.396   4.335  0.1626 -0.2253  0.0787
 5811W        W22659   2.894   4.269  13.939 -0.0691 -0.0620 -0.0457
 5812W        W22660  12.577  13.267   0.921  0.1126 -0.2550  0.0794
 5813W        W22661  14.151  14.707  16.051  0.3285  0.0049 -0.1648
 5814W        W22662  13.118   1.171   2.688  0.1388 -0.3522  0.1644
 5815W        W22663   6.270   2.774   2.143 -0.1583  0.0477  0.1452
 5816W        W22664  15.094   6.443  15.865 -0.0754  0.1109 -0.1088
 5817W        W22665  11.606  11.041   1.886 -0.2161 -0.1584  0.1012
 5818W        W22666   8.741   3.145  15.067  0.1029 -0.2398 -0.0193
 5819W        W22667  12.126  16.872  13.104  0.1497  0.1756  0.1330
 5820W        W22668  16.380  13.467  14.798 -0.2133 -0.2920 -0.0146
 5821W        W22669  14.928   4.078  17.705 -0.2904  0.0827  0.0609
 5822W        W22670   3.980   6.782  12.296  0.1521 -0.0465 -0.4596
 5823W        W22671   9.212  17.037   2.876  0.0690 -0.1973  0.0570
 5824W        W22672   9.504   1.592  11.909  0.2385  0.0964 -0.0073
 5825W        W22673   0.221  10.497  13.024 -0.1965  0.2761  0.0539
 5826W        W22674   4.309  11.649   5.355  0.1637  0.1994 -0.1753
 5827W        W22675  14.396   5.808  14.261  0.0126 -0.3921 -0.3059
 5828W        W22676  11.422   1.220  13.915 -0.0759 -0.0943  0.2066
 5829W        W22677  10.285  10.441   3.550 -0.0634  0.0683  0.2267
 5830W        W22678  14.514   6.477   3.444 -0.3676 -0.1012 -0.1641
 5831W        W22679  15.127  16.707  15.680 -0.1057  0.0794 -0.0181
 5832W        W22680   5.901  14.355   4.952  0.0972  0.3205 -0.0159
 5833W        W22681  14.447   0.073  14.076 -0.3355 -0.3414  0.0927
 5834W        W22682   5.183   9.483   5.121  0.0121 -0.3801  0.1445
 5835W        W22683  10.556   3.929   3.514 -0.2697 -0.0563  0.0844
 5836W        W22684   9.162   5.650  17.728  0.1198  0.1670  0.2045
 5837W        W22685  14.785   9.178  14.737  0.2261 -0.1104 -0.0774
 5838W        W22686   6.335   0.125  17.613  0.2161  0.0534 -0.2301
 5839W        W22687   4.174   0.892  13.373 -0.1453 -0.0874  0.0856
 5840W        W22688  11.133  11.863  12.187  0.3414  0.1520  0.2488
 5841W        W22689  13.226  11.111   0.862  0.2660 -0.0444  0.3620
 5842W        W22690   2.954   6.647  14.913 -0.2856 -0.2117 -0.0258
 5843W        W22691  16.267  15.291   3.236  0.1990  0.1787  0.1957
 5844W        W22692   4.106   0.452  15.273  0.2375  0.1111 -0.3034
 5845W        W22693  10.856   4.209   0.209  0.1448  0.3456  0.1305
 5846W        W22694  15.959   8.550   3.225  0.0789 -0.0196 -0.3456
 5847W        W22695   3.128  13.680  17.650 -0.0701 -0.0489  0.0797
 5848W        W22696  10.641  15.064   5.027 -0.1931 -0.0455 -0.3777
 5849W        W22697  16.543   0.988  15.486 -0.1845 -0.1710  0.1123
 5850W        W22698   6.882  10.114   3.859 -0.1782  0.1762 -0.0943
 5851W        W22699  11.488  12.671  13.827 -0.1280 -0.0779 -0.2358
 5852W        W22700   0.187  16.706   0.307 -0.0174  0.1523 -0.0708
 5853W        W22701  11.812  14.492  16.146 -0.0888 -0.0925 -0.0171
 5854W        W22702   0.555   9.926  14.312 -0.0440 -0.2254  0.1842
 5855W        W22703  10.138   7.370   5.060 -0.0064  0.1229  0.1595
 5856W        W22704  16.467   4.138   1.209 -0.0369 -0.1644 -0.1972
 5857W        W22705   5.513  15.212   0.899 -0.1969  0.3197  0.0951
 5858W        W22706   1.114  13.351  13.164 -0.0937  0.0255  0.0688
 5859W        W22707  10.533  12.838   1.236 -0.0161  0.1002  0.2376
 5860W        W22708   8.363   6.728  16.873  0.0252  0.0239  0.0626
 5861W        W22709  13.686  15.892  13.293 -0.0012 -0.0475 -0.1621
 5862W        W22710   4.987   4.214  17.010  0.1681 -0.4639 -0.3464
 5863W        W22711  13.587  16.488   0.368  0.1181  0.0963  0.0144
 5864W        W22712   2.398   4.776  13.852 -0.0753 -0.1339  0.0115
 5865W        W22713  15.991  13.471  15.095  0.0323 -0.0946 -0.1545
 5866W        W22714   9.018  16.872  14.034  0.0392  0.1859  0.3624
 5867W        W22715  17.048   5.703  15.639  0.2782  0.0084 -0.1692
 5868W        W22716  14.417   0.824  11.830 -0.1693  0.0412 -0.3523
 5869W        W22717   3.552  15.211   1.067  0.3536  0.1189  0.0443
 5870W        W22718   3.031   7.094  13.705 -0.0839  0.0325 -0.2334
 5871W        W22719   4.230   0.405   5.023  0.1200 -0.0475  0.2779
 5872W        W22720   8.990  15.613   2.042 -0.2390 -0.0666 -0.1175
 5873W        W22721  15.508  11.262  12.853 -0.0541 -0.1182 -0.3278
 5874W        W22722  14.016   6.351   2.634 -0.2086 -0.2575  0.0482
 5875W        W22723  10.137   7.657   1.045 -0.0178 -0.0072  0.0041
 5876W        W22724   3.036   4.883   0.146  0.1496 -0.0991 -0.2559
 5877W        W22725  14.018   3.677   4.130 -0.0152  0.0651 -0.0397
 5878W        W22726   8.940  13.386   2.398  0.1411 -0.0146  0.3632
 5879W        W22727  10.070   2.183   0.048 -0.1619 -0.0728  0.0083
 5880W        W22728  16.956   4.029   5.137  0.1529  0.1135  0.2161
 5881W        W22729  13.179   9.379   6.075  0.1735 -0.0960  0.0333
 5882W        W22730   4.363  14.027   2.924 -0.5007 -0.2157 -0.0951
 5883W        W22731   6.894  11.406   3.103  0.0632 -0.1085  0.1245
 5884W        W22732  12.824  13.013  15.964  0.2727 -0.2037  0.1992
 5885W        W22733  10.566  10.727  15.858  0.1978 -0.0566  0.0849
 5886W        W22734   1.887  13.094   1.449  0.0132 -0.0284  0.0276
 5887W        W22735  12.751   2.617   3.138 -0.0955 -0.0190 -0.2208
 5888W        W22736  15.118   3.399   4.722 -0.2633 -0.0414 -0.0095
 5889W        W22737   3.153   7.251  16.931 -0.2620  0.3288  0.3684
 5890W        W22738   7.748   4.544  15.872 -0.0046 -0.2885 -0.1002
 5891W        W22739  16.092   8.967  14.340  0.0413 -0.2914  0.0900
 5892W        W22740   3.913   3.599  14.478 -0.2599  0.1008  0.0904
 5893W        W22741   8.669  10.022   0.131 -0.2360 -0.0973 -0.2328
 5894W        W22742  15.488   3.111  15.706 -0.2185  0.2845 -0.2799
 5895W        W22743   6.429   7.230  14.827  0.2444  0.2726  0.0852
 5896W        W22744  14.846  15.477   5.093  0.1087 -0.0335  0.0914
 5897W        W22745   6.373   4.797   1.881 -0.1060 -0.0638 -0.3549
 5898W        W22746  16.381   4.930  15.791 -0.3350  0.0059  0.1123
 5899W        W22747   3.044   6.003   4.141  0.1288  0.1767 -0.2786
 5900W        W22748  11.971   2.484  16.671  0.3584  0.4658  0.0125
 5901W        W22749  15.798   8.641   3.901  0.0461 -0.2875 -0.1539
 5902W        W22750   4.645  16.710   4.340  0.1437 -0.0378  0.1811
 5903W        W22751  10.333  10.892  17.162  0.1927 -0.0098 -0.3705
 5904W        W22752   1.118  15.727  13.137  0.1665 -0.0493  0.1004
 5905W        W22753   6.940  10.467   3.308 -0.3693 -0.0111 -0.1341
 5906W        W22754   1.693   2.114   5.386 -0.0108 -0.0554  0.3480
 5907W        W22755   7.992  12.770   3.710 -0.0361  0.0672  0.3037
 5908W        W22756   4.569  15.989   4.842  0.1033 -0.1527 -0.0224
 5909W        W22757  12.644   8.390   3.932  0.2935 -0.4111  0.0535
 5910W        W22758   4.524   6.406  12.820 -0.0433  0.3062 -0.2527
 5911W        W22759   7.557   4.054  11.923  0.3750 -0.2341 -0.0487
 5912W        W22760  16.165   5.213  14.017 -0.2194 -0.0673  0.1604
 5913W        W22761   2.864  11.599  12.685  0.4399 -0.3940 -0.1583
 5914W        W22762   3.239  15.434   1.550 -0.1501  0.1472  0.0406
 5915W        W22763   6.606   6.714   1.907  0.2450 -0.0192  0.0773
 5916W        W22764  16.833  17.154   3.779  0.0003 -0.3332  0.0644
 5917W        W22765  16.792   6.584   2.179 -0.2123 -0.0072  0.1142
 5918W        W22766   7.166  10.265   1.221  0.0133  0.0529 -0.4077
 5919W        W22767  15.787   9.874  13.009 -0.0829  0.1538 -0.3460
 5920W        W22768  16.456  14.510  15.151 -0.2771  0.0466  0.2248
 5921W        W22769   4.362   7.290   3.278 -0.1274  0.2149 -0.0376
 5922W        W22770   4.528   0.034  15.959  0.0545  0.5755 -0.2312
 5923W        W22771  10.740  12.383  16.967  0.2638 -0.1068 -0.0946
 5924W        W22772  10.551  12.405   1.869  0.2634 -0.1619 -0.2580
 5925W        W22773  13.135  12.062   1.369 -0.2157  0.1600 -0.0834
 5926W        W22774   6.567   6.777   0.087 -0.0966 -0.0749  0.2904
 5927W        W22775   7.923   2.485  17.389  0.0405  0.2469  0.3494
 5928W        W22776  15.126   9.663   5.045  0.1496  0.1269 -0.0199
 5929W        W22777   4.689  13.017   0.826  0.1323  0.1170  0.2154
 5930W        W22778   6.410   3.402  13.987 -0.0693 -0.3190 -0.1205
 5931W        W22779   3.122   1.841  15.580 -0.1018 -0.1116 -0.2246
 5932W        W22780   6.355  12.316   0.791 -0.2108  0.1189  0.3264
 5933W        W22781  14.180  10.710  15.497 -0.1706  0.1419  0.0555
 5934W        W22782   4.629   5.283  17.066 -0.2181 -0.0657  0.2302
 5935W        W22783   0.480   0.583   4.075  0.4593  0.0522 -0.4454
 5936W        W22784   8.457   0.398   5.323  0.0016  0.1482 -0.0655
 5937W        W22785  12.551  15.261   2.138 -0.1395 -0.3009  0.2066
 5938W        W22786  15.249   4.340  15.507 -0.0835  0.0648 -0.0118
 5939W        W22787  15.675  16.218   2.660 -0.0340 -0.1102 -0.4917
 5940W        W22788   1.219  14.820   5.998 -0.0103 -0.0747 -0.2497
 5941W        W22789   4.996  14.717  14.750 -0.4728  0.3195  0.0975
 5942W        W22790   9.591   5.717  17.479  0.1247  0.0685  0.1788
 5943W        W22791  12.155   7.023  12.200  0.0521  0.1623 -0.0929
 5944W        W22792   9.360  15.920   0.305  0.5103  0.0244  0.1366
 5945W        W22793  16.428  15.971   2.086 -0.4119 -0.1944 -0.2286
 5946W        W22794  10.311   8.452   2.094  0.1451  0.0314  0.2022
 5947W        W22795   7.458  11.894   5.090  0.2726 -0.1002 -0.1885
 5948W        W22796   7.684   8.053   4.235  0.0532 -0.0608 -0.1090
 5949W        W22797   8.772   7.202   4.171  0.1477  0.0183 -0.0834
 5950W        W22798   9.951  11.732   1.481 -0.0336  0.0325  0.0272
 5951W        W22799  17.035   5.720  12.986 -0.3677 -0.1386 -0.1258
 5952W        W22800   4.806   3.511  12.491  0.1285 -0.1908 -0.0804
 5953W        W22801   1.176   0.768  16.969 -0.1307  0.1160  0.2866
 5954W        W22802   1.161  14.643   0.677 -0.0483  0.3504  0.1963
 5955W        W22803   9.358   0.265   2.165  0.1314  0.1143 -0.1845
 5956W        W22804  14.094  10.691  17.514 -0.0858 -0.0974  0.4618
 5957W        W22805   3.656  16.773   4.900  0.1501  0.2403  0.1510
 5958W        W22806   1.829   9.486   3.291  0.0713  0.0682 -0.0898
 5959W        W22807  11.554  11.485   0.918  0.1659  0.0465  0.0289
 5960W        W22808   0.356  15.773   2.153  0.0782 -0.0085  0.1849
 5961W        W22809  11.818   6.312   4.224 -0.3734  0.1053 -0.2550
 5962W        W22810  16.248  10.783  13.470  0.4168 -0.0442 -0.4325
 5963W        W22811   7.026  15.794  14.406 -0.0003 -0.0300 -0.3056
 5964W        W22812   9.727  12.213  16.268  0.2525  0.1341  0.1269
 5965W        W22813  16.936   9.451  13.760 -0.0838 -0.0549  0.1124
 5966W        W22814   2.857   1.214   2.237 -0.1533 -0.1536  0.0123
 5967W        W22815  15.827  13.234  13.569 -0.2307  0.2217 -0.1196
 5968W        W22816   2.481   0.164   4.631 -0.0624  0.2508 -0.3199
 5969W        W22817  11.695  12.896  15.362  0.0019  0.1025 -0.0770
 5970W        W22818   9.332   5.779   0.637 -0.1453 -0.0556 -0.5046
 5971W        W22819  12.017  13.277  11.440  0.1500  0.0117  0.4009
 5972W        W22820  12.038   5.793  15.792 -0.1167  0.1948 -0.1745
 5973W        W22821   6.702   3.504  15.644  0.1663  0.2070 -0.0930
 5974W        W22822  16.549  15.098  15.226 -0.2189  0.1898  0.0858
 5975W        W22823  11.114   0.622  12.561  0.0511 -0.1035  0.1273
 5976W        W22824  14.284  10.593   4.138 -0.0797  0.1013 -0.3498
 5977W        W22825   1.079  16.609   3.076 -0.1641  0.3215 -0.3365
 5978W        W22826  14.452   6.401   4.002  0.1762 -0.0631 -0.1951
 5979W        W22827   4.394   4.576   4.602  0.0250  0.0810 -0.0287
 5980W        W22828  10.078  10.603  15.942  0.1251  0.1480  0.2692
 5981W        W22829   9.303   3.391   0.939  0.5754 -0.0485  0.0450
 5982W        W22830  14.665   1.138  15.848  0.2546  0.0172  0.0838
 5983W        W22831   8.359  13.938   3.891  0.0215 -0.2282 -0.3268
 5984W        W22832  13.339  14.637  16.049  0.2758  0.0703 -0.0154
 5985W        W22833  12.399  13.329  15.733 -0.0980  0.0586  0.0465
 5986W        W22834   4.195   3.382  13.136 -0.0349  0.0990 -0.4069
 5987W        W22835   7.458   7.456  17.064  0.1296  0.0719  0.0762
 5988W        W22836   5.260   0.051  14.868 -0.0359  0.0119 -0.1303
 5989W        W22837  16.336   8.497  12.196 -0.0924  0.1785 -0.0680
 5990W        W22838   4.435  12.093  12.644  0.1135  0.1863 -0.1205
 5991W        W22839   8.622  16.207   0.205  0.3444  0.0744 -0.0584
 5992W        W22840   1.564   4.524   3.111 -0.1403 -0.1487  0.0021
 5993W        W22841  11.957   2.669  15.939  0.0595 -0.2348  0.0588
 5994W        W22842   6.364   5.995  15.398 -0.4028  0.0377  0.0020
 5995W        W22843   8.096   9.358  17.351 -0.0548 -0.0675  0.0687
 5996W        W22844  11.266  16.846   3.198 -0.1820  0.0083 -0.2669
 5997W        W22845  17.013  17.059  13.499 -0.1775 -0.0429  0.2561
 5998W        W22846  12.613   9.438   1.183 -0.2481  0.0953  0.0396
 5999W        W22847  10.605  13.592  13.731  0.0622 -0.0530  0.1718
 6000W        W22848  16.880  10.789   6.801 -0.1686 -0.1457  0.0841
 6001W        W22849   2.722   0.619   0.878  0.1218  0.0141  0.2282
 6002W        W22850   2.638   5.520   4.575 -0.1779 -0.1505  0.0688
 6003W        W22851   0.945   7.222   5.641  0.3281  0.1394 -0.0470
 6004W        W22852  13.567   5.424   3.628 -0.0687  0.0981 -0.0240
 6005W        W22853   4.937  15.674  14.853 -0.2225  0.1632 -0.5411
 6006W        W22854   0.749   6.398  14.294 -0.2347  0.2540  0.0209
 6007W        W22855   5.998   7.614  12.684 -0.1223  0.0421 -0.1291
 6008W        W22856   9.391   6.093   2.734 -0.2744 -0.2666  0.2655
 6009W        W22857  12.975   5.873  12.598 -0.0229 -0.0750  0.4203
 6010W        W22858   8.428  10.773   4.941  0.1699 -0.0018  0.0193
 6011W        W22859  13.902   0.340  13.491 -0.2586 -0.2101 -0.2307
 6012W        W22860  12.781   3.144   5.807 -0.0064 -0.0155 -0.0333
 6013W        W22861   8.845   6.662   4.974  0.2836  0.0724  0.0091
 6014W        W22862   0.547   0.671  16.210  0.0962 -0.3689 -0.2368
 6015W        W22863   3.514  11.612   0.610 -0.0764 -0.1005 -0.0578
 6016W        W22864   0.172  11.531  17.564  0.0676 -0.2129  0.1677
 6017W        W22865   5.761  11.381  12.430  0.0011 -0.2393 -0.0084
 6018W        W22866   3.214   0.060   2.820 -0.3398  0.3774 -0.1411
 6019W        W22867  11.663   4.694  13.134  0.1342  0.0444  0.3306
 6020W        W22868   5.547  14.242   0.574  0.1183  0.1761  0.0563
 6021W        W22869  15.430  15.539  16.808 -0.0329 -0.1293  0.0759
 6022W        W22870   4.417   9.312   3.576  0.2083 -0.0044  0.0128
 6023W        W22871   8.407  13.301   0.475 -0.1154  0.0804  0.0736
 6024W        W22872  11.855   2.726   4.455 -0.3010 -0.1223 -0.0815
 6025W        W22873  15.054  14.265   3.193 -0.1503 -0.1064 -0.2001
 6026W        W22874   3.800  15.272  12.771 -0.1117  0.4362  0.0260
 6027W        W22875  12.825  16.500   3.006  0.2919 -0.0544  0.2826
 6028W        W22876  13.018   2.688  15.845  0.1195 -0.0793  0.1503
 6029W        W22877  13.364  13.919  14.795 -0.1999 -0.0622  0.1076
 6030W        W22878  14.927  12.862   0.168 -0.1021  0.0932 -0.2479
 6031W        W22879  16.273  16.676   0.046 -0.1423  0.0038 -0.2335
 6032W        W22880  14.066   3.395  12.111  0.2232 -0.3392  0.0346
 6033W        W22881  10.850   0.300  17.549  0.0271 -0.0074  0.0178
 6034W        W22882  15.956   1.908  16.273 -0.1057  0.2300 -0.0401
 6035W        W22883  11.712   6.672  12.449  0.2301 -0.0167 -0.0781
 6036W        W22884  10.317  10.863   4.970 -0.1774  0.0168 -0.2044
 6037W        W22885  16.602  16.303   5.509  0.0114  0.0439  0.1423
 6038W        W22886   2.642   7.747  13.148  0.3162 -0.0384 -0.0449
 6039W        W22887  11.379   6.850   5.488 -0.3734  0.3365  0.1011
 6040W        W22888   5.434  10.786   3.839 -0.2901  0.1714 -0.0054
 6041W        W22889   3.895  12.035  13.825  0.1857  0.0795  0.2276
 6042W        W22890  14.126  10.861  12.268 -0.0974 -0.0848 -0.2137
 6043W        W22891   8.720  10.236   4.710  0.0253  0.1681 -0.0348
 6044W        W22892  11.194   9.600   1.998  0.0203  0.2504  0.0800
 6045W        W22893  14.844  12.370   0.439  0.0869  0.3578  0.0262
 6046W        W22894   7.294   8.126  16.456 -0.2486 -0.0936  0.4506
 6047W        W22895  10.440   9.896  13.902 -0.2868  0.0682  0.0263
 6048W        W22896   3.021  13.080   5.149  0.0035 -0.1305  0.0051
 6049W        W22897  12.883   4.702   5.185 -0.0727 -0.0871  0.0431
 6050W        W22898   3.351   6.459  13.581 -0.0529 -0.0000  0.1271
 6051W        W22899   6.947  16.842   5.011  0.0952 -0.0916 -0.2092
 6052W        W22900   9.284   2.889  12.862  0.0014 -0.0287 -0.3179
 6053W        W22901  16.711  12.691  12.807 -0.2476  0.0010 -0.1476
 6054W        W22902   1.533   3.330   5.052  0.0181 -0.1474  0.1608
 6055W        W22903   2.940   7.252   1.493 -0.2068 -0.2020  0.0709
 6056W        W22904  16.447   2.393   0.678 -0.0585 -0.0011  0.0814
 6057W        W22905   7.970   0.027   0.848  0.2760 -0.0937  0.1804
 6058W        W22906   3.887  11.205  16.381 -0.0567 -0.0260 -0.3469
 6059W        W22907   5.447  15.506   4.337 -0.1657  0.0756 -0.0083
 6060W        W22908   9.391   9.389  15.630  0.0997  0.1204 -0.3452
 6061W        W22909  11.554  16.172  13.182  0.1046 -0.0468  0.2964
 6062W        W22910   3.283   0.933   0.934 -0.3129 -0.0950  0.0790
 6063W        W22911   5.856   8.765  16.991  0.1190 -0.3356 -0.0887
 6064W        W22912  16.474   3.124   2.753  0.2375 -0.2209 -0.2241
 6065W        W22913   6.204   6.082   5.091 -0.0840 -0.3447  0.1347
 6066W        W22914  10.101  17.137  17.423 -0.1595 -0.2678 -0.2192
 6067W        W22915  14.271   4.035   0.663 -0.1679  0.0947 -0.0581
 6068W        W22916  15.283   5.898  15.258  0.0675  0.2435  0.0185
 6069W        W22917  15.689   2.975  14.750 -0.2352  0.0913  0.1906
 6070W        W22918  15.157  14.669  16.576 -0.0495  0.3351  0.0330
 6071W        W22919  16.667   5.208   5.458 -0.0871  0.0406 -0.1207
 6072W        W22920  10.847  12.796  14.255 -0.0446 -0.2114  0.0949
 6073W        W22921   2.797   2.904  15.739  0.0236  0.2004  0.0802
 6074W        W22922  14.867  11.169   4.476  0.0593  0.3139  0.0776
 6075W        W22923  11.007   5.092   6.307  0.0575 -0.0387 -0.2242
 6076W        W22924   2.300  11.639  15.428 -0.0107  0.2869  0.0066
 6077W        W22925   9.531   1.748   3.196 -0.0045  0.2488 -0.2105
 6078W        W22926  16.702   8.583  13.594  0.0069 -0.1619  0.0740
 6079W        W22927   3.425   6.712   3.813 -0.0839  0.0351 -0.0500
 6080W        W22928   1.003   0.412  14.589  0.1126 -0.0159  0.1227
 6081W        W22929   6.145   8.266  13.462  0.1180 -0.0852 -0.0596
 6082W        W22930   0.220  10.875  12.461  0.0597  0.0072 -0.0838
 6083W        W22931   9.097   0.661   3.072  0.3282 -0.0470 -0.0846
 6084W        W22932   2.487   7.832  13.988 -0.1451  0.2138  0.2765
 6085W        W22933   7.150  13.424   3.291 -0.1596  0.0876 -0.1321
 6086W        W22934   6.180   0.587  13.137  0.0880 -0.1914 -0.1077
 6087W        W22935   5.869   4.313  14.907 -0.1174 -0.2549  0.4248
 6088W        W22936   8.729  17.042  15.231  0.0020 -0.0230 -0.1668
 6089W        W22937   8.424   3.366   1.876  0.2614 -0.1598 -0.2428
 6090W        W22938   5.936   3.558   1.831 -0.1401 -0.0863 -0.0539
 6091W        W22939   6.074  13.111   4.281  0.1143 -0.1816  0.2579
 6092W        W22940  13.086   5.320   3.896  0.1362 -0.0407 -0.1742
 6093W        W22941  15.624   3.229   4.814 -0.5616  0.1036  0.3139
 6094W        W22942   5.131   8.834   0.212 -0.1949 -0.2970  0.0828
 6095W        W22943  14.574   4.680  16.078 -0.1715  0.0227  0.1228
 6096W        W22944   0.183   2.398   3.587  0.0594  0.0297  0.2227
 6097W        W22945  12.289   0.986   1.521 -0.1592  0.4619 -0.1355
 6098W        W22946  16.525   0.144  15.617 -0.0437 -0.1200 -0.1336
 6099W        W22947  14.891   1.333  17.163 -0.2728  0.2979  0.0892
 6100W        W22948   6.648   2.998  15.492 -0.0273 -0.0653  0.0866
 6101W        W22949   9.949   4.731  16.398 -0.0417 -0.1724 -0.1905
 6102W        W22950   6.254   7.725  16.175  0.0312  0.0757 -0.0842
 6103W        W22951  11.065   2.683  16.877 -0.0450  0.3186  0.0172
 6104W        W22952   8.140   4.639  16.767 -0.2074 -0.2589 -0.4517
 6105W        W22953   0.626  13.183  15.502  0.0790  0.0382  0.0828
 6106W        W22954   9.253  10.368  16.380  0.2802 -0.0449 -0.0482
 6107W        W22955   7.786   1.684  13.072 -0.1367  0.0575 -0.1392
 6108W        W22956  15.651   6.845   3.273  0.0006 -0.0448  0.1204
 6109W        W22957  15.061   5.278  13.592 -0.1170  0.1294 -0.1429
 6110W        W22958   6.155   7.038  11.435 -0.2240  0.2128 -0.2068
 6111W        W22959  13.750   0.175  10.748  0.1383 -0.0153 -0.0398
 6112W        W22960  12.928  16.139   3.644  0.4327 -0.1588  0.1672
 6113W        W22961  10.498  16.353   0.869 -0.0282 -0.0758 -0.0249
 6114W        W22962  14.598  11.988   1.055  0.0416 -0.0618  0.0769
 6115W        W22963  11.002   4.610  15.274 -0.0041 -0.1564 -0.1168
 6116W        W22964  15.973   8.315  15.081 -0.2196  0.1853 -0.1058
 6117W        W22965   6.890   2.209  12.722  0.0094 -0.1096  0.2966
 6118W        W22966  15.905   9.028   4.922 -0.3045  0.0419  0.0187
 6119W        W22967   5.927   6.684   4.511  0.0189  0.0767  0.2516
 6120W        W22968   0.004  15.118  14.405 -0.1670 -0.2290  0.3339
 6121W        W22969  16.736  11.536   5.502  0.1743  0.2069 -0.0128
 6122W        W22970  15.530  16.372   1.749 -0.2673  0.1958 -0.0931
 6123W        W22971   9.657   7.403   0.986  0.2295  0.0410  0.1022
 6124W        W22972  14.707   9.854  14.649 -0.0216 -0.2418  0.0414
 6125W        W22973  14.736   0.945  12.565 -0.1315 -0.3565  0.0592
 6126W        W22974  13.663   9.639   0.294 -0.3441 -0.0594 -0.2145
 6127W        W22975   3.849  13.380   1.018 -0.1985  0.1022  0.1693
 6128W        W22976   6.221  15.609  15.045 -0.1228 -0.0754 -0.2335
 6129W        W22977   0.033   0.083   2.882 -0.0451 -0.1241 -0.0315
 6130W        W22978   6.783   7.302   0.662  0.2270 -0.1197 -0.0427
 6131W        W22979   0.505  15.205   3.621 -0.0586 -0.3866  0.0383
 6132W        W22980  13.232   9.749   2.936  0.1694  0.3114 -0.0829
 6133W        W22981   7.740   9.174  12.190  0.0615  0.2895  0.1246
 6134W        W22982  14.822   0.133  13.594  0.1644 -0.1680 -0.0031
 6135W        W22983  11.641  16.609  12.818 -0.1028  0.0200  0.0967
 6136W        W22984  12.302  17.140  14.556  0.4111 -0.1465 -0.0397
 6137W        W22985   6.315   8.687   4.712  0.0358  0.2856  0.1095
 6138W        W22986  13.224  15.470   1.637 -0.1384  0.0247 -0.3779
 6139W        W22987   9.782  10.443   1.013 -0.0846 -0.0243  0.0391
 6140W        W22988  13.934   5.535  12.135 -0.3426  0.0160  0.0366
 6141W        W22989   5.058  14.164  14.790 -0.2018  0.1202 -0.2613
 6142W        W22990  11.477   2.628  15.439 -0.0053 -0.2206  0.0146
 6143W        W22991   4.305   7.093   5.170  0.0232  0.2154 -0.1916
 6144W        W22992  17.067   7.886  15.378 -0.0145 -0.0590 -0.1771
 6145W        W22993   4.699  13.248   3.258 -0.3179 -0.1134 -0.0350
 6146W        W22994  11.917   3.824   1.280 -0.0532  0.1515 -0.1296
 6147W        W22995   9.772   3.959   0.197 -0.0247  0.3109 -0.0149
 6148W        W22996   2.845   7.209  15.570 -0.1034 -0.1478  0.0569
 6149W        W22997  10.382  11.499   4.436 -0.1290 -0.1193  0.1120
 6150W        W22998  11.273  15.703   0.486 -0.1304  0.0362 -0.1773
 6151W        W22999  12.572   8.563  17.121 -0.0541 -0.2319 -0.0161
 6152W        W23000  11.476  11.097  13.919 -0.2327  0.1202 -0.0182
 6153W        W23001  16.293  12.877   2.454 -0.3506 -0.4240  0.0831
 6154W        W23002  10.746   9.343  14.386  0.1812 -0.0829 -0.2048
 6155W        W23003  11.861   7.223   2.434  0.0444  0.2565 -0.1228
 6156W        W23004   6.298   9.319   0.670  0.0301 -0.2285 -0.2385
 6157W        W23005   4.103   7.855   2.507 -0.2398  0.0840  0.0727
 6158W        W23006   4.531  15.030   2.837  0.1287  0.0990  0.2294
 6159W        W23007   5.026   1.336  17.351 -0.1034  0.0851  0.2759
 6160W        W23008   6.176  16.766   0.386  0.4708  0.0175  0.1417
 6161W        W23009  13.790   5.848   0.269 -0.0176 -0.1209  0.2104
 6162W        W23010  17.064  13.961   5.261  0.1772  0.0264  0.1833
 6163W        W23011   4.188   4.385   2.384  0.1626 -0.1543  0.0634
 6164W        W23012   1.118   4.672  14.756 -0.2002  0.0081 -0.2460
 6165W        W23013   8.357  13.316  13.833 -0.4047  0.1642 -0.0578
 6166W        W23014  14.414   7.012   2.372  0.0971 -0.0247  0.2506
 6167W        W23015  16.677  14.284  17.075 -0.4551 -0.0275 -0.3421
 6168W        W23016  11.499   9.145   1.458 -0.0806  0.3832  0.0909
 6169W        W23017  10.136  12.237   5.021 -0.1441 -0.1759  0.1906
 6170W        W23018   1.243   2.434  12.129  0.1241 -0.4780  0.1640
 6171W        W23019   5.203   1.652   3.404  0.1233 -0.1403 -0.3539
 6172W        W23020   6.844   2.248   4.660  0.0314 -0.5013 -0.2774
 6173W        W23021  14.709  14.472   5.496  0.0761  0.2032 -0.0021
 6174W        W23022   6.705  13.582   0.891 -0.3221 -0.1009  0.2289
 6175W        W23023  14.788  14.744  15.161 -0.1308 -0.3014 -0.1137
 6176W        W23024   2.285   6.162   5.237 -0.0493  0.0080  0.1688
 6177W        W23025  15.327   3.029  16.145 -0.0501 -0.0716 -0.2678
 6178W        W23026  13.809   6.976  16.933 -0.3301  0.0655 -0.0461
 6179W        W23027   5.403   9.814   4.252 -0.1933  0.0818  0.0813
 6180W        W23028   3.457   2.254  15.326  0.0054  0.0975 -0.0233
 6181W        W23029   1.129   7.754  14.849  0.2264  0.1567 -0.2054
 6182W        W23030   6.956   9.591   3.027 -0.0292 -0.2250  0.2916
 6183W        W23031   1.865  11.607  13.023  0.0698  0.2034  0.1354
 6184W        W23032  15.564  14.323   6.666  0.3020  0.1199  0.0516
 6185W        W23033   0.558   6.737   3.557 -0.4762  0.1656  0.0815
 6186W        W23034  16.023  14.955   3.495  0.0158  0.2304 -0.3680
 6187W        W23035   3.432  17.093  17.662  0.1799  0.2679 -0.1172
 6188W        W23036  16.235   0.913   2.479 -0.0205  0.2387  0.0293
 6189W        W23037  13.127  14.395  17.532  0.0003  0.0219  0.3790
 6190W        W23038   8.367  10.973   0.241 -0.1354  0.1070  0.1092
 6191W        W23039  15.680  15.820  12.950 -0.1142 -0.1212 -0.2726
 6192W        W23040   2.154   6.030   4.753 -0.3269  0.4309  0.1170
 6193W        W23041   0.657   5.696   5.646  0.1056 -0.0210 -0.2372
 6194W        W23042   5.348   7.370   1.116 -0.0123  0.0975  0.1069
 6195W        W23043  16.703   0.599   4.360  0.0384 -0.2053  0.2898
 6196W        W23044   3.109   4.041  15.763 -0.2985 -0.1392 -0.2191
 6197W        W23045   9.815  17.135   0.125 -0.0162 -0.3403 -0.1537
 6198W        W23046   8.607  14.622   5.488  0.2278  0.1016  0.0127
 6199W        W23047   9.088  16.871  13.204  0.1015 -0.2221  0.0090
 6200W        W23048  12.473   4.266  13.405 -0.3562  0.0274  0.0444
 6201W        W23049   3.198   7.530  15.244 -0.3014  0.2188 -0.1501
 6202W        W23050   5.277  12.295   3.821  0.3948 -0.2623 -0.0577
 6203W        W23051   0.802  13.526  12.691 -0.1712 -0.0542 -0.0299
 6204W        W23052  11.001  13.229   1.245  0.1278  0.2331  0.0440
 6205W        W23053  16.159   4.661   2.231  0.0130 -0.0310  0.1107
 6206W        W23054   4.656  12.681   0.352 -0.2689 -0.2344  0.0898
 6207W        W23055   3.157   7.824   1.432  0.0182  0.1112  0.1221
 6208W        W23056  17.047   9.090   2.976 -0.0217  0.1366  0.3178
 6209W        W23057   2.065  10.529   3.764 -0.0726  0.2863 -0.1721
 6210W        W23058  12.990  11.199  15.195 -0.0333  0.0365  0.1881
 6211W        W23059   0.484   8.812  14.145  0.0592 -0.1567 -0.0886
 6212W        W23060   6.337   9.571   1.170  0.0829 -0.0929 -0.4761
 6213W        W23061   1.436  15.781   4.399  0.2460 -0.1515  0.0112
 6214W        W23062  11.433  12.824   5.750 -0.0426  0.1547 -0.2489
 6215W        W23063   4.621   9.907   1.486  0.1561  0.0741  0.2044
 6216W        W23064   7.505   5.989  16.822  0.2593 -0.1127 -0.4441
 6217W        W23065  11.114   8.546   4.336  0.1762  0.0243  0.0636
 6218W        W23066  15.935  13.563   2.214  0.1278 -0.2885 -0.1653
 6219W        W23067  16.504  11.366  15.357 -0.0297 -0.0364 -0.1823
 6220W        W23068  15.134   1.596   2.657  0.1564 -0.1708 -0.1964
 6221W        W23069  13.305   9.650  17.641  0.2252 -0.0040 -0.1427
 6222W        W23070   5.242   8.064   4.660  0.0208  0.3862  0.1582
 6223W        W23071  15.563  15.187   1.641 -0.1392 -0.0813  0.1973
 6224W        W23072   3.610  14.721   0.989  0.0073 -0.0692 -0.0486
 6225W        W23073  11.417  13.619   1.029  0.3276  0.0803  0.2789
 6226W        W23074   4.831   0.832   5.172 -0.0452 -0.0208  0.2672
 6227W        W23075   5.157   9.143  11.285  0.0188  0.0828  0.0701
 6228W        W23076  15.597   5.736   2.695  0.2366 -0.1492 -0.0976
 6229W        W23077  17.064  13.700  13.573 -0.2016 -0.3559  0.1672
 6230W        W23078   0.256   9.913   4.855  0.0132 -0.1820  0.0437
 6231W        W23079  14.664   9.591   1.452 -0.0412  0.0441  0.1047
 6232W        W23080  13.857   6.174  15.835 -0.2182 -0.1690 -0.0678
 6233W        W23081   9.112  16.635   3.739 -0.2495 -0.3091 -0.0639
 6234W        W23082  11.799  15.437  17.440 -0.1747 -0.1427 -0.0456
 6235W        W23083   4.812  13.613   5.987 -0.0791  0.0653  0.1356
 6236W        W23084   4.342   4.568  16.490  0.1166  0.0326  0.0544
 6237W        W23085  12.582  13.681   5.618  0.0443  0.1877  0.1337
 6238W        W23086   4.462   5.498  16.560  0.1026  0.3198 -0.1944
 6239W        W23087   4.518  11.291   4.028 -0.0575  0.1233 -0.0790
 6240W        W23088   0.448  13.024   5.904  0.2144  0.1126 -0.1402
 6241W        W23089  17.019   6.251  15.448 -0.0261 -0.2272  0.3068
 6242W        W23090   2.055   8.736  15.406  0.1012  0.0501  0.0073
 6243W        W23091   9.291   6.125   1.899  0.0720 -0.1513  0.0440
 6244W        W23092  11.698  11.445   4.672 -0.0011  0.1322  0.1225
 6245W        W23093   1.369  16.259   5.031  0.2858  0.1601  0.1458
 6246W        W23094  13.412   6.095  13.137 -0.0011 -0.2694 -0.0077
 6247W        W23095   9.316   9.535   2.088 -0.0752 -0.0864 -0.1508
 6248W        W23096   1.089   5.359   2.933  0.2478  0.1866 -0.1332
 6249W        W23097   6.760   1.277  15.657  0.1109 -0.0543  0.0362
 6250W        W23098   0.274   8.366   1.148 -0.0437  0.1814  0.3534
 6251W        W23099  16.744   6.935   1.813 -0.1191  0.1071  0.0684
 6252W        W23100  12.261  10.394  12.089 -0.0920  0.3499  0.0872
 6253W        W23101   8.870   0.326   0.185 -0.0258 -0.1465  0.1256
 6254W        W23102   9.432   9.031  11.971 -0.2062  0.0378  0.0574
 6255W        W23103   4.717  14.735  15.122  0.1993  0.0544 -0.3240
 6256W        W23104   4.907   2.838  15.858 -0.0651  0.1755 -0.2085
 6257W        W23105   8.692  15.824  17.443  0.0964  0.0892  0.1796
 6258W        W23106  12.051  12.606  13.343  0.1953 -0.1937  0.2634
 6259W        W23107   5.485  13.590  12.435 -0.2405 -0.1410  0.0639
 6260W        W23108  14.526   2.623  13.074 -0.3726  0.3144 -0.3102
 6261W        W23109  11.074  16.875   5.151  0.0435  0.0385 -0.1971
 6262W        W23110   8.659   5.355  13.160 -0.0324 -0.0710 -0.1084
 6263W        W23111  11.758  14.788  16.589 -0.1526 -0.0284  0.0188
 6264W        W23112  13.995   9.287   0.363 -0.1890  0.1034  0.1426
 6265W        W23113   0.360  11.122  16.816  0.1468  0.0524 -0.1015
 6266W        W23114   8.213  10.101   1.623  0.0402 -0.1642 -0.2406
 6267W        W23115   2.220  12.820  15.772  0.1074 -0.2043  0.1523
 6268W        W23116   1.217   6.453  15.537  0.2108 -0.0359  0.1239
 6269W        W23117  13.917   4.553   2.273 -0.0272  0.2439  0.0608
 6270W        W23118   9.893   7.555   1.506  0.4124  0.1019 -0.4923
 6271W        W23119   4.231   3.229   2.750  0.0339  0.1056 -0.0737
 6272W        W23120   6.885   3.853   1.096 -0.2990  0.0989 -0.0800
 6273W        W23121   9.796  12.026  13.875 -0.2771  0.0782  0.4143
 6274W        W23122   3.296   0.854  17.369 -0.1932 -0.0015 -0.1995
 6275W        W23123   2.407   3.828   2.689 -0.1339 -0.5182  0.1008
 6276W        W23124  12.038   8.914  15.146 -0.1942  0.1809  0.2544
 6277W        W23125   2.126   9.929   1.368  0.2627 -0.2320  0.1998
 6278W        W23126   6.591  16.245  16.638  0.1572 -0.0913 -0.1958
 6279W        W23127   6.965  10.057  13.253 -0.2002 -0.2689 -0.0898
 6280W        W23128   0.009   6.746  15.382  0.1017  0.1849 -0.0157
 6281W        W23129  10.721   6.286   1.829 -0.1180 -0.1313  0.0523
 6282W        W23130  16.303  15.371   0.666 -0.1909  0.1064  0.2224
 6283W        W23131  10.254   7.906  17.236  0.3363  0.2262  0.0095
 6284W        W23132  11.082   5.492   2.203 -0.1477 -0.0388  0.1233
 6285W        W23133   6.591  11.668  17.497 -0.0483  0.0545  0.0657
 6286W        W23134  13.663  14.023   2.334 -0.0672 -0.0507  0.1998
 6287W        W23135  16.776   0.925  13.820 -0.0471 -0.0568  0.2769
 6288W        W23136   9.171   9.344   2.605  0.0717  0.0553  0.4381
 6289W        W23137  14.550   9.306  15.906  0.1269  0.2782  0.1561
 6290W        W23138  16.764   8.691  14.731 -0.1423  0.1056 -0.0039
 6291W        W23139   7.155   4.096  15.797 -0.2438  0.1054  0.0197
 6292W        W23140  15.523  15.677  13.865  0.0650 -0.2013 -0.3528
 6293W        W23141  12.437  13.945  14.451  0.0209  0.1008  0.0621
 6294W        W23142  10.185   0.026   3.416  0.2812 -0.0417 -0.1284
 6295W        W23143  14.518   2.583   3.904 -0.2919 -0.0980  0.0998
 6296W        W23144  12.582  12.701  11.859  0.0873  0.0752  0.0515
 6297W        W23145   8.294  14.815  14.217  0.0672 -0.4430  0.1404
 6298W        W23146   9.227  13.236  17.143  0.0399  0.0405 -0.0152
 6299W        W23147  10.427  13.099  12.303 -0.1959 -0.0988  0.1809
 6300W        W23148   5.082  10.266   1.811  0.1536  0.2381  0.0375
 6301W        W23149  13.744   6.122   5.878  0.0638 -0.1388 -0.3335
 6302W        W23150  14.775   2.557   0.749 -0.3263  0.2114 -0.0255
 6303W        W23151  12.082  16.707   2.655 -0.1100 -0.3298  0.0365
 6304W        W23152   5.341   7.250   1.872 -0.2506 -0.0316  0.0261
 6305W        W23153  11.595   5.383  17.534 -0.2637  0.2235 -0.1500
 6306W        W23154   0.823  15.595   0.209 -0.0491 -0.2325  0.1963
 6307W        W23155   9.581  16.674   0.984  0.0690 -0.1963 -0.1108
 6308W        W23156  11.386  16.016   5.485 -0.3646 -0.1999  0.0021
 6309W        W23157   8.340  11.958  14.611  0.0833 -0.1205  0.2337
 6310W        W23158   4.387   7.859  15.033  0.1257  0.0543  0.3858
 6311W        W23159   3.047   8.841   3.288 -0.1488 -0.0925  0.2194
 6312W        W23160  15.203   6.964   4.065  0.1282 -0.2742  0.0175
 6313W        W23161   6.096  12.227  17.592 -0.2137 -0.1534  0.3053
 6314W        W23162   5.123   6.217   3.218 -0.1144 -0.3977 -0.1129
 6315W        W23163   5.920  16.873   2.579 -0.5326 -0.1857 -0.1567
 6316W        W23164  11.223   9.243  14.032 -0.1564  0.0586  0.3225
 6317W        W23165  13.922   7.582   1.832  0.1568  0.1692  0.1078
 6318W        W23166   1.267  12.886   4.627 -0.2322  0.0256  0.1113
 6319W        W23167  10.229   9.125   3.799 -0.1686  0.2846  0.1526
 6320W        W23168  16.525  12.564   3.346  0.0039  0.1089 -0.0783
 6321W        W23169  13.309  10.688  11.793  0.0811  0.2855 -0.1647
 6322W        W23170  11.321   8.785  13.757  0.0121  0.2040  0.0057
 6323W        W23171   6.829   1.279  15.119 -0.0084 -0.1535 -0.2518
 6324W        W23172   6.309   7.459  12.241  0.1976 -0.1861  0.2130
 6325W        W23173   5.090  15.115  17.042 -0.0291 -0.0466  0.4052
 6326W        W23174  15.894  16.091   1.951 -0.0333  0.0945 -0.0479
 6327W        W23175  12.498   5.372  17.128 -0.0491 -0.1759  0.2596
 6328W        W23176   9.751  15.842  14.018 -0.0321  0.3862 -0.1170
 6329W        W23177  12.586  14.952   1.181  0.1961  0.1709  0.0616
 6330W        W23178   3.038  11.825  15.709 -0.0441  0.1907  0.0470
 6331W        W23179   8.161  16.368  14.356  0.4736  0.0803  0.1347
 6332W        W23180   6.461  10.050   4.289 -0.0846 -0.0593  0.0029
 6333W        W23181  15.872   6.222   2.581 -0.2854 -0.0029 -0.0755
 6334W        W23182  12.054  12.348   5.364 -0.2586 -0.1099 -0.1821
 6335W        W23183  13.892   7.037   4.270  0.0788 -0.0307  0.0448
 6336W        W23184   8.526  14.040  15.071 -0.4101  0.0493 -0.1068
 6337W        W23185   6.829  14.388  14.749 -0.0455 -0.4643 -0.0699
 6338W        W23186   6.876  14.846  17.687  0.1224  0.0240  0.0482
 6339W        W23187  14.647   6.327  16.005  0.0654 -0.0034  0.2814
 6340W        W23188  13.656   9.718   5.475 -0.1151  0.0409  0.1757
 6341W        W23189   8.204  14.612  17.037 -0.1162 -0.1594 -0.0340
 6342W        W23190   1.369   4.289  13.698 -0.2664 -0.1485  0.1889
 6343W        W23191   1.622  10.551  15.966 -0.0682 -0.3210  0.2900
 6344W        W23192   8.235   3.672   3.069 -0.0173  0.1972  0.2801
 6345W        W23193  13.476   0.154  12.082 -0.3381 -0.0010  0.1692
 6346W        W23194   3.564   3.840  12.667  0.3527  0.0007  0.2270
 6347W        W23195   9.757   5.036  14.300 -0.1190  0.0731  0.0340
 6348W        W23196   7.380   8.407  12.863  0.1360  0.0015  0.0880
 6349W        W23197   5.269  15.687   2.958 -0.0554  0.2518 -0.2145
 6350W        W23198   9.329   7.598  15.591 -0.0026  0.0006 -0.0152
 6351W        W23199   7.385   2.392  15.860 -0.0820 -0.0755 -0.0228
 6352W        W23200  10.841  13.735   1.018  0.1239 -0.2967  0.0991
 6353W        W23201  12.668   5.773   1.380  0.2418 -0.2692 -0.1265
 6354W        W23202  10.582   1.309   1.897  0.4060 -0.1950 -0.1816
 6355W        W23203   7.218   1.104   0.004 -0.2726  0.2250 -0.0027
 6356W        W23204  14.455   2.950   0.676  0.1531 -0.1251  0.1921
 6357W        W23205  13.286   3.238   2.432  0.1344 -0.2717 -0.1204
 6358W        W23206  10.115   6.237  11.820 -0.1391 -0.4169 -0.0081
 6359W        W23207   2.153   8.033   1.950 -0.0933 -0.2186 -0.1997
 6360W        W23208   5.434   0.537  16.484 -0.2823  0.2610  0.2523
 6361W        W23209   6.146  12.713  12.403  0.1760 -0.0841 -0.0500
 6362W        W23210   7.443   2.772  12.340 -0.1276 -0.1859 -0.1111
 6363W        W23211   9.820   3.909   0.757  0.0594  0.2471 -0.0080
 6364W        W23212   5.364  14.479   4.955  0.2274  0.0675 -0.1773
 6365W        W23213  10.985  14.465  12.203 -0.0874 -0.1074 -0.2035
 6366W        W23214  10.829   0.345  12.181  0.0015 -0.3980  0.2422
 6367W        W23215  14.515  15.331  13.394 -0.0432  0.1879 -0.0100
 6368W        W23216  15.077   9.979   4.487 -0.1956 -0.1246  0.3292
 6369W        W23217   0.932  13.086   4.943 -0.1812 -0.1386 -0.0741
 6370W        W23218   5.558   4.441  15.794 -0.0173  0.1438 -0.2033
 6371W        W23219   2.163   0.115  13.158  0.0053  0.0223 -0.0870
 6372W        W23220   4.294   2.478   5.319 -0.2447 -0.1962 -0.0112
 6373W        W23221  13.254   7.593  14.882 -0.0228 -0.2001 -0.1451
 6374W        W23222  10.173  13.512  12.931  0.0164 -0.0080  0.1579
 6375W        W23223   2.101   3.143   4.232 -0.0252 -0.0274 -0.0204
 6376W        W23224  10.794   5.714  11.589 -0.0869  0.2977  0.1970
 6377W        W23225   2.293   6.987   2.400 -0.0767  0.1218 -0.3468
 6378W        W23226   8.584  15.336  17.354  0.0494 -0.0241  0.0216
 6379W        W23227   5.731  16.529  15.514 -0.1529 -0.1908  0.3165
 6380W        W23228  14.730  13.750  11.461 -0.0913 -0.0438 -0.0097
 6381W        W23229  12.967   7.165   4.037  0.0545 -0.0671  0.0559
 6382W        W23230  15.881  12.110  14.065 -0.2595  0.3197 -0.0742
 6383W        W23231  14.545   5.351  13.591 -0.0263  0.1310  0.1258
 6384W        W23232   9.806   9.389  17.387  0.0442  0.2394 -0.0698
 6385W        W23233  16.815   0.813   5.765 -0.2515  0.0453  0.0178
 6386W        W23234  10.898  14.946  12.105  0.2248  0.0620 -0.0556
 6387W        W23235  11.214  10.648  15.457  0.1414  0.0927  0.0929
 6388W        W23236   5.220   5.474   4.742  0.1924  0.1787 -0.2255
 6389W        W23237   1.620  13.497  13.000  0.0032 -0.1493  0.1306
 6390W        W23238   8.980   2.723   1.233  0.1893 -0.0525 -0.0457
 6391W        W23239  16.710   9.044  15.805  0.0002 -0.1410 -0.0418
 6392W        W23240   5.623   2.916   5.650  0.2881 -0.2053 -0.0839
 6393W        W23241   6.079   5.148   5.063  0.1766 -0.1856 -0.1378
 6394W        W23242  12.293   3.127   5.151 -0.2095  0.0055 -0.1000
 6395W        W23243  12.957  15.861  16.712 -0.1879 -0.0585 -0.0096
 6396W        W23244   2.078  14.020   0.807 -0.0434 -0.1733  0.0956
 6397W        W23245   2.450   1.775  13.209  0.3256 -0.2117 -0.0395
 6398W        W23246   1.309  16.102  16.176 -0.0761  0.2305  0.0374
 6399W        W23247  12.713  14.114   3.844  0.1885 -0.0221 -0.1155
 6400W        W23248   9.435  10.184   4.590  0.1986 -0.0013  0.1959
 6401W        W23249  11.981  12.888  12.452 -0.2588  0.0782  0.3709
 6402W        W23250  12.635  10.551   1.957 -0.1081 -0.3378 -0.2260
 6403W        W23251  12.053  11.403  16.867 -0.0330  0.1415  0.0024
 6404W        W23252  16.380   4.555   2.664  0.1449  0.0686 -0.3241
 6405W        W23253  10.020   9.834  17.298 -0.1173  0.0696  0.0982
 6406W        W23254   7.954  15.852  12.680 -0.2034 -0.1158 -0.1634
 6407W        W23255  15.787  10.065   5.004 -0.1121 -0.3463 -0.0741
 6408W        W23256   4.632   7.786   3.229 -0.1185  0.1336  0.0442
 6409W        W23257   2.135  10.528   4.300  0.1514  0.1588  0.0190
 6410W        W23258  11.679   3.324   4.997  0.1396  0.1074 -0.1404
 6411W        W23259  14.344   5.615   3.209  0.3088  0.3104  0.0425
 6412W        W23260  16.092   8.240   1.767 -0.0068 -0.0516 -0.0115
 6413W        W23261   8.690  13.799   2.180  0.2181  0.2114 -0.0166
 6414W        W23262  12.772   8.045  17.162 -0.3050 -0.1596  0.2034
 6415W        W23263   5.684   6.163   3.810  0.0509 -0.2632  0.2100
 6416W        W23264   4.311   6.594  16.448 -0.0896  0.2314  0.1576
 6417W        W23265  16.766  16.616   1.776 -0.2073 -0.0796 -0.0496
 6418W        W23266   4.597  12.005   4.464  0.0266  0.2156 -0.2304
 6419W        W23267   3.340  16.864   3.344 -0.0980 -0.2614  0.1532
 6420W        W23268   7.560   6.116   3.512  0.1492  0.2886 -0.3668
 6421W        W23269  13.053  16.866  17.048  0.2222  0.1746 -0.0727
 6422W        W23270   9.475  10.987  15.139  0.2749 -0.0339 -0.0536
 6423W        W23271  13.128   1.272   0.314  0.0064 -0.2644 -0.2070
 6424W        W23272   0.100   9.958  14.918 -0.2181 -0.1428 -0.0835
 6425W        W23273  16.670   4.371  17.402  0.0345  0.1883 -0.1026
 6426W        W23274  12.306  15.054  17.548  0.0664  0.0765 -0.0665
 6427W        W23275  16.711  10.353   6.045  0.2851  0.0074 -0.3353
 6428W        W23276   6.128   6.109  16.175 -0.2197 -0.0885  0.2350
 6429W        W23277  15.840  11.074  14.685 -0.0731 -0.1157  0.5049
 6430W        W23278   1.668   2.821   4.122  0.1333 -0.0331  0.0280
 6431W        W23279  16.524  11.119   5.166 -0.0314  0.2972 -0.1458
 6432W        W23280  15.424   6.927   0.599 -0.0242  0.1008 -0.0259
 6433W        W23281   4.118  14.653  16.935 -0.1362  0.1722  0.2664
 6434W        W23282  13.635  10.508   4.187  0.0367 -0.3506 -0.3172
 6435W        W23283   7.104  12.513   5.783  0.1944  0.0817 -0.1106
 6436W        W23284  11.151  15.683   4.622 -0.2600  0.1571 -0.0299
 6437W        W23285   8.505   4.086   5.258 -0.0194  0.0080 -0.1905
 6438W        W23286  14.016  15.183   5.655  0.4855  0.0801  0.4951
 6439W        W23287  14.100   6.560  16.661 -0.0900 -0.0452  0.1331
 6440W        W23288  15.510  15.946  17.324 -0.0592  0.2102  0.0743
 6441W        W23289   1.771   4.099   4.537 -0.0622  0.3084  0.2315
 6442W        W23290  13.056  17.045  14.306  0.3088 -0.3162  0.0453
 6443W        W23291  16.224   9.575   3.910  0.0240  0.4979 -0.1282
 6444W        W23292   5.668   5.379   0.130 -0.2041 -0.1201  0.0161
 6445W        W23293   1.111  12.253  13.717  0.3031  0.1446 -0.2529
 6446W        W23294  13.571   6.049   3.757  0.1578  0.1078  0.0484
 6447W        W23295   6.194  13.168   1.379  0.1409  0.2486  0.1359
 6448W        W23296   9.073   1.621  17.772  0.3589 -0.0655  0.3129
 6449W        W23297  10.368  12.737  15.136 -0.0340 -0.0223  0.2928
 6450W        W23298   0.467  16.543  14.705  0.2121  0.3047 -0.2187
 6451W        W23299  10.864  11.294   5.775  0.0096  0.3141  0.0632
 6452W        W23300  14.362   3.906   5.128 -0.1145 -0.1626 -0.3946
 6453W        W23301  12.450  15.421   1.162 -0.0480 -0.1473  0.2204
 6454W        W23302  13.360   0.745   2.577 -0.1395 -0.7399  0.2264
 6455W        W23303   6.094   0.762  12.344  0.0150  0.4684  0.1874
 6456W        W23304  10.706  12.470   4.496  0.0135 -0.0502 -0.0883
 6457W        W23305  14.784   8.115   4.363  0.3223  0.3086  0.0055
 6458W        W23306   5.729   0.639   2.888  0.1306  0.0614 -0.2030
 6459W        W23307  12.717   3.596   0.619  0.0376  0.0842  0.1077
 6460W        W23308   7.811  14.649  14.229  0.0533 -0.1182 -0.0977
 6461W        W23309  13.069   5.528  14.755  0.2849  0.0085 -0.1553
 6462W        W23310  14.792   0.955  16.278 -0.0090 -0.2918 -0.0216
 6463W        W23311   2.170  10.878  13.474 -0.0864  0.6066 -0.0620
 6464W        W23312  15.093   1.032  14.065 -0.2691  0.2919  0.3997
 6465W        W23313   0.284   5.227  14.341 -0.2085 -0.1330 -0.0423
 6466W        W23314   5.561   4.664  11.321  0.1223 -0.0687 -0.3007
 6467W        W23315   6.904   3.526  12.474 -0.1121  0.3890 -0.1623
 6468W        W23316  16.469   3.961  15.510  0.1113  0.0478 -0.0283
 6469W        W23317  13.391   4.524   0.261  0.3041  0.3344 -0.0184
 6470W        W23318   2.166   5.223  13.555  0.1786 -0.0995  0.0653
 6471W        W23319   3.608  13.047  14.689  0.2720 -0.0078  0.2641
 6472W        W23320  15.898  10.375  13.600 -0.1690  0.3540  0.1914
 6473W        W23321   3.810   9.994   3.454 -0.0032  0.1075  0.1984
 6474W        W23322  14.450   6.787  16.380  0.0185  0.3066  0.0491
 6475W        W23323   4.933  10.860   0.381  0.0721  0.1909 -0.2149
 6476W        W23324   8.515  17.029   2.228  0.2616  0.2580 -0.2285
 6477W        W23325  14.235   3.803  11.600  0.1973 -0.0504  0.0033
 6478W        W23326   1.249   7.824  17.372 -0.3021  0.1257 -0.2486
 6479W        W23327  13.891  12.655  16.140  0.0801  0.2799  0.3410
 6480W        W23328   5.662   6.802   3.703 -0.0236 -0.0006  0.2076
 6481W        W23329   3.860   8.656   5.900 -0.1418 -0.0601 -0.0425
 6482W        W23330  17.028   0.387   0.449  0.0190 -0.0363  0.1661
 6483W        W23331   4.164  15.078  17.151 -0.0465 -0.2381  0.3809
 6484W        W23332   9.887   8.854   4.175  0.1243  0.1150  0.2651
 6485W        W23333   3.068   1.556   5.720  0.0099  0.3619  0.1836
 6486W        W23334   2.521   6.037   2.603  0.0994 -0.2370 -0.1057
 6487W        W23335  15.238  11.184   4.808 -0.0791  0.2422  0.3336
 6488W        W23336  11.402  14.462  15.017 -0.0641 -0.0243 -0.1679
 6489W        W23337  14.176  12.685   1.673 -0.1040 -0.4081 -0.2287
 6490W        W23338  13.980  11.064   4.342  0.0154 -0.0410  0.2501
 6491W        W23339   8.386   6.251  14.979 -0.1411  0.1077  0.0458
 6492W        W23340   6.124   2.857  17.114 -0.0221 -0.1382 -0.1401
 6493W        W23341  11.014  13.812  15.767 -0.0363 -0.0435  0.1574
 6494W        W23342  13.243   1.546   3.032 -0.1591 -0.0629  0.4077
 6495W        W23343   6.952   6.750  16.650 -0.0864 -0.2842 -0.0736
 6496W        W23344  11.063  13.746   0.051 -0.1265  0.0135  0.1680
 6497W        W23345   7.544   7.545   4.192 -0.0109 -0.0111  0.3575
 6498W        W23346   9.524   0.850   3.205  0.5576  0.0621  0.0759
 6499W        W23347   8.466  16.961  16.609 -0.3821 -0.0480 -0.4189
 6500W        W23348   8.468  15.133  16.823 -0.0172  0.1507  0.2062
 6501W        W23349  11.195   5.776   4.303  0.0973 -0.2895  0.3852
 6502W        W23350   2.643  11.485  14.141 -0.0424  0.2030 -0.0292
 6503W        W23351   6.301   3.819   1.667  0.2624  0.0561 -0.0266
 6504W        W23352   6.657   9.480   5.149  0.0714 -0.1488  0.1657
 6505W        W23353  11.956   8.404  14.798 -0.1946  0.0880 -0.1727
 6506W        W23354   8.150   9.964  14.863 -0.0891 -0.0785 -0.1422
 6507W        W23355   1.139  11.784   0.191  0.1263 -0.2459 -0.0291
 6508W        W23356   8.492  10.773   1.801 -0.0498 -0.0582 -0.2395
 6509W        W23357  15.463   1.870  16.419 -0.0136 -0.0647  0.0321
 6510W        W23358   3.059  15.090   2.499 -0.3109  0.0309  0.3389
 6511W        W23359   0.739   3.675   3.766 -0.4820  0.1097  0.4511
 6512W        W23360   9.445   2.528   3.326  0.1685 -0.0423  0.0576
 6513W        W23361   2.384   8.045   5.988 -0.2312  0.3278  0.1479
 6514W        W23362   3.113   6.908   3.001  0.4766  0.4138  0.0858
 6515W        W23363  11.846   5.766   3.696 -0.0329 -0.1125 -0.2370
 6516W        W23364   8.552   2.322  12.397 -0.1533 -0.1578 -0.0231
 6517W        W23365  15.813  12.628  14.189 -0.0656  0.3562  0.0606
 6518W        W23366  10.032   7.533  17.495 -0.1802  0.2261 -0.2385
 6519W        W23367   0.616  14.967   5.970 -0.0123  0.0420 -0.0760
 6520W        W23368  10.673  16.515   4.537  0.2796  0.1427  0.0774
 6521W        W23369   3.241  10.714  14.213  0.0920  0.0689  0.0751
 6522W        W23370  16.399   8.816  16.197 -0.1216 -0.0575  0.0353
 6523W        W23371  11.738  11.541   5.224 -0.1783 -0.0122 -0.0934
 6524W        W23372   9.667  11.472  15.091  0.0591 -0.2371 -0.0670
 6525W        W23373   6.227  14.290   5.320  0.0845 -0.1016 -0.0079
 6526W        W23374  14.406   7.858   4.598  0.1024 -0.1397  0.2270
 6527W        W23375   4.090  11.942   4.555  0.2136 -0.2782 -0.0152
 6528W        W23376   0.750   3.960  14.253  0.0263 -0.4072  0.2380
 6529W        W23377   8.082   6.237  12.665  0.1029 -0.2292  0.1798
 6530W        W23378  16.783   0.182  16.516  0.1229  0.1808  0.1200
 6531W        W23379   1.121  16.430  13.505  0.0250  0.0772  0.2398
 6532W        W23380   8.834   7.704   0.597  0.0743  0.0993 -0.1784
 6533W        W23381   9.987   1.722  17.530  0.0663  0.0569  0.0872
 6534W        W23382  16.909   3.200  14.069 -0.0596  0.1270  0.3011
 6535W        W23383   9.297   9.154   1.581 -0.1651  0.2928  0.0389
 6536W        W23384   9.076   6.913   0.317 -0.1062 -0.0581 -0.3607
 6537W        W23385  14.820   4.225  15.870  0.0696 -0.2274  0.1835
 6538W        W23386   0.336  12.262   0.290  0.1658 -0.3367  0.1688
 6539W        W23387  16.549   7.247  11.691 -0.0143  0.0000  0.1220
 6540W        W23388  10.418   4.628  15.043  0.2629  0.2403  0.3962
 6541W        W23389   9.178   6.194   5.640 -0.1031  0.1505 -0.2322
 6542W        W23390  16.435   3.997  16.079  0.2218 -0.6628  0.0472
 6543W        W23391   1.105  11.658   3.349  0.0533 -0.1242 -0.0674
 6544W        W23392   3.018  16.232  13.140  0.2317  0.5848 -0.2071
 6545W        W23393   4.994  17.045   2.920  0.1083 -0.2340 -0.3291
 6546W        W23394   7.046   7.767  15.650 -0.2819 -0.3224 -0.2113
 6547W        W23395  10.314  14.362   3.339 -0.1340 -0.0016  0.0738
 6548W        W23396   6.267  12.668   1.115  0.0743 -0.0447  0.0102
 6549W        W23397   5.802  11.610   2.097  0.3125  0.3225 -0.1758
 6550W        W23398   9.931   6.107  17.335 -0.2857 -0.3961  0.0218
 6551W        W23399   2.490  16.612   5.566  0.0626 -0.1103 -0.0562
 6552W        W23400  10.515   6.249   3.694 -0.0120  0.0249  0.1581
 6553W        W23401   3.129  15.114  14.674  0.1012  0.4427 -0.1485
 6554W        W23402  14.715   4.155   1.343  0.0147  0.1343 -0.3354
 6555W        W23403   0.445   5.971   6.434  0.0823  0.2597  0.1465
 6556W        W23404   1.956  17.134  15.697  0.0748 -0.1069  0.1871
 6557W        W23405  14.704  15.626   4.104  0.0860  0.2067 -0.3112
 6558W        W23406   2.295  10.065  15.996  0.1211 -0.3394  0.0447
 6559W        W23407  13.096   2.251   4.724 -0.0233  0.1343  0.2802
 6560W        W23408   5.596  13.123  17.745 -0.1056  0.1295  0.1965
 6561W        W23409   3.357   2.002   1.604 -0.0572  0.1596  0.1943
 6562W        W23410  13.550   8.827   5.471 -0.1491  0.2464 -0.0503
 6563W        W23411   2.360   5.300  14.691  0.0539 -0.0186  0.2314
 6564W        W23412  11.764  10.713  17.710 -0.1278 -0.0648 -0.0508
 6565W        W23413   8.577  14.869   4.598 -0.2864 -0.0538 -0.1869
 6566W        W23414  16.135  15.986  16.615 -0.0279  0.1673 -0.0209
 6567W        W23415   7.972   5.312   5.570 -0.0444  0.1931 -0.1952
 6568W        W23416   4.298   9.519   2.239 -0.1655 -0.1617  0.0213
 6569W        W23417   7.441  16.032   3.021 -0.2356 -0.0148  0.3391
 6570W        W23418   8.528   0.876  13.657  0.0817  0.0054 -0.0241
 6571W        W23419  16.047   0.442   4.875 -0.0007  0.4223 -0.2535
 6572W        W23420   7.583  11.454   3.775 -0.0718 -0.1677  0.0355
 6573W        W23421  15.785  12.111   0.388 -0.2837  0.1471  0.3119
 6574W        W23422   5.769  15.958   4.494  0.2439 -0.0011 -0.0438
 6575W        W23423   5.390  13.772  14.668 -0.1136  0.0466 -0.2086
 6576W        W23424  15.367   3.636  15.105  0.2594  0.3212  0.3139
 6577W        W23425   3.440   3.174  15.087 -0.0568 -0.1696 -0.2469
 6578W        W23426   1.006  16.290   4.042 -0.0070 -0.2191 -0.2743
 6579W        W23427  10.874   5.475  16.429  0.0847 -0.1488  0.0610
 6580W        W23428  15.549  12.450   1.905  0.1397 -0.0761 -0.2125
 6581W        W23429   0.878   2.580   1.949 -0.0913 -0.3301 -0.4158
 6582W        W23430  13.036  13.362  12.482 -0.0472  0.1614  0.2533
 6583W        W23431   4.609   7.372  12.855  0.0918 -0.2391  0.0063
 6584W        W23432  10.183  11.037  17.624  0.1488 -0.4045  0.1524
 6585W        W23433  12.820   7.652  16.879 -0.0823 -0.0058 -0.0117
 6586W        W23434   5.189   8.018   5.585  0.1993  0.0150 -0.0613
 6587W        W23435   3.367   7.052   5.521  0.1883 -0.0094 -0.0915
 6588W        W23436   4.557   0.718  14.432  0.0383 -0.1118  0.2168
 6589W        W23437   7.462  15.336  14.740  0.1784  0.0900  0.0924
 6590W        W23438   2.039   5.855  15.276 -0.1761  0.1090 -0.1149
 6591W        W23439   9.064  12.431   4.049 -0.0828 -0.0366 -0.1158
 6592W        W23440   3.288  12.782   0.772  0.1904  0.1617 -0.0528
 6593W        W23441  11.524   4.087  11.837  0.1997 -0.0448  0.0372
 6594W        W23442  13.019  12.968  14.681 -0.0664 -0.2872 -0.2663
 6595W        W23443  14.630   7.898  14.185  0.1065 -0.1533 -0.2894
 6596W        W23444  15.298  10.310  14.489  0.1580  0.0795  0.2702
 6597W        W23445  15.373  10.287   2.238 -0.0899  0.0348  0.0014
 6598W        W23446  10.232  14.534  17.361 -0.1526  0.1140  0.2059
 6599W        W23447   0.662   0.733   3.166 -0.0227  0.2969 -0.1763
 6600W        W23448  16.563   4.281   3.644 -0.0461 -0.1720  0.2872
 6601W        W23449  14.405  13.019   5.035 -0.0027  0.0978 -0.0813
 6602W        W23450   2.559   4.486  16.071 -0.2766 -0.0015 -0.1447
 6603W        W23451   9.127  14.367   1.682 -0.1599  0.1322 -0.3240
 6604W        W23452   6.687  10.879   1.703  0.1594  0.0490  0.0476
 6605W        W23453   5.813   0.040   4.325  0.0690 -0.3304 -0.0187
 6606W        W23454  14.216   5.672   0.722 -0.2507 -0.1993 -0.1751
 6607W        W23455  15.348   2.240   3.658  0.1449  0.1404 -0.0376
 6608W        W23456  12.064   5.708  12.916  0.2275 -0.0108 -0.2332
 6609W        W23457   6.070  14.716  15.149 -0.0635 -0.0794  0.1172
 6610W        W23458  14.905   3.475   0.172  0.1234 -0.2214  0.0105
 6611W        W23459  15.962  14.603  16.784 -0.1871  0.1619  0.0657
 6612W        W23460   7.970  10.731   0.000  0.1845 -0.2164  0.2705
 6613W        W23461   1.801   8.168  13.698  0.1282 -0.0714  0.0350
 6614W        W23462  15.242   2.073  16.796  0.1635 -0.0484 -0.1469
 6615W        W23463  10.647   0.881   4.663  0.0104  0.2472  0.3158
 6616W        W23464   4.116  12.717   7.396  0.1042 -0.1193  0.2898
 6617W        W23465   4.579  10.152   3.832  0.1584 -0.0350  0.2032
 6618W        W23466   8.668  10.929  16.547 -0.0920  0.0351 -0.0276
 6619W        W23467  14.023   5.579  15.836  0.0496 -0.1428 -0.2265
 6620W        W23468   8.267  14.468  12.899 -0.0124  0.1114  0.0008
 6621W        W23469   4.811   1.098   3.884  0.1302 -0.4572  0.2226
 6622W        W23470  16.015   9.520  12.749  0.1376  0.3815  0.0233
 6623W        W23471   5.413   4.233   1.812 -0.2251 -0.0629  0.0224
 6624W        W23472  11.913   4.423   5.213  0.3627 -0.1569 -0.1317
 6625W        W23473   7.962   0.561  12.432  0.1490 -0.1140 -0.1086
 6626W        W23474   3.600  12.515   2.624  0.1005  0.0751 -0.0590
 6627W        W23475   1.698  13.160  12.600 -0.1022  0.1700 -0.1498
 6628W        W23476   9.978  11.974  14.830 -0.0393 -0.1667  0.0028
 6629W        W23477   4.390   2.286  14.096  0.0059 -0.1202  0.1699
 6630W        W23478   3.537   6.652  14.884  0.0533  0.0114 -0.4762
 6631W        W23479   0.015   2.880  16.217  0.2979  0.0737  0.0834
 6632W        W23480   8.273  10.745  16.836 -0.0007  0.1927 -0.1389
 6633W        W23481   7.455   2.376  14.965  0.3170 -0.0047  0.0535
 6634W        W23482   7.948   3.334   1.559  0.0223 -0.3950  0.1063
 6635W        W23483  12.753   5.656  14.050  0.3189  0.1789  0.0267
 6636W        W23484   2.674   0.316   3.022 -0.0147 -0.3668  0.1096
 6637W        W23485   4.936   5.578  13.910 -0.0589  0.0410  0.1091
 6638W        W23486   2.507   4.293  11.629  0.0079 -0.0222  0.3516
 6639W        W23487  15.750   6.537  12.920 -0.1860 -0.1887 -0.0956
 6640W        W23488   2.692   9.283   1.953  0.0345  0.0756  0.1738
 6641W        W23489   8.438   3.671  14.453 -0.0165 -0.3061  0.2356
 6642W        W23490   4.500  12.078   5.981 -0.0876  0.3885  0.1387
 6643W        W23491   9.404  15.080  14.798 -0.4929  0.0595 -0.0182
 6644W        W23492   0.669  13.829   6.841  0.1187  0.0680  0.0676
 6645W        W23493   5.864  12.556   5.567  0.2601  0.0811  0.1509
 6646W        W23494   9.553   9.266   4.721  0.0430  0.0112 -0.1502
 6647W        W23495  14.530   9.907   5.327  0.0416  0.0345  0.1249
 6648W        W23496  14.500   8.987   4.982  0.1723  0.1645 -0.0867
 6649W        W23497  11.059   9.422  16.929  0.1716 -0.1378 -0.1149
 6650W        W23498  13.593  16.036   3.904 -0.0493 -0.3828 -0.0749
 6651W        W23499  14.850   2.641   1.682 -0.0835 -0.1181 -0.1745
 6652W        W23500  15.009  13.777   1.293 -0.2134  0.1765 -0.1960
 6653W        W23501   4.225  11.664   1.656 -0.0295 -0.2588 -0.2868
 6654W        W23502   1.583   4.464   4.945  0.0013 -0.1303  0.1551
 6655W        W23503   5.965   6.178  15.007  0.2375  0.0983  0.6283
 6656W        W23504  16.213  10.234   1.442  0.0355  0.1168 -0.1345
 6657W        W23505   5.058   8.508  13.300 -0.0711 -0.0289 -0.0619
 6658W        W23506  13.117  15.213  15.669 -0.2605 -0.1508 -0.0818
 6659W        W23507   8.425   4.547  17.776  0.0932 -0.2724 -0.0318
 6660W        W23508   0.012   8.529   3.905  0.4536  0.0097 -0.3358
 6661W        W23509  11.798   8.057   5.202 -0.2523 -0.0533  0.1227
 6662W        W23510  13.053   1.149  11.443 -0.1435 -0.1312 -0.0725
 6663W        W23511  13.200   3.011   3.126  0.1032 -0.0931  0.2539
 6664W        W23512   8.402  10.150  14.408 -0.2064  0.0859  0.0282
 6665W        W23513  14.866   7.403   1.680  0.3342 -0.1200  0.3290
 6666W        W23514   6.661  11.555   2.486 -0.2868  0.0474 -0.1223
 6667W        W23515  17.057  12.623   2.639  0.1834  0.0440 -0.1599
 6668W        W23516   8.439  16.471  13.945  0.0580 -0.1337  0.0101
 6669W        W23517   3.345  15.279   4.084  0.2293 -0.2384 -0.0464
 6670W        W23518   5.098   9.111   1.894 -0.3230  0.0802  0.1207
 6671W        W23519  12.449  13.992  16.110 -0.3476  0.1344 -0.0329
 6672W        W23520  14.206  12.484  14.903 -0.0728 -0.1684 -0.0025
 6673W        W23521  16.233  13.825   4.126  0.1116 -0.0470 -0.3685
 6674W        W23522   0.466   7.692   2.554 -0.2687  0.0960 -0.0725
 6675W        W23523   1.469  12.792  14.338 -0.1595  0.0045 -0.0541
 6676W        W23524   4.388   2.636  17.625  0.1240  0.0071  0.2064
 6677W        W23525   1.487  14.245   1.206 -0.0226 -0.0759 -0.0660
 6678W        W23526  16.456  16.809   4.661 -0.0945  0.1284  0.0914
 6679W        W23527   3.843   0.706  12.056 -0.1348  0.0540 -0.1502
 6680W        W23528   4.714  16.592  14.445 -0.0904 -0.3128  0.1860
 6681W        W23529   7.347  15.408   1.044 -0.0744  0.0131 -0.1050
 6682W        W23530  13.461  12.549  15.346 -0.2041 -0.3532 -0.0013
 6683W        W23531   8.966   5.035  17.231 -0.0121 -0.0074 -0.2234
 6684W        W23532   9.796  13.622   2.350 -0.1511 -0.0090 -0.2763
 6685W        W23533  13.864   4.168  11.695  0.1596  0.1554  0.1220
 6686W        W23534  14.088   2.242  12.355 -0.0088 -0.0454  0.0659
 6687W        W23535  15.855   3.487  14.816  0.1723 -0.1377  0.0192
 6688W        W23536   3.009   6.338  16.978  0.0077 -0.1093  0.1033
 6689W        W23537   5.195  13.597   1.284 -0.1346 -0.0080  0.0841
 6690W        W23538   6.948   9.529   4.682  0.0504 -0.0643  0.2885
 6691W        W23539   5.080  12.228  13.737  0.2246  0.2848  0.1085
 6692W        W23540  13.158   3.911   2.495 -0.1720 -0.3294  0.1805
 6693W        W23541   9.908   5.973  13.627  0.0400  0.0440 -0.5898
 6694W        W23542   9.032  11.223  16.193 -0.0751 -0.1707 -0.0027
 6695W        W23543  16.986   8.989  13.899 -0.1202  0.0986 -0.1355
 6696W        W23544  13.290   2.119  16.326 -0.4789  0.2972  0.3614
 6697W        W23545  12.272   8.455  14.044 -0.0041  0.1220 -0.2740
 6698W        W23546   5.307  11.336   3.463 -0.0726  0.0190  0.2501
 6699W        W23547  11.105  15.895   4.021  0.0847 -0.0536  0.1542
 6700W        W23548   5.088   7.774   1.399 -0.1019  0.1726  0.2062
 6701W        W23549   4.241   5.032  14.900  0.2232 -0.2997  0.0326
 6702W        W23550  10.546   2.710   0.547 -0.1579 -0.3478 -0.0093
 6703W        W23551  10.615  14.575  17.676  0.0508  0.1019  0.2331
 6704W        W23552  11.383   9.460  15.676 -0.0891 -0.1692  0.1793
 6705W        W23553   7.127  12.851   2.394 -0.2242  0.1874  0.0718
 6706W        W23554   9.794   1.896   3.996 -0.1373  0.0289  0.2662
 6707W        W23555  16.775  13.956   6.602 -0.2970  0.0257 -0.0402
 6708W        W23556   6.559   4.050  14.344  0.1363 -0.2888 -0.0974
 6709W        W23557   2.410   6.268   0.648 -0.7217  0.0104  0.0785
 6710W        W23558   1.608   3.892   4.996 -0.0767  0.1879  0.0485
 6711W        W23559   2.780   5.532   3.154  0.2703 -0.0167 -0.0396
 6712W        W23560   6.379   5.663   4.281  0.0245  0.1911 -0.2670
 6713W        W23561   1.442  13.462  14.293 -0.1609 -0.2792  0.0200
 6714W        W23562   7.260   8.957   5.447 -0.0401 -0.1361 -0.1605
 6715W        W23563   7.312   5.148  15.419  0.0305 -0.5137 -0.2136
 6716W        W23564  16.339   8.491  14.438  0.0835 -0.1860 -0.0415
 6717W        W23565   0.932  12.774  13.880 -0.2411 -0.0317  0.0845
 6718W        W23566   0.262   3.690  13.956 -0.0533 -0.0880  0.2565
 6719W        W23567  13.606   9.053  16.583 -0.0861 -0.1040  0.0175
 6720W        W23568   1.332   6.810  13.208 -0.2632 -0.0782  0.0850
 6721W        W23569  16.954  16.636  12.705 -0.1956 -0.1441  0.0217
 6722W        W23570  14.046   2.572  12.754  0.1844  0.1852  0.0522
 6723W        W23571   8.513   9.314   4.311 -0.3097 -0.1678  0.1551
 6724W        W23572   7.089   2.723  15.672 -0.2483  0.0903  0.0077
 6725W        W23573  13.614  10.434  17.296  0.1582  0.1307  0.1252
 6726W        W23574   7.326  13.493  17.426 -0.1226  0.1448 -0.1549
 6727W        W23575  15.442  15.126   2.827 -0.2174 -0.1466 -0.2256
 6728W        W23576  11.164  10.773   3.564 -0.1870  0.1158  0.0847
 6729W        W23577   3.122  11.497   2.586 -0.0173 -0.2886  0.1284
 6730W        W23578   2.313   3.876   4.111 -0.0219 -0.1859  0.4635
 6731W        W23579  11.972  15.846   5.358  0.0696  0.0468 -0.0679
 6732W        W23580   8.121   3.316   4.042  0.1280  0.1833 -0.1766
 6733W        W23581   4.013   2.788   4.475  0.0679 -0.0954  0.0782
 6734W        W23582  12.335  13.572   0.015 -0.0232  0.0027  0.2589
 6735W        W23583   4.865  14.124  13.497  0.1183  0.0968 -0.1284
 6736W        W23584   7.800  14.489  15.561  0.2363 -0.2218  0.1104
 6737W        W23585  11.620   4.584   1.261 -0.4971  0.4182  0.0574
 6738W        W23586   7.851  13.251  14.782  0.1382  0.0766  0.1605
 6739W        W23587   0.782   0.289  17.034  0.1521 -0.3874 -0.2634
 6740W        W23588  15.068   6.147   6.395  0.0653  0.0773  0.0964
 6741W        W23589   7.684   5.167  17.711  0.0605 -0.0479 -0.0438
 6742W        W23590   8.196   1.344  16.103  0.2007 -0.1050  0.1005
 6743W        W23591  11.417   0.161  15.818  0.2570  0.3585  0.0166
 6744W        W23592   8.582   2.349   4.258 -0.0288 -0.3070 -0.2407
 6745W        W23593   4.296   1.536   1.409 -0.0371 -0.3524 -0.0224
 6746W        W23594   1.769  16.175   0.860  0.2129 -0.1054 -0.0785
 6747W        W23595   8.424   8.173  16.205  0.2050  0.2438  0.1338
 6748W        W23596   3.828   8.470  15.589 -0.1263  0.3791  0.1103
 6749W        W23597   6.700  14.993   5.168 -0.1571 -0.0770 -0.2422
 6750W        W23598  15.579   2.416   0.246 -0.1925 -0.1616  0.0654
 6751W        W23599   1.795  10.583  13.616 -0.0959 -0.0124 -0.1710
 6752W        W23600  10.696   9.741   4.174  0.1283  0.1801  0.3293
 6753W        W23601   6.975  11.378   1.490 -0.0063  0.0180 -0.2913
 6754W        W23602   8.493  11.392  11.418  0.1151  0.1653 -0.4574
 6755W        W23603   5.854   5.140  15.091 -0.1205 -0.3634 -0.1767
 6756W        W23604   9.745   8.333  12.702  0.0532  0.1993 -0.1422
 6757W        W23605  12.117  10.496  14.242  0.0540 -0.2191 -0.0433
 6758W        W23606  16.256  15.731   1.674  0.0271 -0.1136 -0.3154
 6759W        W23607   3.251  15.334  12.849  0.2144 -0.0656  0.3219
 6760W        W23608  16.475   7.528  15.424  0.0513 -0.1009  0.1068
 6761W        W23609   1.324  11.603   5.469 -0.0251 -0.2977  0.0543
 6762W        W23610   7.086  10.005   0.614 -0.1249 -0.1124  0.0131
 6763W        W23611  16.030   9.825  15.855  0.2176  0.0746  0.2972
 6764W        W23612   5.038   0.427   0.847 -0.1709  0.3229  0.2224
 6765W        W23613  17.044   4.389  15.540 -0.0765  0.2866 -0.2916
 6766W        W23614   5.051  12.233  16.006  0.1709  0.3110 -0.0041
 6767W        W23615  13.273   9.141  14.605 -0.0763  0.1985 -0.0176
 6768W        W23616   8.859  15.815  15.764 -0.0839  0.0515 -0.0807
 6769W        W23617   8.602   3.589   0.270  0.3398  0.1845 -0.0196
 6770W        W23618  12.342  15.143  15.663 -0.4453  0.5540 -0.0732
 6771W        W23619   0.167  10.241   0.800  0.4312  0.0132  0.1682
 6772W        W23620   4.994   0.161   4.267 -0.0350 -0.0649  0.0472
 6773W        W23621   7.361   6.539   4.288 -0.2100  0.2967  0.0579
 6774W        W23622  11.236   4.151  12.945  0.0450  0.1632 -0.2047
 6775W        W23623   8.981  15.368   3.987  0.3084 -0.1010  0.0281
 6776W        W23624  11.455   1.765   1.311 -0.3511 -0.1413 -0.0842
 6777W        W23625  15.244   0.018   1.737  0.0218 -0.0362  0.4175
 6778W        W23626   7.552   2.694  15.446  0.1150 -0.5641 -0.1205
 6779W        W23627   7.281   8.069  17.521 -0.0809  0.1107  0.0267
 6780W        W23628   9.072  16.743  14.805  0.3478 -0.0336  0.5001
 6781W        W23629  16.103  11.926  13.589  0.0046 -0.1999  0.1364
 6782W        W23630   2.360  13.752  15.786 -0.2996  0.0466  0.0219
 6783W        W23631  12.421   7.831  16.347 -0.2258 -0.2254 -0.1609
 6784W        W23632  13.569   9.575   4.047 -0.0934  0.2508  0.1192
 6785W        W23633  15.377   8.901  13.077  0.1541  0.2498  0.1552
 6786W        W23634  10.672  15.144  15.279  0.0988 -0.0640 -0.0590
 6787W        W23635   0.803   8.973   2.788  0.1618  0.0205  0.0335
 6788W        W23636   3.876  14.071   1.625  0.0365  0.2161  0.0168
 6789W        W23637   5.928   2.410  16.127 -0.2526 -0.1557  0.0890
 6790W        W23638  13.747   2.312  16.162 -0.3401 -0.0685  0.2075
 6791W        W23639   9.164   2.951  14.866 -0.0878 -0.0437  0.0293
 6792W        W23640   1.209  16.184  13.088 -0.0126 -0.0549  0.1329
 6793W        W23641   2.519  11.407   5.397 -0.0761  0.1956  0.0609
 6794W        W23642   4.576   6.777   4.687 -0.0154  0.2455 -0.0000
 6795W        W23643  12.385   1.208   4.343 -0.0000 -0.0448  0.0710
 6796W        W23644   7.332   0.734   3.501 -0.0336 -0.0995  0.0120
 6797W        W23645   5.243  10.559  16.544  0.0551 -0.2258 -0.0166
 6798W        W23646   6.478   5.152   4.718 -0.0793  0.0140  0.0232
 6799W        W23647  11.795   4.944   4.353 -0.2773 -0.1286 -0.2960
 6800W        W23648  10.475   6.644  14.149  0.1848  0.0151 -0.1104
 6801W        W23649  16.817   8.501  14.161  0.2128  0.2247  0.1753
 6802W        W23650   1.540   8.611  17.599  0.3893 -0.1492  0.0607
 6803W        W23651   1.782   3.896  13.235  0.2661 -0.0597  0.4547
 6804W        W23652   7.563   9.236   3.885 -0.1601  0.2656  0.1066
 6805W        W23653   0.960   0.315   1.148 -0.0693 -0.0083 -0.0481
 6806W        W23654  15.146   4.911  12.447  0.0231  0.2683 -0.0043
 6807W        W23655   4.239   3.409  14.100  0.1661 -0.0243  0.0209
 6808W        W23656   1.270   9.640   2.383 -0.0155  0.1765  0.2169
 6809W        W23657   1.790   0.043  14.853  0.1378 -0.0786  0.4950
 6810W        W23658   4.168  12.954  17.460  0.4027  0.1018 -0.1371
 6811W        W23659  13.217  12.803   4.913  0.2870  0.0495 -0.0435
 6812W        W23660  10.522   3.690  17.448  0.1278 -0.0312  0.3258
 6813W        W23661   7.318   8.686  14.842  0.0064 -0.1207 -0.0217
 6814W        W23662   5.374   5.069   0.682  0.1805 -0.2228 -0.2476
 6815W        W23663  11.234  13.833  16.605  0.0096 -0.2397  0.0309
 6816W        W23664   3.626   1.969   2.079 -0.1138 -0.0438 -0.1054
 6817W        W23665   3.308  16.233  17.532  0.1812  0.2346  0.0180
 6818W        W23666   7.685  13.434  17.062  0.3650  0.1926  0.1632
 6819W        W23667  12.180   7.831  11.794 -0.2425 -0.2614 -0.0402
 6820W        W23668   2.568   1.052   4.626 -0.0721  0.0924 -0.0521
 6821W        W23669   8.250  15.075   5.600  0.2027  0.2298 -0.2672
 6822W        W23670  15.679  16.299  12.661  0.1777  0.2071  0.0877
 6823W        W23671  14.033   4.510  15.272 -0.2825  0.1269 -0.1445
 6824W        W23672  10.254   6.062   1.784 -0.1217 -0.0038 -0.2297
 6825W        W23673   3.683  12.019   5.905  0.5412  0.2397 -0.0784
 6826W        W23674   0.838   6.056  15.708 -0.0632 -0.2529  0.0592
 6827W        W23675   2.722   9.076   4.954 -0.0938 -0.1114 -0.2033
 6828W        W23676   7.429   4.763  16.583  0.2504 -0.5016  0.0914
 6829W        W23677  12.138   1.863   2.370 -0.3137 -0.1093 -0.0879
 6830W        W23678   2.321  14.968   0.592  0.3481 -0.1270  0.0166
 6831W        W23679   7.172  16.066  12.254  0.1410 -0.1473  0.1066
 6832W        W23680  12.281   5.015  14.306  0.2139 -0.0285 -0.0764
 6833W        W23681   0.844  16.099   0.379 -0.0596 -0.1906  0.0949
 6834W        W23682  16.488   1.130   6.138  0.0020  0.2662 -0.2030
 6835W        W23683   7.286   0.928   0.645 -0.0217 -0.1244  0.0376
 6836W        W23684   6.812  15.013  16.352 -0.0546 -0.1632  0.1426
 6837W        W23685   0.967  10.849   3.007  0.1579 -0.3087 -0.0104
 6838W        W23686   0.796   9.670  12.357 -0.0826  0.0105 -0.2353
 6839W        W23687   9.273  12.959   1.843  0.2491 -0.0229 -0.1236
 6840W        W23688   8.243   9.727   2.685  0.2066 -0.0138  0.1687
 6841W        W23689  15.115   2.823  16.677  0.4021 -0.1523  0.6088
 6842W        W23690   9.415  11.765   2.353  0.1280  0.3049  0.0727
 6843W        W23691  11.652   6.853  14.926  0.1060  0.0053  0.1289
 6844W        W23692   8.379   3.290   1.168 -0.2931 -0.1576 -0.0781
 6845W        W23693  10.103   0.722   2.940  0.3324  0.0890 -0.2427
 6846W        W23694  16.166   0.363   3.020 -0.1074  0.2485  0.0736
 6847W        W23695   4.404  10.238   5.981  0.1755  0.0043 -0.0001
 6848W        W23696   0.973  10.447   6.192 -0.0461  0.2290 -0.0665
 6849W        W23697   2.489   2.745  12.592 -0.0400 -0.1977  0.0409
 6850W        W23698   0.592  13.361   5.368 -0.1215  0.4616 -0.0308
 6851W        W23699  15.795   0.422   1.139  0.0299  0.4310  0.4084
 6852W        W23700  15.249  12.643  14.920 -0.0874  0.3583  0.1307
 6853W        W23701  16.618   6.646   1.403 -0.1020  0.0484 -0.0664
 6854W        W23702   8.470   1.096   2.799  0.2065 -0.1472 -0.1058
 6855W        W23703   8.992  13.475   1.766 -0.0259  0.1047  0.2801
 6856W        W23704  14.103  10.525   1.125  0.1893  0.1393 -0.0815
 6857W        W23705  14.070   0.597  17.008  0.2169  0.0724  0.2962
 6858W        W23706   8.173  13.875  15.604  0.2649  0.1699  0.2419
 6859W        W23707  13.951   3.040  17.651  0.2472  0.2442  0.0549
 6860W        W23708  11.672   4.610  16.120 -0.1001 -0.0912 -0.0913
 6861W        W23709  14.430   8.684  11.786 -0.1524 -0.1774  0.0022
 6862W        W23710   5.935   6.425  13.183  0.1402 -0.2072 -0.0577
 6863W        W23711   7.641  16.686  17.052  0.1920  0.1235  0.0176
 6864W        W23712   4.540   7.197   2.491 -0.0672  0.1091  0.1138
 6865W        W23713   4.463  15.983   5.827  0.0856 -0.1081 -0.0003
 6866W        W23714  11.532   6.470   5.109 -0.0653 -0.0738  0.0042
 6867W        W23715  10.485  11.736   1.299 -0.3190  0.2912  0.1710
 6868W        W23716   1.038   4.549   0.794 -0.1521  0.0373 -0.1069
 6869W        W23717   0.857  14.603  13.243  0.0436  0.0227  0.1079
 6870W        W23718   5.411   6.479  12.418 -0.1750  0.0793 -0.2267
 6871W        W23719  16.438   6.350  14.695 -0.0595  0.0199  0.1989
 6872W        W23720   0.081   0.607   5.919 -0.0021  0.1321  0.0435
 6873W        W23721   1.599  14.688   4.322 -0.0601 -0.0451  0.1664
 6874W        W23722   2.223   4.447   5.828  0.4403 -0.4456  0.3709
 6875W        W23723  13.007   1.965  11.932 -0.2316  0.0649 -0.1869
 6876W        W23724   6.417  16.266   0.163  0.2502 -0.3314 -0.2153
 6877W        W23725  13.257  16.707   3.309 -0.1109  0.1890  0.3195
 6878W        W23726   6.698  10.932   2.969  0.1055  0.1833 -0.0352
 6879W        W23727   8.395  15.170   3.182  0.0990 -0.1252 -0.0298
 6880W        W23728  13.159   1.084  13.306 -0.2019 -0.2196 -0.2089
 6881W        W23729  16.586  11.986  13.614 -0.0763  0.0671 -0.0738
 6882W        W23730  16.252   8.622   6.148  0.0601 -0.2579  0.2193
 6883W        W23731  12.342   2.022   5.230 -0.3669 -0.0589  0.0007
 6884W        W23732   3.650  13.520   3.991  0.1835 -0.0894  0.2234
 6885W        W23733   2.337   1.890   1.364  0.1464 -0.0193  0.2281
 6886W        W23734   5.541  10.344   5.711  0.1781  0.2433  0.0867
 6887W        W23735  15.921   2.617  12.002 -0.0504  0.1444 -0.0640
 6888W        W23736  11.946  15.895   3.888  0.2441  0.1237  0.2714
 6889W        W23737  10.295  12.382   4.251  0.0038  0.1715 -0.1265
 6890W        W23738   3.164   2.466   2.291  0.0241  0.1609 -0.1547
 6891W        W23739   3.817  12.393  17.632 -0.2293  0.0073  0.0084
 6892W        W23740  10.634   2.032  12.469 -0.1985 -0.2261 -0.2122
 6893W        W23741   1.152  10.430   3.916 -0.1272  0.2237 -0.1903
 6894W        W23742  13.170  16.225   0.497 -0.1032  0.2531  0.2674
 6895W        W23743  10.098  10.862  16.344  0.0547  0.0112 -0.1436
 6896W        W23744  16.103   9.818   3.396 -0.4140 -0.0730  0.1500
 6897W        W23745  13.960   1.123   5.258 -0.0053 -0.1990 -0.2094
 6898W        W23746   7.795  16.326   0.742  0.0556  0.0775 -0.1780
 6899W        W23747  13.394   9.552   3.468 -0.2887  0.1951 -0.0990
 6900W        W23748  11.704   3.960   5.328 -0.0213 -0.2441 -0.1986
 6901W        W23749   3.685  15.022   0.570  0.2721  0.2555  0.3230
 6902W        W23750   5.140   7.808  15.902  0.1592 -0.0370 -0.2426
 6903W        W23751   1.685   9.705  16.773  0.0979  0.0945  0.1669
 6904W        W23752  12.467  16.341   4.588 -0.2850  0.2301 -0.0116
 6905W        W23753   1.517  15.793  15.184  0.0287 -0.0786  0.0935
 6906W        W23754   8.834  14.184  14.696 -0.0524 -0.1934  0.0413
 6907W        W23755  10.357   0.492   4.228  0.2274 -0.0369  0.0956
 6908W        W23756  10.307   0.902  14.868 -0.0084 -0.0129 -0.1264
 6909W        W23757  12.190   8.480   3.578  0.1047 -0.0086 -0.3103
 6910W        W23758  15.862   5.448  13.595 -0.1362 -0.0633 -0.1451
 6911W        W23759  12.239   8.073   0.247 -0.1392  0.0149  0.1413
 6912W        W23760  11.212  10.741   1.849 -0.2599  0.2075  0.0364
 6913W        W23761  10.108   0.839  16.973  0.2197 -0.1253 -0.1168
 6914W        W23762  10.143  14.602  16.129 -0.0275 -0.2233  0.0229
 6915W        W23763   8.777  16.572   0.490  0.0401 -0.2336 -0.0460
 6916W        W23764   7.908  15.084   3.023  0.1329  0.0772  0.0604
 6917W        W23765  10.325   8.571   1.228 -0.1478  0.0900  0.1151
 6918W        W23766   1.455   4.317   0.003 -0.2865  0.3129 -0.2708
 6919W        W23767   6.031  10.918  13.449  0.0275 -0.0343  0.0160
 6920W        W23768   8.313   8.465   5.671 -0.1873  0.2108 -0.2566
 6921W        W23769   6.665  12.775   5.799  0.1573 -0.1825 -0.3692
 6922W        W23770  12.523   0.238  12.283 -0.1148 -0.0374 -0.1383
 6923W        W23771   5.503   4.424   6.107 -0.4083  0.0209  0.1942
 6924W        W23772   8.623   0.596   2.741 -0.2317  0.0215  0.1194
 6925W        W23773  16.773   0.601  14.983  0.1388  0.2321  0.1703
 6926W        W23774  11.602   1.868  13.336 -0.4398 -0.2077  0.0197
 6927W        W23775  11.880  15.398   0.319 -0.2602  0.1353  0.0891
 6928W        W23776   2.204   7.434   5.049  0.1155 -0.0309 -0.2339
 6929W        W23777   4.203   5.591   1.569  0.2512 -0.1408 -0.1332
 6930W        W23778   7.869  14.617   6.419 -0.2743  0.2459 -0.4231
 6931W        W23779   2.866   8.463  12.573 -0.2478  0.0437  0.0671
 6932W        W23780   6.160   3.679  13.579  0.2598  0.1400  0.1448
 6933W        W23781   7.610  11.115  17.669  0.3201 -0.0262  0.2162
 6934W        W23782  11.392   1.451   0.893  0.0423 -0.2354 -0.0442
 6935W        W23783   0.448  12.569  16.556 -0.0215 -0.1707 -0.1310
 6936W        W23784   6.442  15.523  17.283 -0.1817 -0.0354  0.0808
 6937W        W23785   4.646   9.775  12.933  0.0608  0.2764 -0.0999
 6938W        W23786   8.393  16.746  17.456  0.1971  0.0565  0.1842
 6939W        W23787  13.641  13.597  13.063 -0.0546 -0.2023  0.1297
 6940W        W23788   9.103   1.645   4.221 -0.1687 -0.0222 -0.1514
 6941W        W23789   5.366   9.509   3.868  0.0003 -0.1643 -0.1619
 6942W        W23790   2.234  17.038   4.325  0.2532  0.1152  0.0330
 6943W        W23791   8.070   5.525   3.923  0.1307 -0.2699  0.1285
 6944W        W23792   0.742  12.037  12.388  0.0205 -0.0845  0.1887
 6945W        W23793   7.209   2.301  13.219  0.0581  0.0174  0.2184
 6946W        W23794  12.333   7.992   3.459 -0.2788  0.1554 -0.0091
 6947W        W23795  13.001   0.339  11.822 -0.0923  0.1327 -0.1213
 6948W        W23796   8.072   0.554  15.433 -0.1682  0.0800 -0.2392
 6949W        W23797   6.080   9.645  15.671 -0.3722 -0.2563  0.0875
 6950W        W23798   6.603   0.303  13.019  0.0591  0.1699 -0.0750
 6951W        W23799   4.003   6.185   5.700  0.0874  0.0330 -0.0419
 6952W        W23800  16.816   1.235   4.269 -0.2304  0.0637 -0.0752
 6953W        W23801  15.707  15.281   0.292  0.0788  0.1092 -0.1301
 6954W        W23802  14.736   5.571  17.283  0.3245  0.2440  0.0369
 6955W        W23803  14.449  16.987  14.589  0.3125 -0.1585 -0.3162
 6956W        W23804   3.478   0.654  14.449  0.2535 -0.1063  0.2466
 6957W        W23805  15.188  14.904   2.444 -0.0147  0.1237  0.1524
 6958W        W23806  16.598   4.576  13.466  0.0081 -0.1337 -0.1216
 6959W        W23807   5.325   2.761  13.282  0.3782  0.0901  0.2413
 6960W        W23808   7.332  14.684  14.005  0.1342  0.1024  0.0045
 6961W        W23809   8.914   8.206   0.126  0.2183  0.1350  0.2650
 6962W        W23810   4.757   1.425   1.762  0.0578  0.2939 -0.0534
 6963W        W23811   2.758  12.680   1.086  0.0545  0.0751 -0.1333
 6964W        W23812  13.487   7.140  13.024 -0.0249  0.1456 -0.0297
 6965W        W23813   3.190   7.297   2.458 -0.0662  0.1303  0.0413
 6966W        W23814  16.059   1.895  15.687  0.0096  0.0956  0.0356
 6967W        W23815   6.966   2.376   1.791 -0.0101 -0.2693  0.2300
 6968W        W23816   5.991   4.867   4.592 -0.0877 -0.0988 -0.2350
 6969W        W23817   9.226   1.664  13.640 -0.2524 -0.0887  0.0209
 6970W        W23818  11.376  13.277  17.747 -0.2911  0.2676 -0.0677
 6971W        W23819   4.947   5.895   4.564 -0.0553 -0.0052 -0.1829
 6972W        W23820  13.628   3.703   2.454  0.0567 -0.1811  0.1565
 6973W        W23821   4.745   4.475  14.577 -0.0544 -0.0903 -0.0812
 6974W        W23822   5.703  15.369  12.662 -0.0105  0.0241 -0.1464
 6975W        W23823   5.627   7.626   3.316  0.0232  0.2049 -0.0375
 6976W        W23824  16.378  12.408  17.447 -0.0137  0.3034 -0.1605
 6977W        W23825  16.955  15.559  17.701  0.1573 -0.3306  0.0393
 6978W        W23826  14.402  16.799   0.715  0.0515  0.1041  0.1880
 6979W        W23827  12.453   5.483   5.280  0.1655 -0.2805 -0.1936
 6980W        W23828  14.105  11.913  12.999  0.0992  0.0456  0.2528
 6981W        W23829   7.259  10.708   4.282  0.2590  0.1395 -0.2220
 6982W        W23830  13.675  16.609   2.542 -0.1372  0.0364 -0.1593
 6983W        W23831  11.393   3.596   0.024  0.1121  0.1609 -0.1800
 6984W        W23832  10.364   2.759  15.592  0.1998 -0.1578  0.1157
 6985W        W23833   2.768   2.796   4.881 -0.3347 -0.2159  0.1636
 6986W        W23834   0.299  14.777  16.784 -0.2103  0.3001  0.4740
 6987W        W23835   1.172   4.923   4.771 -0.1166 -0.0965  0.2597
 6988W        W23836   7.891  12.765   0.130 -0.1361  0.3760  0.3497
 6989W        W23837  11.027  12.814   0.038  0.5856  0.0586 -0.0741
 6990W        W23838  13.760  14.978   3.454  0.0935  0.1385 -0.0573
 6991W        W23839   1.250   5.204  17.478 -0.2214 -0.2222 -0.0011
 6992W        W23840   2.490  15.194  13.332  0.3590 -0.1433  0.0382
 6993W        W23841  16.786   5.131   4.099 -0.1900  0.0443  0.0042
 6994W        W23842  12.472  12.614   3.442 -0.0460  0.0385  0.1518
 6995W        W23843   2.238   1.752  15.741 -0.2060  0.0020 -0.1205
 6996W        W23844  15.001   3.061  12.994  0.0194 -0.3141 -0.1259
 6997W        W23845   0.120   9.756   3.466 -0.0712  0.5430 -0.1752
 6998W        W23846  16.258   2.160   6.705  0.1253 -0.1719  0.3333
 6999W        W23847  14.953  14.531  17.521  0.2721 -0.3808 -0.2333
 7000W        W23848  14.062   0.998  12.159 -0.0916  0.4670  0.0482
 7001W        W23849   8.769   6.350  11.782  0.0992  0.2735 -0.2223
 7002W        W23850   5.396   8.826   5.505  0.0314  0.0267 -0.1914
 7003W        W23851   3.418   3.130   1.147  0.0108  0.3220 -0.1006
 7004W        W23852  16.004   8.696  12.623  0.2351 -0.1902 -0.1308
 7005W        W23853   9.726  13.993   4.301 -0.1815  0.0189 -0.1834
 7006W        W23854  13.679   9.989  13.218  0.3875 -0.2380  0.0329
 7007W        W23855  14.100   5.122  13.716 -0.1840  0.0111  0.1152
 7008W        W23856   6.155   3.130  14.850 -0.0459 -0.2960 -0.1225
 7009W        W23857   5.560  12.931   5.802 -0.0646 -0.1706  0.1082
 7010W        W23858  12.967  12.359   5.374 -0.2552 -0.2377 -0.1929
 7011W        W23859   5.226   3.409  13.204 -0.0527 -0.1753  0.0112
 7012W        W23860   9.135   9.258  12.587  0.0115 -0.0001  0.1897
 7013W        W23861  17.009  11.733  14.636  0.3413  0.3065  0.0296
 7014W        W23862  15.895   5.477  16.333 -0.0911  0.2157  0.1447
 7015W        W23863   5.066  11.896   4.622 -0.1264  0.1006 -0.2997
 7016W        W23864   0.223  11.138  12.945 -0.0961 -0.1048 -0.0473
 7017W        W23865   3.468   3.597  16.879 -0.5294  0.1008  0.0577
 7018W        W23866   7.022   9.103  13.632 -0.0071 -0.0356  0.0154
 7019W        W23867   0.691   4.879   1.236 -0.2105 -0.2903 -0.1690
 7020W        W23868   7.101   5.046   5.444 -0.0538 -0.0056  0.0693
 7021W        W23869  10.435  13.321   3.912 -0.1693  0.0601  0.0968
 7022W        W23870  10.336  14.435  15.670  0.4258 -0.1711 -0.3376
 7023W        W23871   7.339  16.037  17.696  0.1083  0.2289 -0.1336
 7024W        W23872   5.712  16.439  16.049 -0.2611  0.2224 -0.1432
 7025W        W23873   2.493  16.616   3.027 -0.1854  0.1519 -0.1581
 7026W        W23874   9.706   1.155  12.907 -0.0300  0.0081  0.3234
 7027W        W23875  16.537   7.370  16.087 -0.1144 -0.2928  0.2667
 7028W        W23876   9.959   9.276  15.143 -0.2062 -0.0407 -0.0895
 7029W        W23877  15.233   5.945   1.535 -0.0447  0.0114 -0.2820
 7030W        W23878  11.847   9.276   2.667 -0.1616  0.2833  0.2685
 7031W        W23879   0.039  13.553  14.076  0.4313 -0.2803 -0.2468
 7032W        W23880   5.323   4.727   1.985  0.2302 -0.0275 -0.1298
 7033W        W23881   2.004   4.832  16.239 -0.0657  0.2177  0.4816
 7034W        W23882   1.273   2.098  13.849  0.3217 -0.0813 -0.0614
 7035W        W23883  12.939  13.941  15.643  0.0939  0.1133  0.2958
 7036W        W23884  12.424  13.799   2.836 -0.2122  0.2039  0.3684
 7037W        W23885  11.768   2.942  16.288 -0.0772 -0.2058 -0.0007
 7038W        W23886   9.960   3.676  16.034 -0.0134  0.2737 -0.0048
 7039W        W23887   2.670   9.198   0.977  0.2800 -0.1475  0.1816
 7040W        W23888   2.193   2.895  16.572  0.1416  0.0627  0.1117
 7041W        W23889   0.148   9.595  14.526  0.1367  0.2273  0.0540
 7042W        W23890   4.393   5.257  12.844  0.0569  0.1464 -0.0710
 7043W        W23891  14.158  10.113  11.546 -0.0605 -0.0306  0.3985
 7044W        W23892  11.659   1.471  14.741  0.1474 -0.1380 -0.0536
 7045W        W23893  12.047  14.972   3.664 -0.0509  0.0039  0.2754
 7046W        W23894   8.840   8.944   3.353  0.1249  0.3724 -0.2814
 7047W        W23895  16.390  13.470  15.383  0.0403 -0.0024 -0.0478
 7048W        W23896  11.214   0.624   3.624  0.0108  0.2169  0.0683
 7049W        W23897   7.377  14.743   1.086 -0.0261  0.1436  0.2835
 7050W        W23898   6.764   8.288   3.269 -0.1347 -0.2148  0.1213
 7051W        W23899  13.915  10.161   5.488 -0.3356 -0.1837  0.1292
 7052W        W23900   0.735   6.199   1.823 -0.2691 -0.2458  0.0645
 7053W        W23901  12.509   0.988   2.090 -0.1919 -0.0189  0.0968
 7054W        W23902   0.453   5.822  15.091 -0.1506 -0.0429 -0.4611
 7055W        W23903   0.895   9.101   0.057  0.4012 -0.2557 -0.0776
 7056W        W23904   9.353   7.180  14.103 -0.1928  0.0688  0.0903
 7057W        W23905  15.002  11.000   0.828  0.1159 -0.0058  0.0122
 7058W        W23906   2.382   1.187  15.859  0.0787 -0.0421  0.0427
 7059W        W23907   6.396   8.764  17.054 -0.0805 -0.0947 -0.2812
 7060W        W23908   0.598   1.034   0.884 -0.0923 -0.1879  0.1024
 7061W        W23909   4.077  11.549  12.924  0.3899 -0.0775  0.1983
 7062W        W23910  11.928  11.748  11.859  0.0076 -0.3614 -0.3516
 7063W        W23911   8.572  17.115  17.186  0.2072 -0.1594 -0.0015
 7064W        W23912  11.945  11.286   2.205 -0.0877  0.0335  0.0533
 7065W        W23913   3.915   2.038  15.343  0.0683  0.0592  0.0028
 7066W        W23914   0.149  13.174  15.522 -0.0310 -0.1839  0.0710
 7067W        W23915   4.679  11.495  17.301  0.0631 -0.3559  0.0895
 7068W        W23916  15.043   9.131  13.822  0.0230  0.1310 -0.0563
 7069W        W23917   3.705   3.580  13.981 -0.0811  0.0640 -0.1399
 7070W        W23918   1.156  10.779  14.070 -0.2238  0.1364  0.1466
 7071W        W23919  11.743   8.800   2.437  0.1523  0.2013 -0.0588
 7072W        W23920  11.334   3.752  12.696  0.1174 -0.2684 -0.2319
 7073W        W23921   1.161  12.237   6.139  0.1745 -0.1625  0.1892
 7074W        W23922  11.331   0.783  17.432 -0.2625  0.0312 -0.1546
 7075W        W23923  14.758   6.986   0.429 -0.1716  0.1407  0.1796
 7076W        W23924   7.741   7.528   4.664 -0.1186 -0.1960  0.1720
 7077W        W23925   0.874  12.769   2.908 -0.0863 -0.2174 -0.1382
 7078W        W23926   3.220   2.487  15.727 -0.1816 -0.1854  0.4282
 7079W        W23927   7.474   4.044  13.759 -0.1575 -0.1502 -0.0271
 7080W        W23928  11.413   5.680   3.564 -0.2227  0.0589 -0.1347
 7081W        W23929   7.805  16.355  16.408 -0.2392 -0.1742 -0.0793
 7082W        W23930  12.128  14.575  13.597  0.1209 -0.1650 -0.3166
 7083W        W23931   6.543   4.016  13.372  0.0080  0.1086 -0.2186
 7084W        W23932  15.130   9.704   3.199 -0.1373 -0.4039  0.0622
 7085W        W23933   2.989  16.227   2.148  0.1405  0.0738  0.0029
 7086W        W23934  14.394  10.667   3.093 -0.0767  0.1427  0.1066
 7087W        W23935   5.505  16.968  15.425  0.0142 -0.0756  0.2065
 7088W        W23936   6.998  11.187  13.678 -0.1161  0.0221 -0.1256
 7089W        W23937  15.360  14.232  17.487 -0.0272  0.2105 -0.1930
 7090W        W23938  13.452   4.478   0.744 -0.0699 -0.2519  0.3422
 7091W        W23939  16.308  13.673   1.835  0.0546 -0.0921  0.0794
 7092W        W23940   4.083  13.623   2.656  0.0451 -0.4451  0.0543
 7093W        W23941   0.873   6.346   0.580  0.2986  0.1631  0.1564
 7094W        W23942   6.080   3.138   5.554  0.1196 -0.2921 -0.1619
 7095W        W23943  13.907   1.270  15.301 -0.0055 -0.1442  0.1443
 7096W        W23944  16.065  11.105   5.946  0.0309 -0.2110 -0.2031
 7097W        W23945   0.270   6.088  13.009 -0.0431  0.0467  0.0469
 7098W        W23946  10.972   7.685   0.822  0.1771 -0.0673  0.1325
 7099W        W23947   0.537   2.366   1.360  0.1293 -0.2540  0.0693
 7100W        W23948   4.005   6.287  16.666  0.0489  0.0554  0.2213
 7101W        W23949  13.249  14.285   5.064  0.2083  0.1414 -0.2688
 7102W        W23950  10.063   3.196   3.769 -0.2838  0.1540 -0.2165
 7103W        W23951   8.797   7.400   5.384 -0.1214  0.1379 -0.1964
 7104W        W23952   9.517  16.956   3.989 -0.0458 -0.0942  0.2324
 7105W        W23953   9.091   6.678   1.419 -0.0061 -0.0618 -0.0632
 7106W        W23954  11.347   9.736  13.089  0.1009 -0.2036 -0.0982
 7107W        W23955  11.593  16.184   4.173 -0.0091  0.0723  0.0952
 7108W        W23956  14.822   8.626  12.271 -0.3452 -0.2929  0.1715
 7109W        W23957   1.915   2.556  16.281 -0.1669  0.1206 -0.2555
 7110W        W23958   9.456   6.225   1.382  0.2763  0.2251  0.1234
 7111W        W23959  15.382  10.946  17.408  0.2260  0.2250 -0.1779
 7112W        W23960   4.749   9.110   3.243 -0.0088  0.2324  0.1135
 7113W        W23961   6.346  15.408   3.153  0.3729 -0.4461  0.2496
 7114W        W23962   8.313   1.465   0.282 -0.2706 -0.1265 -0.1719
 7115W        W23963   2.184  14.479  12.529 -0.0830 -0.1618  0.1338
 7116W        W23964   7.727  13.341  10.995 -0.3404  0.0234  0.3152
 7117W        W23965   7.253   1.342  13.701 -0.2430  0.0010 -0.2404
 7118W        W23966   1.983   0.313  13.964 -0.0601 -0.2185  0.1832
 7119W        W23967   9.406   5.472  14.912 -0.1934 -0.0230  0.3600
 7120W        W23968   0.336   7.775   0.363 -0.0697  0.0273  0.0589
 7121W        W23969   7.174  14.748  13.256 -0.0654  0.0357  0.2953
 7122W        W23970   3.294   6.927  13.242 -0.0184 -0.1408 -0.0803
 7123W        W23971   7.919  12.688   2.442 -0.3523  0.1307  0.1630
 7124W        W23972  15.246  12.239  16.885  0.3010 -0.0138 -0.1721
 7125W        W23973  12.492  11.089   2.897 -0.1154 -0.2100  0.2449
 7126W        W23974   9.212   5.342   6.541  0.3164  0.0037 -0.0602
 7127W        W23975   0.031   1.666   0.682 -0.0453 -0.1946 -0.2998
 7128W        W23976   6.457  11.978  13.395 -0.0681  0.1698 -0.0551
 7129W        W23977   5.163   4.863  15.336  0.0355 -0.2931 -0.1695
 7130W        W23978   1.787   4.185   2.676  0.1679  0.2523 -0.1409
 7131W        W23979  11.249  12.498  16.990 -0.0087  0.3222 -0.1914
 7132W        W23980  14.148   6.619  16.006  0.0612  0.0279  0.1348
 7133W        W23981  11.742   7.507  12.889 -0.0992 -0.0378  0.0272
 7134W        W23982   1.307   3.841  14.480 -0.2627  0.0357 -0.2030
 7135W        W23983   4.273  16.327   0.090  0.3575 -0.0477  0.2814
 7136W        W23984   8.105  12.012  17.408 -0.0202  0.0894  0.0127
 7137W        W23985  15.586  17.050   5.287  0.1655  0.0074  0.3895
 7138W        W23986   5.076  14.539   1.966  0.1458 -0.2456  0.0024
 7139W        W23987  10.014  10.279  14.154 -0.0528  0.1146  0.0762
 7140W        W23988   6.081   9.164   4.387 -0.1322 -0.1319  0.3499
 7141W        W23989   8.921  13.050  14.442  0.0845 -0.3910 -0.0386
 7142W        W23990   6.732  16.749  12.448  0.1687  0.2356  0.0411
 7143W        W23991   8.727  11.983   3.924 -0.0076  0.1460  0.2007
 7144W        W23992   2.732  11.256  13.038  0.0259  0.1880 -0.0417
 7145W        W23993  10.747   6.816  13.322 -0.0910 -0.0153  0.1110
 7146W        W23994  16.875  15.180   5.728  0.1071 -0.0922  0.0891
 7147W        W23995   5.919   9.705   2.932 -0.1973  0.3499 -0.0132
 7148W        W23996   5.559  15.383   2.774 -0.3277  0.0339  0.2418
 7149W        W23997   5.467  15.371   3.525 -0.3486 -0.1380  0.2038
 7150W        W23998   8.767  12.953   1.709  0.2326 -0.1802 -0.0038
 7151W        W23999   0.326  14.885  17.260  0.0774 -0.2375  0.0516
 7152W        W24000   8.339  16.647   5.114 -0.1265  0.2115  0.3302
 7153W        W24001   6.249   7.460  13.550  0.0438 -0.2386 -0.1248
 7154W        W24002  12.072  15.720   1.033 -0.2196  0.1608  0.3166
 7155W        W24003  11.674  13.960   1.332 -0.2044 -0.2623  0.1507
 7156W        W24004  16.068   2.705   1.936 -0.0148 -0.1089  0.1227
 7157W        W24005  12.744  11.660  14.105 -0.1368 -0.0411  0.0651
 7158W        W24006  12.086   6.730  13.221  0.0801 -0.1141 -0.1128
 7159W        W24007  15.818   7.371   5.509 -0.2297  0.1270  0.1343
 7160W        W24008  10.016   2.687  12.658  0.1187 -0.3081  0.0480
 7161W        W24009   4.614   7.989  15.999  0.0330  0.0708 -0.2360
 7162W        W24010   5.165   7.780   0.753  0.1369 -0.3817 -0.1772
 7163W        W24011  11.101   2.757   2.862  0.0404  0.0688  0.2843
 7164W        W24012   9.836  11.472   5.194 -0.2293 -0.0489 -0.0766
 7165W        W24013  11.952   4.246  17.695 -0.2585  0.1070 -0.2871
 7166W        W24014   7.190  11.881  16.676  0.0961  0.0726  0.0918
 7167W        W24015  15.408   8.811  13.925 -0.0944  0.2415 -0.0056
 7168W        W24016  14.074   1.936   4.844  0.1155 -0.1046  0.0672
 7169W        W24017   8.809  10.230  12.717 -0.2023 -0.2461 -0.0906
 7170W        W24018   2.765   0.191   1.107  0.2293  0.0943 -0.2561
 7171W        W24019   4.491   5.528   3.535  0.1978 -0.0486 -0.0431
 7172W        W24020   8.363   9.992   3.663  0.1783 -0.0239  0.1138
 7173W        W24021  13.216  11.218   1.562  0.3402  0.2211 -0.0454
 7174W        W24022   9.595   9.962  15.028  0.0371  0.1830  0.0765
 7175W        W24023   0.213   3.576  13.445 -0.0196 -0.1773 -0.0562
 7176W        W24024  16.673   5.896  16.270 -0.0507 -0.0119 -0.0037
 7177W        W24025   1.096  14.120   0.768  0.3127 -0.3493 -0.3220
 7178W        W24026   6.091   6.218   3.502 -0.1869  0.0580  0.2479
 7179W        W24027   1.722   6.790   1.583  0.1829  0.0654  0.2300
 7180W        W24028  10.626   5.317  13.991  0.3419  0.3049 -0.0028
 7181W        W24029  11.556   1.490   1.781 -0.4180 -0.2661  0.2482
 7182W        W24030  12.885   6.350   4.479  0.1535  0.0119 -0.0541
 7183W        W24031   0.307  10.152  13.846  0.3307  0.0981 -0.1623
 7184W        W24032   8.810  13.949  14.260 -0.0757  0.0307  0.1500
 7185W        W24033   6.999   4.024  14.158 -0.1155  0.3294 -0.1935
 7186W        W24034   5.920  10.492  14.099  0.0305 -0.3874 -0.3234
 7187W        W24035   8.512  12.007   4.803  0.1752  0.3268  0.0948
 7188W        W24036  12.238   9.771  14.878 -0.4429  0.0713  0.0911
 7189W        W24037   9.056   1.280  14.651  0.0048 -0.2201 -0.0838
 7190W        W24038  14.986  17.155  14.673 -0.0698  0.1981  0.2038
 7191W        W24039  11.441   8.884  12.863  0.1560  0.3409 -0.0016
 7192W        W24040   5.146  10.284  11.322 -0.0235  0.2306 -0.3293
 7193W        W24041  15.447   0.328  12.428 -0.2021 -0.4263  0.1831
 7194W        W24042   1.329  11.617   1.523 -0.1486 -0.1439  0.0370
 7195W        W24043   0.369  10.699  14.122 -0.0259  0.3267  0.0353
 7196W        W24044   0.440   8.293  16.847 -0.0942 -0.1658 -0.1979
 7197W        W24045  15.581   4.227  12.714  0.1821 -0.0421 -0.0421
 7198W        W24046   6.843   3.422  16.878  0.0390 -0.2381 -0.1072
 7199W        W24047   5.643   6.454   2.628 -0.0161 -0.1783 -0.0175
 7200W        W24048   1.632  10.698   6.169  0.2147  0.0298 -0.0533
 7201W        W24049   5.730  10.316  15.795 -0.1350  0.1735  0.0704
 7202W        W24050   9.370  12.177   4.321  0.2674 -0.1817 -0.1875
 7203W        W24051   0.871  13.450   2.350 -0.2074 -0.0455  0.0192
 7204W        W24052  16.166  16.192   2.859 -0.0538  0.0986 -0.0276
 7205W        W24053   6.544   4.965   3.879  0.2217 -0.0125 -0.3284
 7206W        W24054  15.362  14.323  15.302  0.1181 -0.1562 -0.0915
 7207W        W24055   4.787   9.735   3.505  0.0704 -0.3378 -0.2647
 7208W        W24056  14.396  13.569   1.031  0.0930  0.2856  0.2077
 7209W        W24057  16.185   3.763  12.415  0.1061 -0.3155 -0.2182
 7210W        W24058   9.672  13.845   3.658  0.0563 -0.0413 -0.1263
 7211W        W24059  16.249  10.475   1.859  0.1374 -0.1646  0.1475
 7212W        W24060  12.972   2.189   3.241 -0.1334 -0.2866  0.0849
 7213W        W24061   6.776   1.482   0.908 -0.0612  0.2555  0.0604
 7214W        W24062  10.703   7.932   0.262  0.0774 -0.1482  0.2432
 7215W        W24063   6.518   9.489  13.955  0.1058  0.1732  0.3191
 7216W        W24064   2.141   8.948  16.303 -0.3891 -0.3287 -0.0090
 7217W        W24065  10.211  10.062   2.705 -0.0663 -0.0912  0.1004
 7218W        W24066  14.803  16.157  13.079  0.4517 -0.1417  0.0501
 7219W        W24067   2.898  16.524  12.654  0.1131  0.0400 -0.1302
 7220W        W24068   1.101   9.664   4.136  0.1606  0.3914  0.1218
 7221W        W24069   0.090   9.544   3.018 -0.1948 -0.0402  0.0256
 7222W        W24070  14.973   4.196  13.807 -0.4281  0.0728 -0.1953
 7223W        W24071   2.385   2.784   2.114 -0.0152 -0.2567 -0.3594
 7224W        W24072   7.179   4.741  15.153  0.2809  0.0575 -0.2396
 7225W        W24073  17.065   6.011  16.500  0.1701 -0.5904 -0.2714
 7226W        W24074   0.061   4.438   0.349 -0.0678  0.0597 -0.2524
 7227W        W24075   0.561   2.982   5.201  0.4271 -0.2082  0.0628
 7228W        W24076   4.441   6.612  15.538  0.0849 -0.2187  0.0083
 7229W        W24077   9.305   9.397  17.366  0.0929  0.2290  0.0599
 7230W        W24078  14.178  11.964  17.528 -0.1491  0.1231 -0.0733
 7231W        W24079   5.502  10.798  15.566  0.0210 -0.1637  0.3961
 7232W        W24080   4.353   3.636  15.677  0.0235 -0.2092 -0.0770
 7233W        W24081   2.146   2.649   3.954 -0.1609 -0.1101 -0.0655
 7234W        W24082  12.726   5.845  17.373  0.1833 -0.0389  0.2477
 7235W        W24083   6.132  13.285   3.757  0.0868 -0.2496  0.2575
 7236W        W24084  13.240  15.727  13.259  0.0164 -0.1214 -0.0398
 7237W        W24085   7.844   3.611  13.230  0.1066 -0.1485  0.0079
 7238W        W24086   9.607   3.799   3.101 -0.0310  0.2299 -0.0131
 7239W        W24087   9.708   5.416   4.383 -0.0496  0.1320  0.0226
 7240W        W24088   8.180   7.622   4.855  0.0668 -0.1909  0.2030
 7241W        W24089  17.090   5.531  16.629 -0.0076  0.1795 -0.2323
 7242W        W24090  10.304   7.079  17.513 -0.6228  0.1198 -0.0952
 7243W        W24091  11.458  13.060  14.808 -0.3143 -0.0720  0.0326
 7244W        W24092  14.503  12.733  17.010 -0.2071  0.0973 -0.1945
 7245W        W24093   7.023   7.028   3.690 -0.0062 -0.0626  0.0622
 7246W        W24094  10.473  11.164   3.924  0.1036 -0.0435 -0.2895
 7247W        W24095   9.412   7.422  15.025  0.0893  0.3150  0.0244
 7248W        W24096  10.894   1.512   4.042 -0.0759 -0.1382 -0.3178
 7249W        W24097   4.090   9.333   2.651 -0.1922 -0.2140  0.1009
 7250W        W24098   4.590   9.708   4.808 -0.1194 -0.4565  0.0796
 7251W        W24099   7.758  16.103   5.332  0.2588 -0.1322  0.0659
 7252W        W24100   2.142   6.642   5.493 -0.2315  0.2307  0.3462
 7253W        W24101  13.460  10.612   0.045 -0.0174 -0.2093  0.1965
 7254W        W24102  16.951   0.194  12.475  0.0301 -0.1617 -0.0343
 7255W        W24103   0.228   5.096   1.956 -0.0701 -0.1081 -0.0337
 7256W        W24104   1.419   1.698   6.157  0.2239  0.2312 -0.2467
 7257W        W24105  11.546  14.092   0.575  0.1773  0.2788 -0.1408
 7258W        W24106   7.174   6.597   2.215 -0.0081 -0.0222 -0.0277
 7259W        W24107  11.883  14.100   2.280 -0.0237  0.1340 -0.2335
 7260W        W24108   5.076   3.408  15.953 -0.0298  0.0567 -0.1467
 7261W        W24109   6.996  10.009   4.561 -0.0326 -0.1075  0.0694
 7262W        W24110   6.178   1.650   1.262 -0.1749 -0.0677 -0.0857
 7263W        W24111   2.505  17.035   5.221 -0.1187  0.1138 -0.2761
 7264W        W24112  15.285   2.777  13.895  0.3691  0.2317 -0.0051
 7265W        W24113   0.745   4.860  13.156  0.3120  0.0029 -0.1820
 7266W        W24114  15.878   4.783   2.676  0.1867  0.3765  0.2348
 7267W        W24115  10.704  11.940  12.487 -0.2120  0.3034  0.0408
 7268W        W24116  14.227  14.662  15.563  0.1320  0.0797 -0.1531
 7269W        W24117  14.040  13.153   2.232 -0.1642  0.0594 -0.4517
 7270W        W24118  14.242   6.616   1.896  0.1933  0.0222  0.1017
 7271W        W24119   3.965   2.443  15.045 -0.2565  0.0325 -0.1693
 7272W        W24120  13.642   7.524   2.378 -0.0371  0.1636 -0.0290
 7273W        W24121   0.278  11.956   0.760 -0.0801  0.1630  0.3162
 7274W        W24122   1.096   1.263  16.853 -0.0401  0.2756 -0.0215
 7275W        W24123  12.810   9.920   3.103  0.0963 -0.2849  0.1124
 7276W        W24124  13.092   6.393  12.939  0.1089 -0.1175 -0.0258
 7277W        W24125   1.418   6.062   3.613  0.1133  0.1411 -0.0501
 7278W        W24126   0.618   2.268   2.927  0.2716 -0.1456  0.0318
 7279W        W24127  10.506  12.898   4.258 -0.0771  0.0657  0.1398
 7280W        W24128   5.814   0.855   0.269  0.2018 -0.4650 -0.1474
 7281W        W24129  12.866  10.917   3.204 -0.2260 -0.3703 -0.0003
 7282W        W24130   7.434   3.256   1.390 -0.1027  0.0049  0.1836
 7283W        W24131   1.087  14.568  17.044  0.2153 -0.1431 -0.1200
 7284W        W24132  15.412   7.772   2.613 -0.0071  0.2702  0.1715
 7285W        W24133   6.890   0.411  14.551 -0.1391 -0.1257 -0.0955
 7286W        W24134   6.519   6.398  17.425 -0.1478  0.1434 -0.0698
 7287W        W24135   5.198  13.178  16.265  0.3171  0.0490  0.0193
 7288W        W24136   9.324   9.944   3.617 -0.0968  0.2658  0.0233
 7289W        W24137  12.842  14.863   6.162  0.0639  0.3340 -0.0313
 7290W        W24138  14.890   5.809  12.529  0.1786 -0.0212 -0.2437
 7291W        W24139   2.516   2.177   3.300 -0.1526 -0.0710  0.0443
 7292W        W24140   6.537  12.473   3.764 -0.3303  0.1896 -0.2575
 7293W        W24141   7.910   8.375  14.134  0.2483  0.1257 -0.2691
 7294W        W24142  14.195   8.696   3.318  0.0169 -0.0203 -0.1318
 7295W        W24143  11.763   2.542   5.354  0.1395  0.2289  0.1127
 7296W        W24144  12.198  10.573   2.891 -0.1746  0.2603  0.2634
 7297W        W24145   4.774  13.332   2.272 -0.0688 -0.0580 -0.1706
 7298W        W24146   1.707  10.612   0.870  0.3402 -0.0497 -0.2057
 7299W        W24147   0.043  12.819  16.180 -0.1247  0.1134  0.0473
 7300W        W24148   1.896   5.883   5.140  0.3485  0.0252  0.2614
 7301W        W24149   1.963   4.823  14.128  0.0013 -0.3015 -0.0752
 7302W        W24150  11.926  13.331  16.981 -0.1638  0.0638  0.2330
 7303W        W24151  14.322  14.869   5.435  0.2296 -0.1603 -0.1655
 7304W        W24152   8.562  13.217  11.998 -0.1314 -0.0754  0.3979
 7305W        W24153   2.820   2.895  17.222 -0.1010  0.3110 -0.1180
 7306W        W24154   6.068   5.750  13.946  0.2482  0.1459 -0.1872
 7307W        W24155  14.494  10.330  11.884 -0.2225 -0.1022 -0.3785
 7308W        W24156  10.996   0.298   2.470  0.2603 -0.0071 -0.1633
 7309W        W24157   9.206   0.481  16.674  0.0591  0.0771  0.1346
 7310W        W24158   8.544  12.190   2.177  0.0362  0.1224  0.2302
 7311W        W24159  12.961  14.846   0.818  0.1692  0.1207 -0.3395
 7312W        W24160   0.993  13.141   5.984 -0.2448  0.3819 -0.0351
 7313W        W24161   0.042  11.516  13.729  0.2131 -0.2067 -0.0330
 7314W        W24162   8.983   2.035  12.657 -0.0466 -0.0880 -0.2478
 7315W        W24163   9.747  10.337   3.613 -0.1603 -0.0724 -0.1915
 7316W        W24164  11.112  13.055  13.942 -0.0154  0.1949 -0.4766
 7317W        W24165   0.202   7.734   4.587 -0.1610  0.0906  0.2863
 7318W        W24166  11.128   0.944   0.986 -0.2143 -0.0130 -0.1647
 7319W        W24167  11.883  14.490  15.041  0.1488  0.0007 -0.1610
 7320W        W24168   4.591   3.851  16.936 -0.0901  0.0535 -0.1878
 7321W        W24169   4.187   5.138   3.612  0.0428 -0.0059  0.0271
 7322W        W24170   5.673   9.521   3.321  0.2612  0.1104 -0.1248
 7323W        W24171   4.741   5.029  16.633  0.0781  0.0072 -0.1349
 7324W        W24172   0.259   0.053   4.998 -0.1936  0.0007 -0.0224
 7325W        W24173   9.509  15.249   0.478 -0.1065  0.1174 -0.1285
 7326W        W24174   3.714  12.434   6.192 -0.1624  0.2133  0.0561
 7327W        W24175  14.228   4.644   3.539  0.0324 -0.0123  0.0696
 7328W        W24176   5.747  10.742   1.155  0.0181  0.1175 -0.0462
 7329W        W24177   4.590   5.453   0.054  0.2645  0.1718  0.0717
 7330W        W24178  12.678  16.191   4.196 -0.6005 -0.3915 -0.1110
 7331W        W24179  14.860   0.241  17.007  0.3052 -0.0986 -0.1789
 7332W        W24180  14.611   4.225   3.637  0.0158  0.1027  0.1786
 7333W        W24181   7.786  13.417  15.244  0.0560  0.0087  0.0267
 7334W        W24182  11.949   1.544   4.532  0.0681  0.0970 -0.0540
 7335W        W24183   9.429   6.076  12.376  0.0188 -0.0909 -0.1025
 7336W        W24184   5.236   4.636  12.324  0.0895  0.4413  0.0617
 7337W        W24185  16.518   3.118  17.188  0.1293  0.1771  0.0036
 7338W        W24186  14.887   7.709  16.491  0.0294  0.0253 -0.1332
 7339W        W24187  13.946  10.161  12.469  0.1627  0.1077  0.1116
 7340W        W24188  10.363   9.494  17.566  0.0141 -0.0842  0.1802
 7341W        W24189   7.617   2.880  15.879 -0.0969 -0.0348 -0.1130
 7342W        W24190   0.463  16.197  16.677  0.1452 -0.1406 -0.0393
 7343W        W24191   4.166  14.802   1.027 -0.0590  0.0023  0.2522
 7344W        W24192  10.834   9.558   5.270 -0.0275  0.2250  0.2156
 7345W        W24193  16.020   3.828  15.777 -0.1867  0.1021 -0.1463
 7346W        W24194   7.026   4.374   1.772  0.2848  0.1478 -0.4358
 7347W        W24195   5.990   1.137   5.014  0.0706 -0.1236 -0.2844
 7348W        W24196   0.334  14.029  17.419  0.1980 -0.0664  0.0121
 7349W        W24197  13.011   0.236  12.333 -0.3124  0.3497  0.1225
 7350W        W24198  16.432   8.419  12.688 -0.1700  0.0007 -0.0811
 7351W        W24199   3.278   5.925  13.294 -0.1476 -0.2156  0.1911
 7352W        W24200  14.877   4.543  17.374  0.0600 -0.4235 -0.1911
 7353W        W24201   7.978   3.525  14.760 -0.3144  0.1442 -0.0588
 7354W        W24202  16.573  15.629  15.067  0.1112  0.0801  0.4028
 7355W        W24203  12.232   0.192  13.191  0.1705  0.0840 -0.1346
 7356W        W24204  15.393   2.892  12.647  0.2552 -0.0512 -0.1545
 7357W        W24205   8.719   3.817   2.820 -0.1995 -0.1058 -0.5068
 7358W        W24206  16.445  16.742   1.374  0.0849  0.2132  0.0682
 7359W        W24207  16.017  11.329  12.686  0.2164 -0.1927  0.2367
 7360W        W24208   8.927  13.990  12.468  0.1565  0.1460  0.4098
 7361W        W24209   5.776   1.928  13.877 -0.2478  0.0363 -0.1393
 7362W        W24210   4.919  14.891  16.026 -0.1502  0.3364  0.1662
 7363W        W24211   9.601  16.535  11.011  0.1762 -0.2281  0.1896
 7364W        W24212  12.302   2.206   1.432 -0.0215  0.1620  0.0886
 7365W        W24213   8.934   2.218   3.876  0.1450  0.0753  0.3014
 7366W        W24214   3.046  16.261  16.610  0.1342  0.0942  0.1627
 7367W        W24215   1.191   6.018  17.068 -0.1459  0.0094  0.2577
 7368W        W24216   3.505  10.894  15.592 -0.0121 -0.0905  0.5312
 7369W        W24217  16.653   9.909   1.388 -0.1008  0.0980 -0.1050
 7370W        W24218   9.279  15.878  17.589 -0.1986  0.0384 -0.3278
 7371W        W24219  15.074  16.620   3.375  0.0975 -0.3778 -0.2563
 7372W        W24220   3.479   2.457  13.141  0.1891  0.0777  0.0670
 7373W        W24221   4.809   2.723  15.113  0.0275  0.1698 -0.4748
 7374W        W24222   7.268   0.601  16.555 -0.1557 -0.1297 -0.0298
 7375W        W24223  16.987  10.700  12.689  0.1777  0.0956  0.0521
 7376W        W24224   0.171   1.124   1.795  0.2439  0.0300 -0.0418
 7377W        W24225  13.795   2.518  15.722  0.0132  0.1226 -0.2768
 7378W        W24226  15.385   9.222   0.830  0.2135  0.1913 -0.0356
 7379W        W24227   0.665   9.855  16.533 -0.0212  0.2364 -0.1338
 7380W        W24228   8.572  12.590   3.891  0.0210  0.0531  0.1859
 7381W        W24229   9.246   4.108   4.773 -0.2132  0.1695 -0.0316
 7382W        W24230  10.363   9.365  14.009  0.0134  0.0956  0.1200
 7383W        W24231  11.828   4.438   3.674  0.1100 -0.1890 -0.1695
 7384W        W24232  11.062   2.618  15.119  0.2936 -0.0666 -0.0889
 7385W        W24233  12.617   6.581   5.264 -0.1187  0.2059 -0.1880
 7386W        W24234   6.653  15.505  12.727 -0.0922 -0.0969  0.0324
 7387W        W24235   5.121   3.724   5.316 -0.1150 -0.0409  0.2194
 7388W        W24236  17.097   4.231   1.170 -0.0282 -0.2276  0.2334
 7389W        W24237   2.665   0.853  16.179 -0.1197 -0.0008 -0.1990
 7390W        W24238   5.019   6.754   4.482  0.0897 -0.3784  0.2109
 7391W        W24239   1.900   7.633   1.727 -0.0507  0.0815 -0.0792
 7392W        W24240  16.411  11.938  13.147 -0.1641  0.4565  0.0634
 7393W        W24241   1.049  15.838  14.161 -0.0880  0.0379  0.0571
 7394W        W24242   1.924   7.597  16.503 -0.1017  0.3411 -0.0656
 7395W        W24243  12.835   8.060   0.957 -0.2710  0.1294 -0.3382
 7396W        W24244   2.114   5.127   2.857  0.0110 -0.1507  0.2836
 7397W        W24245   2.671   7.867   0.204  0.0614  0.1082  0.0643
 7398W        W24246  13.663   5.957  13.966  0.1283  0.0236  0.0970
 7399W        W24247  12.720  15.401  15.452 -0.0831  0.1426 -0.2649
 7400W        W24248   3.408  13.652  17.219 -0.1368 -0.0406  0.0547
 7401W        W24249   2.583   6.158  12.945 -0.1360 -0.4160 -0.1662
 7402W        W24250   3.638   0.741   4.839 -0.0282 -0.4871 -0.3369
 7403W        W24251   3.927   3.931  15.500 -0.0071 -0.0197  0.2107
 7404W        W24252  12.098  16.190   0.242  0.1290  0.0004  0.1089
 7405W        W24253  16.072  12.160  15.524 -0.0430  0.0176 -0.0534
 7406W        W24254   8.427   9.269   1.658  0.1049  0.0659  0.0467
 7407W        W24255   1.567   6.513  16.887  0.1761 -0.0501  0.1394
 7408W        W24256   6.524   1.834  12.818  0.1021 -0.1073  0.1878
 7409W        W24257   4.055   0.460  14.325  0.2473  0.0275  0.1830
 7410W        W24258  13.235   9.169  17.726 -0.1903 -0.0126  0.0282
 7411W        W24259  16.680   3.557  13.795  0.0997 -0.0193  0.0126
 7412W        W24260   0.268   2.950  17.693  0.0721 -0.0600  0.3961
 7413W        W24261   5.493  14.808   1.266  0.1164 -0.3518 -0.4020
 7414W        W24262   4.784  11.328  15.482 -0.2348  0.0458 -0.2771
 7415W        W24263   7.475   1.910   2.478 -0.0328  0.1634  0.2085
 7416W        W24264   8.912   9.583   6.315  0.2432  0.0250  0.0011
 7417W        W24265   8.009  16.604   5.491  0.2429  0.1057  0.0804
 7418W        W24266  15.420  10.648  13.597 -0.1542 -0.2704  0.0272
 7419W        W24267  13.391  10.624  15.733  0.1658  0.2874  0.0088
 7420W        W24268   2.075   4.098   4.964  0.0354  0.1623 -0.2392
 7421W        W24269   0.529   1.443   0.607 -0.0213  0.0748  0.1628
 7422W        W24270   6.426   6.539   3.200  0.4277  0.0415 -0.0576
 7423W        W24271   3.576   9.633  13.799  0.0930 -0.0241 -0.2510
 7424W        W24272  16.325   3.347  15.287  0.1455 -0.0984  0.0501
 7425W        W24273   2.944   8.928   1.300 -0.0366 -0.1240 -0.3620
 7426W        W24274  12.105   4.476   6.366 -0.1549  0.1752 -0.1961
 7427W        W24275  16.617  11.313   2.891  0.3071  0.1294 -0.1109
 7428W        W24276   3.044  11.822   2.977 -0.0101  0.0881 -0.0628
 7429W        W24277  10.170   2.045  16.867 -0.1124  0.1852 -0.0384
 7430W        W24278   8.498  12.305  14.968 -0.0539  0.2685 -0.3881
 7431W        W24279   5.354   2.347  12.970  0.2257 -0.1454  0.1531
 7432W        W24280   5.870   7.498   4.244 -0.3026  0.0862 -0.3248
 7433W        W24281  16.626   4.314  15.192 -0.0495 -0.1560  0.0937
 7434W        W24282  15.367   9.564  13.877  0.0119  0.0620 -0.0176
 7435W        W24283   8.277   5.426   4.427  0.1173  0.0680 -0.1863
 7436W        W24284   2.515   7.535   0.628  0.1687  0.1516  0.1208
 7437W        W24285  10.190   6.118   4.997 -0.0693  0.1713 -0.0982
 7438W        W24286   1.500   0.551   0.906 -0.1489  0.1223 -0.0667
 7439W        W24287   2.022  16.966  13.831  0.2793  0.2142 -0.2007
 7440W        W24288   4.422   6.906  14.375  0.0461 -0.1050 -0.0570
 7441W        W24289   6.243   4.011  14.776 -0.0045 -0.1058 -0.0551
 7442W        W24290   6.231   8.641   1.478  0.0228 -0.2546  0.0379
 7443W        W24291   7.510   4.860  12.532  0.1251  0.0390 -0.2952
 7444W        W24292  13.455  10.091  15.700  0.1633 -0.3904  0.0704
 7445W        W24293   4.271   5.982   1.191  0.3533  0.0799 -0.2504
 7446W        W24294   0.786   1.572   3.330  0.0962 -0.1006  0.0917
 7447W        W24295  15.768  11.853   2.919  0.0983 -0.3078  0.0099
 7448W        W24296   8.950   5.539   0.381  0.0303  0.0255 -0.0355
 7449W        W24297  13.053  13.964   0.547 -0.1977 -0.1543 -0.0038
 7450W        W24298   9.795   4.648   6.049  0.3766 -0.1767  0.0131
 7451W        W24299  16.936  13.579  17.720  0.1367 -0.0819 -0.3533
 7452W        W24300   9.490  10.241  15.438  0.1896 -0.0649 -0.1048
 7453W        W24301  15.079  14.223  17.054 -0.0647 -0.1051  0.1980
 7454W        W24302  10.875  10.691   2.319 -0.2183  0.1132  0.0948
 7455W        W24303   9.510  12.258  11.883 -0.1650  0.1906  0.0875
 7456W        W24304  14.040   7.720  17.499 -0.2826 -0.1880 -0.1424
 7457W        W24305   9.330   4.082  13.003  0.2320 -0.2533  0.1461
 7458W        W24306  15.931  16.942  14.947 -0.0988  0.0354 -0.0415
 7459W        W24307   6.220   0.391   2.595  0.1475  0.0798 -0.0903
 7460W        W24308   3.393   5.855   4.992  0.1043  0.2193  0.0772
 7461W        W24309   1.094   4.665  15.702  0.0241 -0.0729 -0.0045
 7462W        W24310  12.624  10.731  17.681  0.1128 -0.1632  0.0667
 7463W        W24311   9.019   7.185   1.574  0.0241 -0.0656 -0.3544
 7464W        W24312  16.408   0.480  13.719 -0.1825 -0.0839  0.1311
 7465W        W24313   0.929  11.087   2.513 -0.1671  0.0935 -0.1896
 7466W        W24314   1.728  16.928   4.513 -0.2892  0.3388  0.2606
 7467W        W24315   2.541   6.074   4.402  0.2299  0.1532  0.1103
 7468W        W24316  12.259  15.192  16.672 -0.1689  0.2918  0.0740
 7469W        W24317  16.191   9.336   4.501 -0.0167 -0.1241 -0.1568
 7470W        W24318   2.545   5.263  13.916  0.0349  0.0652 -0.1083
 7471W        W24319  15.055   0.621  14.399  0.0955  0.0986 -0.0507
 7472W        W24320  16.814  15.386  15.497  0.0364 -0.3450 -0.0302
 7473W        W24321  11.701   6.237  15.882  0.0477 -0.1187  0.1098
 7474W        W24322   3.260   5.511   6.077 -0.1020  0.2985 -0.3306
 7475W        W24323   9.523   0.887  16.785  0.0708  0.2753 -0.0216
 7476W        W24324  12.914   2.054  14.845  0.0366 -0.2808 -0.1727
 7477W        W24325  11.074  13.869   2.699  0.0787 -0.0596 -0.0831
 7478W        W24326  16.243   5.643  15.573 -0.3871 -0.0570 -0.1415
 7479W        W24327   4.914   3.820  12.923  0.1424 -0.2349 -0.4037
 7480W        W24328  13.965   9.977   2.284  0.3148 -0.0679 -0.0317
 7481W        W24329   7.921   4.104   3.071 -0.1084 -0.0059 -0.3132
 7482W        W24330  12.013   4.865   4.811  0.1641 -0.0789 -0.1817
 7483W        W24331   5.917   7.256   3.708 -0.3113  0.1859  0.3507
 7484W        W24332  12.714   3.336  11.927 -0.2884 -0.0012 -0.1116
 7485W        W24333  16.054   7.978   1.251  0.0295  0.0294  0.1922
 7486W        W24334   0.737  12.611  13.440 -0.0761  0.0391 -0.1514
 7487W        W24335   5.617  15.571   0.118  0.0003 -0.2772  0.2503
 7488W        W24336   1.148   2.654  16.846 -0.0869 -0.1265  0.1644
 7489W        W24337   5.194  15.284  14.083  0.0625 -0.0154 -0.1502
 7490W        W24338   1.135  16.577  17.144 -0.0370 -0.0847 -0.0927
 7491W        W24339   6.312  11.307   3.366 -0.2250  0.1943 -0.1734
 7492W        W24340   2.389   1.389   2.275 -0.0784  0.1029 -0.0049
 7493W        W24341  15.606   9.982  16.204  0.0922  0.1343  0.1473
 7494W        W24342  14.451   1.075   0.720  0.0188  0.0840  0.0465
 7495W        W24343  14.075  13.562  17.102  0.0617  0.1844  0.3479
 7496W        W24344  10.122   6.431   0.283 -0.2094  0.0217 -0.0680
 7497W        W24345   4.595   5.579  15.488 -0.0021  0.0200  0.0252
 7498W        W24346   0.597   4.969   4.863 -0.0066 -0.0206  0.1047
 7499W        W24347   1.227  10.106  17.294 -0.2207  0.2921  0.0233
 7500W        W24348   8.907  10.063   3.833 -0.1504  0.0048 -0.0143
 7501W        W24349  14.745   2.729   4.734 -0.0164  0.2582  0.3916
 7502W        W24350   2.254  12.823  13.541  0.1161 -0.1366  0.0448
 7503W        W24351  12.207   4.964   1.610  0.1372  0.1075 -0.1291
 7504W        W24352  11.296   9.386  13.501 -0.0850  0.3036 -0.0726
 7505W        W24353  13.466  12.227   0.356 -0.0295 -0.1033  0.1252
 7506W        W24354  10.099  12.328  17.689 -0.0251 -0.2033 -0.0227
 7507W        W24355   3.185   7.787   2.077 -0.2673  0.0558 -0.0305
 7508W        W24356   0.930  16.987   3.346 -0.2355  0.2647  0.2434
 7509W        W24357   0.695  15.615   3.343 -0.0448 -0.0367  0.0050
 7510W        W24358   5.427   3.990  12.948  0.1163 -0.0131 -0.1305
 7511W        W24359   6.679  16.905   4.038 -0.1043  0.3638  0.0245
 7512W        W24360  16.797   7.059  16.917  0.1896  0.0145  0.1787
 7513W        W24361  13.394   5.169   4.330  0.0641 -0.0278  0.0905
 7514W        W24362   4.351  14.435  15.471  0.0116  0.0104  0.0836
 7515W        W24363   8.647   5.645  15.616  0.0123 -0.1760 -0.1827
 7516W        W24364  14.099   4.278  17.058  0.0880  0.2421  0.2543
 7517W        W24365   1.806   3.201   5.536 -0.0938 -0.0063  0.0441
 7518W        W24366  11.322   5.276  17.046  0.0561 -0.1614 -0.3239
 7519W        W24367   2.050   6.517   4.926  0.0078  0.1008 -0.0018
 7520W        W24368  16.929   4.718   2.694  0.1036  0.0764  0.0278
 7521W        W24369  14.375   1.660  17.172  0.0897 -0.2276 -0.3498
 7522W        W24370   4.198   4.100  13.341  0.1060 -0.0008  0.0825
 7523W        W24371   5.346   0.918   3.761 -0.2163  0.0339  0.0650
 7524W        W24372   0.364   0.087  16.819 -0.1790  0.5138 -0.1849
 7525W        W24373  11.840  11.089  14.996 -0.0721  0.0930  0.0275
 7526W        W24374  15.066   3.033  11.952 -0.0133 -0.1636 -0.1075
 7527W        W24375   8.369  15.587   1.276 -0.2197  0.2356 -0.2246
 7528W        W24376   8.897   6.860  12.781  0.0359  0.1370 -0.1828
 7529W        W24377  16.527   0.008   2.932 -0.0038  0.1197  0.2246
 7530W        W24378   3.832  12.952  16.422 -0.0400 -0.1668 -0.0500
 7531W        W24379  15.026   9.004   4.072 -0.0868 -0.1839 -0.1438
 7532W        W24380   6.110   7.563  16.722 -0.2474 -0.1808 -0.1469
 7533W        W24381  10.587  14.918   4.100 -0.0891 -0.0996 -0.0857
 7534W        W24382   2.517  14.637  13.349 -0.0534 -0.1377  0.3325
 7535W        W24383   8.394   3.672   4.849  0.1209 -0.0438 -0.3727
 7536W        W24384   1.317  11.228  13.844 -0.0812 -0.1978 -0.1074
 7537W        W24385   9.600   1.512  15.829  0.4688 -0.2888  0.2055
 7538W        W24386   0.547  10.146  12.202 -0.1953 -0.1860 -0.1220
 7539W        W24387  10.435   1.174  13.472 -0.0215 -0.2553  0.2626
 7540W        W24388   0.853   0.254   0.260  0.1626  0.1482  0.0912
 7541W        W24389   4.742  14.685   5.674  0.2933 -0.1302  0.2431
 7542W        W24390   0.203  12.968   5.447  0.1729 -0.0651  0.1491
 7543W        W24391   8.289  11.764  13.025 -0.1369  0.2172  0.1979
 7544W        W24392   5.696   1.869  17.150 -0.2452  0.1658  0.0476
 7545W        W24393  13.507   2.503   1.568 -0.1809 -0.0410 -0.2328
 7546W        W24394  12.750   0.936  16.179  0.0307  0.2614  0.1226
 7547W        W24395  14.535  10.760  14.981  0.0903 -0.0482  0.1722
 7548W        W24396  16.012  11.244   0.391  0.1411  0.4030  0.1760
 7549W        W24397  16.230  13.385  17.734 -0.0043 -0.3086  0.3424
 7550W        W24398   1.379  12.891  16.111  0.1104  0.2423  0.0311
 7551W        W24399  13.372  10.109   2.214 -0.0440  0.1827  0.3550
 7552W        W24400   2.237   4.708   4.118  0.0591  0.0459 -0.2031
 7553W        W24401  12.451   8.965   1.929  0.2768  0.1969 -0.2434
 7554W        W24402   2.015   2.378  17.228  0.2027  0.0863  0.0696
 7555W        W24403  13.296  12.719   2.094 -0.0030 -0.1279  0.1613
 7556W        W24404  12.929  14.905  15.247 -0.4354  0.0295 -0.1906
 7557W        W24405   5.242   1.764  12.135  0.3017 -0.2196  0.0426
 7558W        W24406  10.266  13.557   4.867  0.0514  0.2942  0.3920
 7559W        W24407  13.383   6.649  15.372  0.2715  0.0454  0.2044
 7560W        W24408  12.318  11.528  15.792  0.2309  0.2129 -0.3612
 7561W        W24409   1.015   8.079  13.491 -0.0782 -0.0383  0.1109
 7562W        W24410  13.380   9.072  15.974  0.1733 -0.1344 -0.0403
 7563W        W24411   9.079  16.586   4.682 -0.0702 -0.0075  0.0672
 7564W        W24412   0.215  16.290  13.278 -0.4040 -0.0227  0.1365
 7565W        W24413   9.598  11.687   5.629  0.0102 -0.0202  0.0393
 7566W        W24414  12.240  13.566   4.262  0.2645  0.2864 -0.0488
 7567W        W24415   4.890   0.439  12.760  0.1266 -0.0724 -0.1960
 7568W        W24416  11.133  13.818  12.198  0.0039 -0.0178  0.0021
 7569W        W24417   0.433   0.037   1.268  0.0516 -0.0690 -0.1266
 7570W        W24418   7.966   0.196   2.897 -0.1406  0.2635  0.0530
 7571W        W24419   8.913  11.500  17.710 -0.0503  0.1698 -0.1613
 7572W        W24420   9.762   1.215  14.039 -0.0420  0.1417  0.3470
 7573W        W24421   2.328  14.678  14.299  0.1096 -0.1544 -0.2616
 7574W        W24422   2.725  14.330  14.943 -0.1817  0.0689 -0.1517
 7575W        W24423  15.309  12.121  12.730 -0.4338  0.0572 -0.3001
 7576W        W24424  13.018  15.742   0.508  0.0111 -0.0316  0.0210
 7577W        W24425   7.459  12.838  15.852  0.3677  0.0288  0.1521
 7578W        W24426   5.660   9.202   1.854  0.1498  0.2501  0.1057
 7579W        W24427   2.583  10.350   0.567  0.2920 -0.2245 -0.0386
 7580W        W24428  14.019  16.875  17.461 -0.1071 -0.1423 -0.0951
 7581W        W24429   6.130  10.098  16.557 -0.2369  0.1578 -0.2747
 7582W        W24430  13.399   7.915   4.346  0.0836 -0.3404 -0.1909
 7583W        W24431  16.572   2.337  12.543 -0.1823  0.0100 -0.0616
 7584W        W24432   8.751  11.617  12.175  0.2747 -0.1848 -0.3006
 7585W        W24433  12.267   0.234   1.174  0.1141  0.0433 -0.4231
 7586W        W24434   5.231   5.786  13.239  0.1219  0.0158  0.1392
 7587W        W24435   6.289   5.443   2.009 -0.0289  0.1842  0.3806
 7588W        W24436  14.229  11.045  13.714 -0.0907 -0.1489 -0.0948
 7589W        W24437   8.227   2.922   1.492  0.1592  0.1234  0.0338
 7590W        W24438   0.988  13.221   2.813  0.0088 -0.0646  0.1600
 7591W        W24439   0.503   9.436  15.402  0.4556  0.4096 -0.3009
 7592W        W24440  16.489  15.711  12.394 -0.0770 -0.2178  0.1026
 7593W        W24441  10.187   1.762  12.347  0.2080  0.0532  0.0024
 7594W        W24442  12.458  16.836   3.021  0.1626 -0.1077 -0.1216
 7595W        W24443  11.357   1.500  12.257  0.0277  0.1165 -0.0104
 7596W        W24444   4.174  12.862  15.515 -0.0043  0.0188 -0.0669
 7597W        W24445   7.055   1.819  12.482 -0.1932  0.1107  0.0783
 7598W        W24446  11.405  10.948  17.438  0.0136  0.0360 -0.3057
 7599W        W24447   9.711   2.999   3.374 -0.1722  0.1911  0.3564
 7600W        W24448   2.363   8.152   5.128  0.0229  0.2267  0.2471
 7601W        W24449  15.692   4.286  15.688  0.0630 -0.1482  0.0230
 7602W        W24450  10.216   0.887   2.524  0.2931  0.0446  0.0452
 7603W        W24451  12.798  12.935   5.171 -0.1503  0.2325  0.3741
 7604W        W24452   0.375  13.940  13.577 -0.0281  0.1122 -0.1150
 7605W        W24453   9.574   6.920  14.819  0.1018  0.1954  0.0390
 7606W        W24454   7.441   7.736  15.153 -0.0988  0.1171  0.1239
 7607W        W24455   0.104  15.039  13.539  0.2748  0.2644 -0.3008
 7608W        W24456  14.569   1.749   2.001  0.0595 -0.1001  0.2960
 7609W        W24457  14.967   7.861   0.621  0.1169 -0.0379  0.0058
 7610W        W24458   0.712  14.001  13.204  0.2101  0.2426  0.0606
 7611W        W24459   6.272  12.712  17.392 -0.3343 -0.3196  0.0574
 7612W        W24460   2.786   3.164   5.716 -0.2221 -0.0892  0.2760
 7613W        W24461  10.896   0.886   2.005  0.1024  0.0245 -0.1469
 7614W        W24462  13.400   2.668  15.471 -0.0454  0.3744  0.0217
 7615W        W24463   1.587   5.248   0.194  0.0192 -0.0017  0.1961
 7616W        W24464  11.988   0.221   1.554  0.3414 -0.2168  0.0746
 7617W        W24465   8.377  10.782  12.054  0.0575 -0.3294 -0.1408
 7618W        W24466   5.013   5.925  15.460  0.2082  0.2748  0.0333
 7619W        W24467   0.469  15.439  12.971  0.0901  0.2629 -0.1310
 7620W        W24468   5.082   6.949   0.968  0.0207  0.2626 -0.0483
 7621W        W24469  10.839   3.801  12.828  0.0414 -0.1342  0.0243
 7622W        W24470  16.909   7.982   5.604 -0.1737  0.0125 -0.0431
 7623W        W24471   8.467   0.574  14.089  0.1543 -0.1707  0.3495
 7624W        W24472  11.800   0.717   1.785  0.2304 -0.0504  0.0210
 7625W        W24473  11.868   3.608  12.443  0.1453  0.1179  0.2843
 7626W        W24474   5.576  11.463   2.534  0.3266  0.2724 -0.2070
 7627W        W24475   5.453   5.528   2.394  0.1724 -0.1298  0.0093
 7628W        W24476   8.256  16.015   3.762  0.1288  0.2730  0.1596
 7629W        W24477  10.871  13.980  12.620  0.0334 -0.2620  0.1171
 7630W        W24478   0.685   9.652  13.875  0.0607  0.1252  0.1330
 7631W        W24479   2.084   1.588  11.894 -0.2682 -0.0707  0.1980
 7632W        W24480   4.970   9.257  12.328 -0.1404  0.3719  0.0745
 7633W        W24481   4.591   4.888   2.785  0.0888  0.0806  0.2116
 7634W        W24482  11.188   8.869   0.252 -0.0240  0.0377 -0.0934
 7635W        W24483  11.133  16.019   5.033  0.1230 -0.0930  0.2364
 7636W        W24484  13.838  15.376  12.569  0.1896  0.1271 -0.0239
 7637W        W24485   8.910   0.071   1.807  0.0847 -0.3166  0.1986
 7638W        W24486  12.202  10.442  17.514  0.2380 -0.0310  0.3669
 7639W        W24487   7.024  12.034  17.172 -0.1761 -0.2998  0.1836
 7640W        W24488  12.900   4.439  12.080 -0.0584  0.0408  0.0081
 7641W        W24489  16.214  13.829   0.150  0.3638  0.2276  0.0192
 7642W        W24490  12.711  13.837   3.393  0.0358 -0.1488  0.3665
 7643W        W24491  10.878  14.578   1.586  0.1532 -0.2527  0.0879
 7644W        W24492   1.263  13.123   3.167  0.1241 -0.0961 -0.2719
 7645W        W24493  14.373  13.468  12.681  0.1244  0.0311 -0.0626
 7646W        W24494   4.423   1.093   4.201  0.2751  0.0734  0.1410
 7647W        W24495   8.836   6.046  16.357  0.0692 -0.2987 -0.4281
 7648W        W24496  15.814  11.633  15.945 -0.1087 -0.1890 -0.3236
 7649W        W24497   3.245   1.096  14.531 -0.0459 -0.0620  0.0573
 7650W        W24498  10.110   9.792  15.934 -0.2838  0.0473  0.3550
 7651W        W24499   1.145   5.468   1.561  0.2305 -0.0496  0.0509
 7652W        W24500   9.341  11.851  14.002  0.0411  0.1303  0.2448
 7653W        W24501  11.167  10.225  15.213  0.2040 -0.1832 -0.0629
 7654W        W24502  10.239   1.529   5.321  0.0694 -0.0108 -0.1657
 7655W        W24503  14.355  14.799  13.743 -0.0920 -0.1660 -0.0058
 7656W        W24504   3.220   8.712  16.390  0.1981 -0.1374 -0.3177
 7657W        W24505   6.917   3.582   5.123 -0.0649  0.0907  0.0016
 7658W        W24506  10.048  14.757   2.639  0.0266 -0.0367 -0.0435
 7659W        W24507   7.591  16.985   2.913 -0.1914 -0.2159 -0.0317
 7660W        W24508   9.260  16.821  15.292  0.1404 -0.0177 -0.0211
 7661W        W24509  12.428   9.857  12.163  0.1871  0.2910 -0.1900
 7662W        W24510   9.888   1.989  16.182  0.1015 -0.0554  0.2241
 7663W        W24511   2.907  16.628   3.437 -0.0928 -0.1029  0.1829
 7664W        W24512  11.676   3.145  15.670 -0.0448  0.1037 -0.1497
 7665W        W24513   4.035   9.715  13.969  0.0051  0.1656  0.1108
 7666W        W24514   7.692   7.029  13.721  0.1834 -0.0122 -0.0767
 7667W        W24515   4.259  16.220  12.529  0.0578  0.3033  0.1406
 7668W        W24516  16.114  14.186   4.806 -0.0165 -0.2526 -0.0235
 7669W        W24517  14.800   0.611   2.538 -0.2028 -0.2464  0.1764
 7670W        W24518   0.760  16.123  13.945 -0.2134  0.0893 -0.1067
 7671W        W24519  13.440  16.752  15.665  0.1339 -0.3450  0.1925
 7672W        W24520  15.546   9.062   0.107 -0.1778  0.0445  0.0232
 7673W        W24521   1.879   1.028   3.117 -0.0487  0.1564  0.0221
 7674W        W24522   5.485  14.260  15.602 -0.0984 -0.0601 -0.2118
 7675W        W24523   8.275   2.398   1.252 -0.3303  0.1419  0.0101
 7676W        W24524   6.030  10.434  16.185  0.0692 -0.0919 -0.0308
 7677W        W24525   3.421   3.884  14.260 -0.0744  0.0487  0.0989
 7678W        W24526   5.459   5.663  17.420  0.1779  0.1137 -0.4588
 7679W        W24527   0.017   1.723  14.296 -0.3237  0.0763 -0.1142
 7680W        W24528  17.086  16.588   0.716 -0.0974 -0.0774 -0.0792
 7681W        W24529   4.697   3.602   0.035 -0.0221 -0.0511  0.0822
 7682W        W24530   4.411  11.574   3.153  0.1087 -0.2488  0.0220
 7683W        W24531  16.094   4.395  16.526 -0.2563  0.0379  0.0711
 7684W        W24532   5.767  15.723   2.458  0.2147 -0.0621 -0.2911
 7685W        W24533  11.945   1.483  16.391  0.0573 -0.0575 -0.4963
 7686W        W24534  15.494   0.697  17.642  0.0120  0.3243  0.1404
 7687W        W24535   3.295   9.881   0.638 -0.1662  0.3135  0.0128
 7688W        W24536  17.004  11.592   5.056  0.1998 -0.0744 -0.3105
 7689W        W24537  15.584   5.845  14.686 -0.3297 -0.0512  0.0352
 7690W        W24538  13.738  11.020  13.404  0.1597 -0.0958  0.1311
 7691W        W24539  13.139  11.064  16.663 -0.1849  0.1249 -0.0927
 7692W        W24540   8.397  16.960  14.882 -0.0198 -0.0088  0.0356
 7693W        W24541   6.832   4.654  13.009 -0.0069  0.0742  0.1392
 7694W        W24542   1.506  16.599  15.391 -0.2040 -0.2300 -0.2031
 7695W        W24543   3.708  14.186   0.935 -0.0642 -0.0249  0.0376
 7696W        W24544  13.071   4.349  14.088 -0.2120 -0.0856  0.0203
 7697W        W24545  14.360  11.511  15.588  0.4719  0.0046  0.2785
 7698W        W24546   3.244   8.750  14.768 -0.2539  0.5968  0.1594
 7699W        W24547   2.650  13.285   1.952 -0.0231  0.0513  0.2807
 7700W        W24548  10.947  11.557  15.394 -0.2756 -0.1618  0.2583
 7701W        W24549  10.431   1.801  16.514 -0.0369 -0.2269  0.0308
 7702W        W24550   5.575   6.763   1.051 -0.4085  0.2150  0.0984
 7703W        W24551   0.470  14.431  13.796 -0.2433  0.1747 -0.2769
 7704W        W24552  16.946  11.007   5.437 -0.0364 -0.2450  0.2469
 7705W        W24553   6.751   5.061  17.346  0.2610 -0.3211  0.1678
 7706W        W24554   6.132   4.297   1.701  0.0405  0.0136 -0.0211
 7707W        W24555  12.652   0.623   1.391  0.4182 -0.2064  0.0396
 7708W        W24556  16.841   1.513  16.686  0.0937  0.0626 -0.2090
 7709W        W24557   2.444   7.820  16.923  0.1379  0.3017 -0.0836
 7710W        W24558   5.870  11.245   1.278 -0.1200 -0.1004 -0.0095
 7711W        W24559   4.379  14.419  13.847 -0.1167  0.0762 -0.2404
 7712W        W24560   1.845   1.065  14.553 -0.0191 -0.3128 -0.3466
 7713W        W24561  12.208   7.961   2.954 -0.2508 -0.2251 -0.1082
 7714W        W24562  13.408   8.600  15.743 -0.0177 -0.2584 -0.0447
 7715W        W24563   2.062  15.410   0.702  0.0483  0.0731  0.1882
 7716W        W24564  12.356   1.166   3.740 -0.0914 -0.2947  0.0794
 7717W        W24565   6.664  14.478  17.358  0.2417 -0.1127 -0.2096
 7718W        W24566  11.820   1.127  11.500 -0.0032 -0.0566  0.1953
 7719W        W24567   8.007   0.463  13.939  0.2127 -0.0743  0.0793
 7720W        W24568   6.827   9.810  14.831 -0.1354 -0.1135  0.1822
 7721W        W24569   4.704   5.503   1.731 -0.1051  0.0999 -0.1360
 7722W        W24570  16.406   0.100  14.522 -0.1471 -0.0915 -0.0439
 7723W        W24571   1.318   9.129   0.942 -0.2518 -0.1194 -0.1155
 7724W        W24572   5.514  13.924   1.392  0.0057 -0.1824  0.1901
 7725W        W24573   6.075   7.094  14.026 -0.2225  0.2052  0.1386
 7726W        W24574   5.472  13.570  13.938  0.2178  0.0898 -0.0467
 7727W        W24575   6.006   5.111   5.724 -0.0618 -0.1236  0.3986
 7728W        W24576  15.727  15.973   3.173  0.1902 -0.0671 -0.0327
 7729W        W24577   9.325   3.989   4.234 -0.2572  0.3764 -0.1461
 7730W        W24578   9.795  14.043  17.356  0.0669 -0.1349  0.1504
 7731W        W24579   6.592   1.561  16.788 -0.1928  0.0613 -0.0189
 7732W        W24580  17.048  13.187  15.946  0.3693  0.2939 -0.0106
 7733W        W24581  12.686   5.864  12.009  0.3125  0.0215  0.0901
 7734W        W24582   9.908   9.680   5.212  0.0114 -0.1418 -0.0538
 7735W        W24583  12.017   8.838  15.686 -0.0512 -0.0585  0.1838
 7736W        W24584   4.049  13.790   4.090 -0.0576  0.0688  0.1119
 7737W        W24585   3.968  15.942   4.564 -0.0531  0.1700  0.0090
 7738W        W24586   7.065   8.713  13.934  0.0481  0.1444 -0.0249
 7739W        W24587  17.063  12.496  16.623  0.1121  0.2237 -0.4137
 7740W        W24588  14.361  10.048   0.269 -0.4066 -0.1350 -0.0717
 7741W        W24589   1.796  10.193   0.388 -0.1764  0.3540  0.0551
 7742W        W24590  11.729   6.157   1.859 -0.0980 -0.1452  0.1251
 7743W        W24591   3.614  10.421   6.451  0.0211  0.0859 -0.2652
 7744W        W24592  12.990  13.775  13.503  0.4466 -0.1490 -0.0078
 7745W        W24593   6.181  13.976  13.059  0.1845 -0.2781 -0.2544
 7746W        W24594   0.859  16.846  13.398 -0.0305 -0.1821  0.0333
 7747W        W24595   3.703  15.406   4.929  0.1792  0.0616 -0.2395
 7748W        W24596   9.860   8.249  12.090 -0.0577 -0.1994  0.0165
 7749W        W24597  14.863  15.340   2.239  0.2919 -0.3449  0.0121
 7750W        W24598   6.344   3.600   3.992  0.1212  0.2090  0.2015
 7751W        W24599   8.019   7.719   3.807 -0.0977  0.1445  0.0643
 7752W        W24600   4.432   7.840   1.964  0.0879 -0.1442 -0.1604
 7753W        W24601   1.154  11.153   2.068  0.3736 -0.0696  0.0001
 7754W        W24602  13.712  10.329   1.379 -0.0835 -0.1300 -0.2278
 7755W        W24603   7.904   3.440  16.711  0.1175  0.1607  0.1199
 7756W        W24604  15.287  14.059  14.133  0.1410 -0.0835 -0.3066
 7757W        W24605  14.195   9.551   4.249 -0.0003 -0.0440 -0.0887
 7758W        W24606   6.855   1.439   4.879  0.3370 -0.2570  0.1033
 7759W        W24607   7.605   7.783   3.435  0.1043  0.0340  0.2380
 7760W        W24608   3.228   7.940   6.097 -0.2552  0.0564  0.0442
 7761W        W24609   0.421   7.876  17.512  0.1158 -0.1648  0.3321
 7762W        W24610   8.498  11.180  12.271 -0.4861  0.3130 -0.0101
 7763W        W24611   2.113   3.685   0.282  0.2860  0.2879  0.1849
 7764W        W24612  12.136  15.749  12.691 -0.1550  0.1530 -0.0480
 7765W        W24613  13.297   6.768  16.028 -0.0718 -0.3224  0.1921
 7766W        W24614   3.670   5.808   0.234 -0.1679  0.1822 -0.0735
 7767W        W24615   0.748   8.961   3.747  0.0693  0.0229  0.1678
 7768W        W24616  16.388  12.724   4.209  0.2427  0.1988  0.0845
 7769W        W24617  16.738  16.411   4.754 -0.0182 -0.0337 -0.0023
 7770W        W24618  16.226   5.334  12.165 -0.1384 -0.2500  0.0934
 7771W        W24619   1.477   2.792   0.648  0.1685 -0.0112 -0.0097
 7772W        W24620   1.085  13.971   2.388  0.3052  0.4232 -0.2382
 7773W        W24621   2.291  15.366   0.213  0.0088  0.0329 -0.0512
 7774W        W24622   0.463   8.675  14.622  0.1358  0.1443 -0.4134
 7775W        W24623   0.234  14.318  14.846 -0.0780  0.1756 -0.0335
 7776W        W24624  10.334   6.555   1.857  0.0566 -0.1221 -0.0744
 7777W        W24625   5.487   0.973  14.006  0.0133  0.3231  0.0468
 7778W        W24626  13.875   4.558  16.666  0.1038  0.2533  0.0306
 7779W        W24627  13.461   1.222   5.388  0.2220  0.1204 -0.1693
 7780W        W24628   1.652   7.660  12.951 -0.1692 -0.0130  0.0950
 7781W        W24629   6.025   2.875  16.149 -0.3893  0.0817  0.1859
 7782W        W24630  13.797  10.846  15.965 -0.2178  0.2343 -0.1567
 7783W        W24631   9.268  10.722  15.548  0.1633 -0.1494  0.0277
 7784W        W24632   5.698   3.987  16.311  0.2590 -0.0868 -0.0793
 7785W        W24633   2.623   0.559  16.662 -0.1537  0.0282 -0.2341
 7786W        W24634   6.579   4.438   3.546  0.1399  0.2593 -0.2087
 7787W        W24635  12.656   3.810   3.486 -0.0476  0.2117 -0.1669
 7788W        W24636  15.860  12.761  13.227  0.0655  0.0136  0.2226
 7789W        W24637  10.574   0.055  11.858 -0.1879 -0.0951 -0.3839
 7790W        W24638   5.403   6.324  13.193 -0.1695  0.0652 -0.4069
 7791W        W24639  15.057  13.782   1.873 -0.0324  0.2458 -0.0387
 7792W        W24640  13.646   8.123  12.034  0.1245  0.0710  0.0961
 7793W        W24641  10.141  15.060  13.026  0.2200  0.1589  0.0902
 7794W        W24642  15.941  13.873   0.596  0.1842 -0.0065  0.2269
 7795W        W24643   4.031   0.466   2.382  0.1076  0.2294  0.0419
 7796W        W24644   7.142  11.986  15.968 -0.2662 -0.1771 -0.0699
 7797W        W24645  11.450  12.886   5.146 -0.0909  0.0972 -0.1513
 7798W        W24646   6.991   6.150  17.410 -0.1484  0.0306  0.4064
 7799W        W24647  16.342   4.293  13.176  0.0597  0.1371  0.3202
 7800W        W24648   1.631   8.745   4.862  0.0487 -0.2164  0.0689
 7801W        W24649   8.251  10.773  15.592 -0.2594  0.1049 -0.0989
 7802W        W24650  11.008  16.439  10.851 -0.0790 -0.0383  0.0870
 7803W        W24651   3.630   8.010  15.745 -0.1828 -0.2063  0.1630
 7804W        W24652  10.573  15.388   1.110  0.1676 -0.0440 -0.1175
 7805W        W24653   4.645  10.727  14.407  0.2113 -0.1068 -0.0064
 7806W        W24654   2.164   8.830  13.941  0.0661  0.3183 -0.1778
 7807W        W24655   9.480   2.704  12.378  0.1849  0.0833  0.2342
 7808W        W24656  11.695   2.492   2.966  0.3830  0.0009 -0.0484
 7809W        W24657  15.185   2.224   0.946 -0.0825  0.1595 -0.0906
 7810W        W24658  11.438   8.452   5.101  0.3134  0.0923  0.1565
 7811W        W24659   9.611  14.928  17.670  0.6974  0.0063  0.0774
 7812W        W24660   2.135  16.125   4.490  0.1264 -0.2562  0.1508
 7813W        W24661  10.089   8.063  17.674  0.3644 -0.1174 -0.1530
 7814W        W24662   5.267  12.405  17.661  0.0786  0.0186 -0.0601
 7815W        W24663  16.883  11.466   4.288 -0.0005  0.4139 -0.1471
 7816W        W24664  16.885  14.050   0.799  0.1601  0.0355  0.1091
 7817W        W24665   2.603  14.899  14.690  0.0642  0.2804 -0.0760
 7818W        W24666  10.309  10.871   3.105  0.0115  0.2157  0.0180
 7819W        W24667  14.403  16.028  16.101  0.2309 -0.3934  0.0484
 7820W        W24668   3.308   2.282   1.053 -0.1602  0.1992 -0.2501
 7821W        W24669   3.897   5.392   3.207  0.1379 -0.1069  0.0538
 7822W        W24670   0.292   3.412  17.458 -0.2115  0.1709  0.0084
 7823W        W24671  11.576   5.282  12.591  0.4019  0.1506  0.0800
 7824W        W24672   9.061   9.855   4.836 -0.1093 -0.3166  0.0160
 7825W        W24673  13.860  16.007   5.261 -0.2553 -0.4679  0.1379
 7826W        W24674   2.847   9.280  17.427 -0.0102  0.0844  0.2974
 7827W        W24675   2.066  16.833   3.303  0.4120  0.0462 -0.1170
 7828W        W24676   8.174   6.806  13.987  0.1738  0.0714 -0.0324
 7829W        W24677   9.900   6.187   4.399  0.3150  0.2406  0.1107
 7830W        W24678  11.169   1.440   6.110  0.0229  0.1600  0.2098
 7831W        W24679   4.920   4.559  17.548  0.1876  0.0194  0.0750
 7832W        W24680   8.912   2.767  11.979 -0.2048 -0.2195 -0.1147
 7833W        W24681   2.670  10.619  12.599 -0.2468 -0.1036  0.3130
 7834W        W24682  11.664   1.920   2.825 -0.1792  0.2174  0.0671
 7835W        W24683   1.860   2.399   0.761  0.2352  0.0092  0.1825
 7836W        W24684  14.124   7.528  12.420 -0.1071 -0.1347  0.3436
 7837W        W24685  17.010   2.224  14.860 -0.0982  0.3839  0.0223
 7838W        W24686   9.476   3.537  16.152 -0.0589 -0.2868  0.1925
 7839W        W24687  14.081   8.381   3.694  0.3120  0.0104 -0.1002
 7840W        W24688  16.417  13.693   1.366  0.0725  0.1770 -0.0379
 7841W        W24689   8.545  11.557  12.656  0.0396  0.5084  0.3726
 7842W        W24690  13.169  12.050  15.682  0.0147  0.1300 -0.0436
 7843W        W24691   2.617  16.816  15.094 -0.2266  0.1538 -0.2725
 7844W        W24692   6.357  15.756   2.323  0.2684  0.1961 -0.1190
 7845W        W24693  10.342  14.322   1.483 -0.0678 -0.4170  0.1297
 7846W        W24694  15.306  14.616  13.804  0.2225  0.0396 -0.1025
 7847W        W24695   6.607   1.848  14.157 -0.0221  0.0297  0.2026
 7848W        W24696   1.298  12.889   1.443  0.2069  0.2755 -0.0570
 7849W        W24697  10.050  16.670  14.270  0.0148  0.1276  0.2055
 7850W        W24698   6.324   8.785   3.089 -0.1592 -0.1843 -0.0866
 7851W        W24699  14.371   3.160  14.967 -0.0803 -0.1064 -0.0835
 7852W        W24700  16.197   1.603  14.947 -0.1060 -0.3712  0.2391
 7853W        W24701   6.470  16.943  15.000 -0.0300 -0.1192 -0.1375
 7854W        W24702  13.388  10.149   4.744  0.1469  0.1117 -0.3716
 7855W        W24703   3.318   3.154   6.643  0.0909  0.2243 -0.1806
 7856W        W24704  10.535   4.066  11.885 -0.1297 -0.2247 -0.4712
 7857W        W24705  16.968   4.909   1.182 -0.1450 -0.1227 -0.0077
 7858W        W24706  14.064  10.058  13.919  0.2235  0.3100  0.1208
 7859W        W24707   9.551   5.271  15.865 -0.0084  0.1173  0.0622
 7860W        W24708  15.476  14.167  16.027 -0.0606  0.1822 -0.0923
 7861W        W24709   5.761  13.385   2.486 -0.2150 -0.5050 -0.0443
 7862W        W24710  15.550  14.658   2.664 -0.1032 -0.0186  0.4240
 7863W        W24711  16.046  14.024   2.148 -0.0816  0.2943 -0.2029
 7864W        W24712   7.284   4.975   0.590  0.0286  0.0728  0.1670
 7865W        W24713   0.321   7.299  16.432  0.1720  0.1164 -0.0500
 7866W        W24714   6.438   0.687  14.574  0.0047  0.0123 -0.0129
 7867W        W24715   3.740   8.071  14.444  0.1929 -0.1598 -0.3320
 7868W        W24716   3.163   8.225   1.769  0.0184  0.1152  0.2314
 7869W        W24717   4.261   5.777   3.176  0.1185  0.1836  0.0202
 7870W        W24718   2.768   5.680  15.238  0.0855 -0.5180 -0.1331
 7871W        W24719  15.441   0.665   2.380  0.1189 -0.2640  0.4811
 7872W        W24720   1.637   0.077  16.590 -0.1560  0.0114 -0.0543
 7873W        W24721   3.490   8.929   6.438  0.0715 -0.0118 -0.1617
 7874W        W24722   5.320  13.181   5.244 -0.0630  0.1390 -0.2179
 7875W        W24723   9.610   9.407  16.554 -0.1418  0.3650  0.1881
 7876W        W24724  11.776   6.737   4.785 -0.1013  0.2381 -0.0707
 7877W        W24725   4.452  11.591   1.212  0.0759  0.3428 -0.3374
 7878W        W24726   7.839   3.517   4.521 -0.0900 -0.1792 -0.2005
 7879W        W24727   9.440   2.049  15.838 -0.1271 -0.2255 -0.1319
 7880W        W24728   6.373  15.004   3.451 -0.1412  0.2069 -0.3004
 7881W        W24729  10.415   9.041  15.820 -0.0572 -0.2462 -0.0234
 7882W        W24730  14.907  15.016  15.635  0.1128 -0.0125 -0.0575
 7883W        W24731  12.606   7.598  15.964 -0.2829  0.5224  0.2151
 7884W        W24732   3.766   7.357   0.977 -0.1948 -0.2453 -0.1070
 7885W        W24733   7.457   0.092   4.021 -0.3913  0.2927  0.0975
 7886W        W24734   8.932  16.884   1.451 -0.1854  0.0700 -0.1654
 7887W        W24735   0.124  10.483  17.372  0.0978 -0.2059  0.1176
 7888W        W24736   8.606   4.975  17.579 -0.2116 -0.3808 -0.0205
 7889W        W24737  13.397   1.934  14.811 -0.2837  0.0510 -0.1126
 7890W        W24738   0.997  10.323   1.975  0.0143 -0.2334  0.2655
 7891W        W24739  16.926   4.314   3.275 -0.0711 -0.2234  0.1755
 7892W        W24740   8.914   2.390  11.669  0.0267  0.1014  0.0619
 7893W        W24741  14.298   4.849  16.829  0.0131  0.1618 -0.0232
 7894W        W24742   4.385  13.817   3.379 -0.1261 -0.2231 -0.1247
 7895W        W24743  17.101   6.336  13.792  0.1724 -0.1122  0.2149
 7896W        W24744   0.767   8.578  16.238 -0.3749 -0.0395  0.0587
 7897W        W24745  15.957  14.653   4.948  0.3334  0.0042 -0.2816
 7898W        W24746  15.649   8.052   5.803 -0.1391 -0.0419 -0.1034
 7899W        W24747   0.353  11.094  13.499  0.2680 -0.0982  0.1120
 7900W        W24748   7.507   3.574   5.372 -0.0833 -0.1414  0.1358
 7901W        W24749   5.972   3.590  14.951  0.0659 -0.0639 -0.1853
 7902W        W24750   4.018   7.164  17.194  0.2323 -0.2805 -0.2444
 7903W        W24751  11.706   4.764   2.774  0.1219 -0.0551 -0.1606
 7904W        W24752  16.120   8.186   3.621 -0.0057 -0.2120 -0.0176
 7905W        W24753   2.625  13.535  16.813  0.1242  0.3119  0.2658
 7906W        W24754   0.585   3.185   3.883  0.0213 -0.1655 -0.3390
 7907W        W24755  13.447   8.680   4.081  0.1615 -0.2568 -0.2138
 7908W        W24756   1.229   5.682  15.573 -0.2788  0.1760 -0.2678
 7909W        W24757  13.203  16.131  14.912  0.2269  0.1167  0.1812
 7910W        W24758   7.548  15.099  13.175 -0.1971 -0.0270  0.2879
 7911W        W24759   0.521  10.646   6.146 -0.0440  0.0980  0.0578
 7912W        W24760   8.203  12.595  15.283  0.0288 -0.0191 -0.2749
 7913W        W24761  11.591  15.402   0.809 -0.0239 -0.0289  0.1055
 7914W        W24762   1.711  13.775  15.817 -0.1869  0.2117  0.2039
 7915W        W24763   7.081   5.897   1.714  0.3725 -0.3215  0.0763
 7916W        W24764  13.021   9.174  12.469 -0.1185 -0.0314 -0.1701
 7917W        W24765  10.276   3.897  17.044  0.0645  0.0556  0.0283
 7918W        W24766  10.153   4.085  14.149  0.2325  0.1074 -0.3314
 7919W        W24767  12.874  16.570   2.024 -0.0876 -0.0477  0.1740
 7920W        W24768   4.510  16.337   1.836  0.1515  0.0478  0.2106
 7921W        W24769   5.622  13.562   5.979 -0.1524  0.1151  0.2274
 7922W        W24770   7.430   1.309  17.304  0.0044  0.1285 -0.1282
 7923W        W24771  10.607   3.356   5.066  0.0459  0.0823  0.0339
 7924W        W24772   8.379   3.566   3.541 -0.3381 -0.3145 -0.0580
 7925W        W24773   7.979  12.508   1.931 -0.1830  0.1504 -0.3520
 7926W        W24774  14.173  16.276   5.851 -0.0311 -0.1657 -0.0677
 7927W        W24775  12.638   0.899  11.356  0.2722 -0.0428  0.0059
 7928W        W24776  15.731   3.398   0.511  0.0815  0.2857  0.0179
 7929W        W24777   2.967   9.660  17.707  0.1470  0.0296  0.2170
 7930W        W24778   3.019   4.101   5.292 -0.0197 -0.1962 -0.2884
 7931W        W24779  13.403   4.898  15.596 -0.0420 -0.1422  0.0307
 7932W        W24780  12.269  11.520   0.269 -0.0106 -0.0845 -0.0673
 7933W        W24781   6.174   2.927  15.285  0.1932 -0.0898  0.1005
 7934W        W24782   7.674  15.901   1.039  0.1281  0.2207  0.3074
 7935W        W24783   5.416   9.756  16.186 -0.3160  0.2151  0.1361
 7936W        W24784   6.788   7.736   2.431 -0.1080  0.1976 -0.1945
 7937W        W24785  16.294  11.127   2.444 -0.0672  0.0240  0.4287
 7938W        W24786   4.369   4.954  14.372 -0.0309 -0.0232 -0.0487
 7939W        W24787   4.198   0.587  17.141  0.0904 -0.1380  0.1485
 7940W        W24788   1.099   9.820   1.783  0.0846  0.2281  0.0182
 7941W        W24789  12.866   2.354  13.538  0.0595  0.0530  0.2211
 7942W        W24790   2.455   3.318  15.811 -0.0099 -0.1146 -0.0238
 7943W        W24791   2.545  13.855   4.420  0.0857  0.0040  0.0460
 7944W        W24792  13.066  10.821   6.373 -0.0473  0.3063 -0.1841
 7945W        W24793  15.661  11.146   5.057  0.0917  0.2432 -0.1049
 7946W        W24794   4.611   2.566   3.661  0.1485 -0.3424 -0.1950
 7947W        W24795   7.126  15.050   0.731  0.0870  0.3017 -0.1475
 7948W        W24796   8.217   6.341   4.577  0.1290 -0.0965 -0.0158
 7949W        W24797   6.708   6.149   1.542  0.2312  0.1625  0.1295
 7950W        W24798   1.304   6.180  17.619 -0.0915 -0.1206  0.4488
 7951W        W24799   6.605  12.126   2.419  0.0597 -0.0441 -0.1136
 7952W        W24800   4.501  13.464   0.587 -0.0498  0.0028  0.1269
 7953W        W24801  10.180   2.924  17.151  0.0727  0.0393 -0.0890
 7954W        W24802   4.260   8.210  13.834  0.1413 -0.2426  0.1340
 7955W        W24803   0.808   2.666  14.726  0.1929 -0.0265 -0.0658
 7956W        W24804   4.253   9.214  14.783 -0.0738 -0.0997  0.0081
 7957W        W24805  11.056  13.915  13.057 -0.2664  0.0976 -0.0797
 7958W        W24806  12.312   5.687   3.913 -0.1737  0.2127 -0.0758
 7959W        W24807  12.062  12.143  15.130  0.2603  0.1590  0.0576
 7960W        W24808   8.250   4.012   2.161 -0.0904 -0.0218 -0.2300
 7961W        W24809  10.701  13.112   2.503  0.4757 -0.1239  0.1326
 7962W        W24810   5.095   8.935  14.959 -0.1000  0.1156 -0.1859
 7963W        W24811  13.965   4.604  14.840 -0.0229 -0.0870  0.1569
 7964W        W24812   1.158   1.945   4.176  0.3150 -0.3526 -0.0929
 7965W        W24813  15.401  15.146   0.706 -0.3790  0.3348 -0.3214
 7966W        W24814  14.622  16.283   4.628  0.1331 -0.0062  0.1656
 7967W        W24815  12.111  13.300  12.761  0.0092 -0.0173 -0.0780
 7968W        W24816   8.963   2.325  15.888 -0.2436 -0.0167  0.6327
 7969W        W24817   2.168  11.755  15.901 -0.2574 -0.0990 -0.1638
 7970W        W24818   3.377  10.850   4.077 -0.2192 -0.0379 -0.2271
 7971W        W24819  13.804  16.895   5.365 -0.0428 -0.0373 -0.2411
 7972W        W24820   7.666   6.543  15.546  0.0484 -0.0677  0.0857
 7973W        W24821   3.539   1.876   2.552 -0.0400  0.3197 -0.0251
 7974W        W24822  16.526  16.831  15.771 -0.0459  0.0645 -0.2748
 7975W        W24823   2.504  12.501   3.001  0.0715 -0.1770 -0.0471
 7976W        W24824   1.873  10.910   2.783  0.3021 -0.2273 -0.1434
 7977W        W24825  10.023   3.562   4.571  0.0996 -0.1900  0.2302
 7978W        W24826   0.615   8.140  16.391 -0.1361 -0.0740  0.1622
 7979W        W24827   1.847   3.848  16.304 -0.0932  0.0096  0.0174
 7980W        W24828  12.961   1.932  17.286 -0.1162  0.2394 -0.1981
 7981W        W24829   4.597   4.002   1.754 -0.0728 -0.0574  0.2368
 7982W        W24830   7.548   9.665   3.500 -0.4443  0.5268 -0.1414
 7983W        W24831   3.667   4.207   1.509 -0.1274 -0.1920 -0.0252
 7984W        W24832   1.162  10.394   1.034  0.0667 -0.0775  0.1603
 7985W        W24833   7.936  10.186  16.921 -0.3762 -0.0459 -0.3098
 7986W        W24834   8.806   7.420  12.384  0.2556  0.0382  0.0595
 7987W        W24835   1.173  12.093   1.636 -0.0709  0.0455 -0.1771
 7988W        W24836  13.274   0.538  17.660 -0.0727 -0.1215  0.1618
 7989W        W24837  15.627   1.954   5.375 -0.2618  0.4594 -0.3098
 7990W        W24838   7.575  11.529   5.546  0.0344  0.1291 -0.1361
 7991W        W24839   8.535  17.102   5.452  0.0367  0.1817  0.1160
 7992W        W24840   8.744  14.742   1.533  0.2702  0.1087 -0.1698
 7993W        W24841   9.752  15.355  16.450  0.1211  0.4056 -0.0926
 7994W        W24842   4.794  13.426   4.967 -0.0862 -0.0436 -0.0789
 7995W        W24843  12.023   3.607  16.154  0.2873  0.1269  0.1427
 7996W        W24844  16.895   0.852   3.928 -0.0723 -0.1717 -0.0666
 7997W        W24845   4.155   5.425  13.254  0.0761  0.0643 -0.1884
 7998W        W24846   3.613  16.347   5.746 -0.0542 -0.3092 -0.0909
 7999W        W24847  10.287  15.357  14.645 -0.0512 -0.1205 -0.1469
 8000W        W24848   9.960   7.843   5.349  0.0175  0.2183 -0.1038
 8001W        W24849   4.035  15.252   0.898  0.1098 -0.1922  0.1479
 8002W        W24850  16.963   4.983   3.090 -0.1875  0.1914  0.0843
 8003W        W24851   9.174   6.133  13.232 -0.0225 -0.3561  0.0446
 8004W        W24852   9.478  13.200   1.230 -0.2969 -0.1768 -0.0162
 8005W        W24853  13.641   4.298  17.694  0.1473 -0.1938 -0.0006
 8006W        W24854  13.480  12.984  13.402 -0.2663 -0.2444 -0.1029
 8007W        W24855   8.127   6.427  17.310 -0.0307  0.1650  0.3109
 8008W        W24856   4.112   1.836  15.865  0.2271  0.3285 -0.0416
 8009W        W24857   4.548   4.083   0.943  0.0320 -0.1352  0.2036
 8010W        W24858   8.931   5.013  13.957  0.2818 -0.3319  0.2898
 8011W        W24859   9.388  14.474  13.958  0.1442  0.0634 -0.0759
 8012W        W24860  16.717   0.315  13.303 -0.1120  0.0771 -0.1375
 8013W        W24861  10.400   3.140  12.853 -0.0707 -0.1254 -0.0824
 8014W        W24862   3.892   0.787   3.530 -0.0099  0.1533 -0.0503
 8015W        W24863  10.148   9.730   1.832  0.0770  0.1344 -0.1350
 8016W        W24864   5.820   2.679  14.942 -0.0913 -0.1143 -0.2613
 8017W        W24865   7.570  16.963   3.627  0.1613 -0.0211 -0.1214
 8018W        W24866  16.466   8.495   3.400 -0.0234  0.0384 -0.0374
 8019W        W24867  10.460  10.207  15.786  0.1202  0.1754  0.0959
 8020W        W24868   2.757  15.603  16.234 -0.0717  0.0779 -0.1166
 8021W        W24869   6.200   7.459  17.569  0.0593 -0.0153 -0.2939
 8022W        W24870  14.954  14.166   3.670 -0.3424 -0.0426 -0.0023
 8023W        W24871   0.072   1.895  15.729  0.1033  0.0517 -0.0079
 8024W        W24872  13.545   1.392   0.485 -0.1455  0.0091 -0.2552
 8025W        W24873   3.757  14.852   2.140 -0.0061  0.0338  0.1525
 8026W        W24874   2.512   3.725  14.393 -0.0797  0.1123  0.2038
 8027W        W24875   2.619   7.116  16.059 -0.2026  0.1662  0.1247
 8028W        W24876   3.700   4.117  14.623  0.4147 -0.3034 -0.2523
 8029W        W24877  10.517  16.912  15.735 -0.1908  0.1694  0.2567
 8030W        W24878   3.994  11.198  13.750  0.0419 -0.3783  0.0753
 8031W        W24879  11.857  12.551   3.041 -0.2262 -0.1769  0.0511
 8032W        W24880   4.792   2.402  16.095  0.2751 -0.0490  0.2596
 8033W        W24881  15.337  13.725  17.663 -0.0838  0.0265  0.3341
 8034W        W24882   8.566   0.554   0.541  0.0962 -0.0056  0.0931
 8035W        W24883   4.183   5.783  17.452  0.1180  0.1683  0.0733
 8036W        W24884   0.264  11.928  13.804  0.2509 -0.2887  0.1541
 8037W        W24885  14.071   3.937  15.349 -0.1260  0.0092  0.0477
 8038W        W24886  16.908   6.328  14.504 -0.1137 -0.1447  0.0191
 8039W        W24887  11.505  11.488   2.238  0.1109 -0.2597  0.1659
 8040W        W24888  14.592   7.808  15.449 -0.0961  0.0979  0.2371
 8041W        W24889   4.205   9.896   2.632  0.3206  0.1817 -0.2135
 8042W        W24890  13.892   1.359  12.571  0.0488 -0.0015 -0.0144
 8043W        W24891   0.277  15.728   3.628 -0.2197 -0.1847  0.0322
 8044W        W24892   6.720  11.741   1.100  0.2385  0.0828 -0.2871
 8045W        W24893   0.413  14.820   0.852  0.1008 -0.1216  0.1848
 8046W        W24894   0.429  16.334   0.665 -0.0344 -0.3266  0.2835
 8047W        W24895   3.022   7.109   1.013  0.4491  0.2048 -0.4227
 8048W        W24896  16.916   6.565  11.802  0.2681 -0.0042 -0.0888
 8049W        W24897   5.504   3.553  14.997  0.6127 -0.0477 -0.0677
 8050W        W24898   7.613  14.869  14.681  0.0848  0.1940 -0.2854
 8051W        W24899   2.624   1.097   1.002  0.0419  0.2085  0.0956
 8052W        W24900  11.751   6.464   5.519  0.1133 -0.3251  0.0271
 8053W        W24901  12.149   8.903   2.948  0.0182 -0.0337  0.0024
 8054W        W24902   1.829   9.345   1.987 -0.2277 -0.0861  0.1876
 8055W        W24903   5.721  15.893   5.038 -0.2147  0.0260  0.3399
 8056W        W24904  13.411   8.999   1.031 -0.0321 -0.0797 -0.1258
 8057W        W24905  16.493   7.713   2.280  0.0090 -0.2770 -0.2534
 8058W        W24906   7.210   3.646  13.400 -0.0563 -0.1866 -0.2255
 8059W        W24907  13.657  13.772  16.927  0.1300 -0.1830 -0.1466
 8060W        W24908   9.554   0.210  15.907 -0.0889  0.1366  0.0480
 8061W        W24909   6.807  14.826   0.407 -0.1516 -0.1968 -0.1015
 8062W        W24910   6.925   1.831  15.307  0.0093  0.4999 -0.1912
 8063W        W24911   4.626  14.073   0.777  0.0037 -0.2403  0.0871
 8064W        W24912   5.444  12.915   3.191 -0.0861  0.2576  0.3171
 8065W        W24913   9.770  15.380   1.459  0.1536  0.0392  0.1884
 8066W        W24914  16.995  12.161   5.506 -0.1640  0.2480  0.2243
 8067W        W24915  15.810  11.937  16.678  0.0186  0.0229  0.1205
 8068W        W24916  14.715   1.595   4.122  0.1290 -0.0126  0.1863
 8069W        W24917   7.975   9.590   3.699 -0.3622 -0.2444 -0.2815
 8070W        W24918   7.698   8.366  13.223 -0.0180  0.1320 -0.0202
 8071W        W24919  16.710   4.587   0.404 -0.1161 -0.2661  0.0455
 8072W        W24920   1.496   6.171   3.142  0.2106  0.1969 -0.2560
 8073W        W24921   0.853  12.686   3.441 -0.1287  0.3497 -0.1109
 8074W        W24922  16.384   0.721  13.217  0.0843  0.2683  0.1509
 8075W        W24923  15.201   0.220  15.978 -0.0605 -0.0009  0.0999
 8076W        W24924   1.241   8.700   1.138 -0.1775 -0.1952  0.0348
 8077W        W24925  11.669   8.019  13.292 -0.1450  0.0333 -0.1458
 8078W        W24926   9.229  11.697   1.067 -0.0418 -0.1313 -0.0250
 8079W        W24927  13.557   5.713   6.071  0.0694  0.0867 -0.2827
 8080W        W24928  17.084  15.374   2.340 -0.3214  0.1784 -0.3638
 8081W        W24929   1.585   7.960   4.648  0.1339 -0.3521 -0.1995
 8082W        W24930   2.225   0.138  17.550 -0.0025  0.1809  0.1362
 8083W        W24931   2.202   9.252   5.553  0.0358  0.1477 -0.3375
 8084W        W24932  11.624   0.922  12.405 -0.3255  0.4165  0.0932
 8085W        W24933   1.078   0.174   2.465  0.2717 -0.3996 -0.0396
 8086W        W24934   6.979  11.438  16.606  0.4216 -0.0096 -0.0210
 8087W        W24935   6.592  12.029   4.695 -0.1058 -0.1616 -0.0067
 8088W        W24936   1.095   1.421   2.740 -0.3922 -0.1543  0.1011
 8089W        W24937  13.000   6.868  14.838  0.1607  0.1126  0.1543
 8090W        W24938   9.460   0.394   0.799 -0.0221  0.1059 -0.0137
 8091W        W24939  14.677  15.603  17.533  0.2342 -0.0581  0.0675
 8092W        W24940   1.479   8.322   4.162 -0.0669 -0.1491  0.2267
 8093W        W24941   3.795  14.830   5.072 -0.1197 -0.0471 -0.1813
 8094W        W24942   9.266   2.944   4.869  0.1013 -0.0249 -0.2215
 8095W        W24943  15.579   7.172   1.031 -0.1380 -0.2460 -0.0211
 8096W        W24944   5.792   7.978  13.654  0.1214  0.1013  0.2452
 8097W        W24945   9.013   0.232  13.175 -0.0586  0.0453 -0.0523
 8098W        W24946   5.484   7.121   0.182 -0.1771  0.2356  0.0009
 8099W        W24947   6.264  16.648  16.697  0.0176 -0.1355  0.3076
 8100W        W24948  16.630  10.129   4.033  0.0959 -0.2399 -0.1683
 8101W        W24949   9.735  12.536   1.091 -0.0570  0.0849  0.3499
 8102W        W24950   0.578   7.288   1.053  0.3282  0.0466  0.1533
 8103W        W24951   5.665  12.976   2.271  0.2700  0.1400 -0.0842
 8104W        W24952   6.083  14.081  16.758  0.0432  0.3137 -0.0946
 8105W        W24953  16.023  16.526  12.932 -0.1715  0.0107 -0.3023
 8106W        W24954  12.367   3.272  14.674 -0.0171  0.1064  0.0183
 8107W        W24955   0.519   4.966   4.130 -0.2117 -0.1324  0.2133
 8108W        W24956  15.301  15.350  15.406 -0.1601  0.1450 -0.0170
 8109W        W24957   4.694   8.426   0.329  0.0072  0.0889  0.1108
 8110W        W24958  11.627  13.127   4.704 -0.0168  0.0818 -0.2116
 8111W        W24959  13.777   5.171  15.901 -0.3707  0.0447 -0.0454
 8112W        W24960  10.308  12.903  16.414  0.2550  0.2633 -0.1678
 8113W        W24961  16.737  12.058   5.097  0.1390 -0.2581 -0.0612
 8114W        W24962   8.630  10.946   1.191  0.0160  0.0026 -0.1336
 8115W        W24963   2.559  10.170  17.088  0.1395 -0.1297  0.0024
 8116W        W24964  16.304  12.865   4.769  0.0402  0.2614 -0.5122
 8117W        W24965  13.579  11.838  16.818  0.0166  0.3030 -0.0445
 8118W        W24966  15.543  12.896  14.583  0.1291 -0.2923 -0.1210
 8119W        W24967   1.605   3.173  16.981  0.1951 -0.0022  0.2440
 8120W        W24968   0.858  15.540   1.942  0.0700 -0.0605  0.0582
 8121W        W24969  10.666   6.800   2.908  0.2843 -0.3031 -0.2041
 8122W        W24970  12.848  16.899   2.713 -0.1211 -0.1000 -0.1634
 8123W        W24971   2.641  15.121  17.627  0.0871  0.1045 -0.1538
 8124W        W24972   7.465  16.434   3.916 -0.2383  0.0056 -0.3418
 8125W        W24973   7.604   3.736  15.577 -0.0615 -0.1541 -0.2156
 8126W        W24974  11.548   8.221  11.513 -0.5557 -0.6057 -0.1539
 8127W        W24975   4.746  16.410  15.205  0.1128  0.1077  0.1395
 8128W        W24976   7.907  10.536  16.410 -0.0476 -0.1198 -0.0616
 8129W        W24977   9.685  16.379   1.401  0.0576  0.0733  0.3239
 8130W        W24978   1.190  16.803   5.726  0.0683  0.0478  0.1906
 8131W        W24979   8.923  15.222  15.527  0.2108 -0.1670 -0.2239
 8132W        W24980  15.240  13.247   0.146  0.3055  0.0987  0.0216
 8133W        W24981   5.490  15.111  16.719 -0.2287 -0.1118 -0.3125
 8134W        W24982  11.223   4.649  16.404 -0.0034  0.1833 -0.0706
 8135W        W24983  13.676   1.998   1.373  0.0176  0.2777  0.2639
 8136W        W24984   7.588  13.595  11.886 -0.1919  0.2236  0.2239
 8137W        W24985  13.224   8.284  15.339 -0.1895  0.1775  0.1338
 8138W        W24986  12.185   7.953   0.776  0.0889 -0.0310 -0.0935
 8139W        W24987  16.409   1.891   5.610  0.0292  0.1352 -0.1218
 8140W        W24988   9.144   1.148   4.374 -0.2317 -0.1504 -0.0673
 8141W        W24989   0.803   3.966  16.379  0.2452 -0.0313 -0.1405
 8142W        W24990  10.140  13.591   0.153  0.3445  0.1260 -0.1245
 8143W        W24991  11.793   2.652  14.247  0.2586 -0.0557 -0.1178
 8144W        W24992   3.944   2.625   4.997 -0.0274  0.1172 -0.0660
 8145W        W24993   3.466  17.068  16.273 -0.1816  0.3023  0.0177
 8146W        W24994   2.342   2.720   0.727 -0.1909 -0.1537  0.0423
 8147W        W24995   4.249  10.461   4.454 -0.2159  0.0350 -0.0721
 8148W        W24996   6.568   6.531  12.342  0.0394 -0.0771  0.2180
 8149W        W24997   2.020   0.169   6.042  0.2478  0.0356 -0.1296
 8150W        W24998   1.462   0.550   3.714 -0.1188  0.0320 -0.1703
 8151W        W24999  15.475   3.891  13.498 -0.0648  0.0361  0.4654
 8152W        W25000   6.831   4.498  14.360 -0.0671 -0.1749 -0.0045
 8153W        W25001  15.376   6.866  12.785 -0.2447  0.1130 -0.0338
 8154W        W25002   2.055  15.116  17.528  0.4343 -0.2194  0.0389
 8155W        W25003   5.373   2.682  14.341  0.1440  0.1508 -0.0976
 8156W        W25004   8.846   0.915   4.032 -0.3319  0.0131  0.2197
 8157W        W25005   1.313  16.112   2.957  0.1204 -0.0838 -0.2577
 8158W        W25006  14.414   3.062   2.505  0.2040 -0.0408  0.2561
 8159W        W25007  13.345   6.896   4.298  0.3736  0.4898  0.2030
 8160W        W25008   7.498  13.968   4.172  0.1122  0.2871 -0.3212
 8161W        W25009   4.117  15.635   4.897  0.0296 -0.3414 -0.4748
 8162W        W25010   5.413   9.098   2.281  0.1589 -0.0766 -0.2235
 8163W        W25011  13.486   4.062   0.304 -0.2150  0.0904  0.2922
 8164W        W25012  14.846  10.948   4.946  0.0119 -0.1796 -0.0544
 8165W        W25013   3.993   5.943  13.168 -0.0227  0.0664  0.1442
 8166W        W25014   4.846  10.123   5.018  0.0709  0.0477 -0.4788
 8167W        W25015   3.222  17.013   4.679 -0.0185 -0.1786 -0.0547
 8168W        W25016   8.108   7.286  13.659 -0.0217  0.0620 -0.2868
 8169W        W25017  14.094  14.072  16.982 -0.0496  0.0577  0.1546
 8170W        W25018  12.490   0.576  11.892  0.2390 -0.1607 -0.0810
 8171W        W25019   5.138  16.693  12.842  0.0046 -0.1371 -0.0536
 8172W        W25020  15.513   3.034   3.400 -0.0312  0.1070 -0.3372
 8173W        W25021   5.321   6.465  14.610  0.1855 -0.0752  0.2172
 8174W        W25022   0.088   0.970  16.249 -0.3109  0.0889  0.0642
 8175W        W25023  11.517   8.534  13.302  0.1325 -0.0798  0.0524
 8176W        W25024  14.742  13.372  16.863 -0.0984 -0.1905  0.3971
 8177W        W25025  17.035   5.471  14.114 -0.0419  0.2007  0.0900
 8178W        W25026   2.147   9.899  12.603 -0.0984 -0.0315  0.3888
 8179W        W25027  16.224   6.342   1.222  0.0934 -0.0775 -0.1065
 8180W        W25028   0.596  11.634   3.653 -0.1292  0.1481  0.0496
 8181W        W25029  10.839   7.577   1.930  0.2382 -0.1655 -0.1095
 8182W        W25030  15.178   6.766   4.908 -0.1963 -0.0157 -0.1377
 8183W        W25031  12.953  13.356   0.585  0.0971 -0.0041  0.0543
 8184W        W25032   8.056  13.172  12.605 -0.5109  0.1358 -0.0153
 8185W        W25033   1.048   9.367  13.566 -0.2446 -0.1420 -0.2582
 8186W        W25034   4.976   0.920  13.663 -0.1389 -0.0544  0.0979
 8187W        W25035   3.892   0.685   2.849 -0.2165  0.1574 -0.1947
 8188W        W25036  10.421   0.057   3.993  0.0448  0.3403  0.0291
 8189W        W25037   9.093   3.535  15.548 -0.0053  0.2274 -0.3733
 8190W        W25038  16.907   9.518   4.251 -0.0129  0.0387  0.1277
 8191W        W25039  11.424  12.024   2.397 -0.3155  0.0594  0.0611
 8192W        W25040   2.994   7.378   5.479  0.2654  0.0167 -0.2103
 8193W        W25041  10.532  14.114  17.440  0.1411  0.4724  0.0803
 8194W        W25042  11.730   1.627  11.340  0.3630 -0.0178 -0.0125
 8195W        W25043   1.130   1.745  13.464  0.0124 -0.1747  0.1182
 8196W        W25044  14.729   8.342  15.439 -0.1071 -0.1584 -0.2055
 8197W        W25045   2.106  11.484   0.273 -0.0598 -0.2887  0.2319
 8198W        W25046  12.455   8.070  17.512  0.1647  0.2375 -0.0815
 8199W        W25047   4.761   7.794  14.583 -0.0038 -0.1862  0.0432
 8200W        W25048  11.065   2.971   3.833 -0.1165  0.0936  0.0823
 8201W        W25049   8.829   8.889  14.939  0.0304 -0.0196  0.1335
 8202W        W25050  10.553  14.976   1.537  0.2337 -0.3987 -0.2196
 8203W        W25051   9.212  14.858   4.818 -0.1271 -0.1193 -0.0705
 8204W        W25052   3.708   8.290  13.919 -0.1175  0.0268 -0.0049
 8205W        W25053   6.523  16.013   0.577  0.0651 -0.1883  0.4655
 8206W        W25054   6.399   8.721  16.156  0.5608  0.3063 -0.2787
 8207W        W25055  14.978  14.327  16.160 -0.5390  0.0548  0.1638
 8208W        W25056   0.851   9.972  15.682 -0.3707  0.0129 -0.0580
 8209W        W25057  14.988   8.520  16.492 -0.1378 -0.1155 -0.0278
 8210W        W25058  10.198  11.451   2.347 -0.0705  0.4024 -0.0215
 8211W        W25059   3.195  14.561  17.551 -0.1608  0.3404  0.2269
 8212W        W25060  14.385   3.082   4.741  0.0239  0.0544  0.3455
 8213W        W25061   5.665   7.424   2.313 -0.0824  0.4445  0.2412
 8214W        W25062   1.440   0.068  14.422 -0.1014  0.0072  0.0199
 8215W        W25063  11.477   9.760  13.776  0.3511  0.1038  0.1664
 8216W        W25064  12.920   7.789  12.400  0.0491  0.1143 -0.1305
 8217W        W25065   9.477   8.032   1.643 -0.1738  0.0550 -0.1325
 8218W        W25066   6.749   7.640  17.623 -0.1505  0.1779  0.0742
 8219W        W25067  14.748   9.965   4.835 -0.0980 -0.0666 -0.1810
 8220W        W25068   8.006   7.970  17.007 -0.2806  0.3503 -0.1385
 8221W        W25069   6.152   5.191  17.009  0.0828  0.1495 -0.1313
 8222W        W25070   2.044  14.843  16.092 -0.0992 -0.1911 -0.0993
 8223W        W25071  15.623   8.471   1.518  0.0596  0.4825  0.2209
 8224W        W25072   0.883   4.641   0.310 -0.2086  0.1389  0.0435
 8225W        W25073  12.588   9.728  17.460 -0.0606 -0.0573 -0.1024
 8226W        W25074  13.913   7.509  13.607 -0.0023  0.2457  0.0903
 8227W        W25075   4.767   0.050  14.899  0.0113  0.0505  0.2125
 8228W        W25076   1.552   1.139   2.711 -0.2994 -0.0842  0.3535
 8229W        W25077   6.813  10.453   4.299  0.0402  0.2758 -0.0042
 8230W        W25078  15.872   8.630  14.060 -0.1561  0.0794  0.2345
 8231W        W25079   0.326  12.985  15.035 -0.0034 -0.0940 -0.1480
 8232W        W25080  14.520  12.446   0.848  0.0569  0.3195 -0.0996
 8233W        W25081   4.170   5.675   3.917  0.0639 -0.0898  0.0675
 8234W        W25082   0.792   8.897  15.461  0.1255 -0.0195 -0.1267
 8235W        W25083   6.176  10.548  15.032 -0.2046 -0.1812  0.2136
 8236W        W25084   1.372  16.558   2.615  0.2406 -0.0797 -0.0902
 8237W        W25085  11.816   2.459  12.095  0.0689  0.3268 -0.1971
 8238W        W25086   8.657   5.404  13.781  0.1004 -0.0817  0.0363
 8239W        W25087   8.375  16.815  13.442  0.1474  0.3370  0.1497
 8240W        W25088  16.964   5.295   1.554  0.0625 -0.0890  0.1820
 8241W        W25089   7.104  11.590   3.752  0.2021 -0.2282 -0.0208
 8242W        W25090   7.090  13.930  15.685  0.1945  0.1103 -0.0572
 8243W        W25091  10.363  14.040  15.417 -0.0005  0.0815  0.0591
 8244W        W25092   7.909   2.448  15.155 -0.1184  0.2624  0.1650
 8245W        W25093   6.002   9.111  15.416  0.1545 -0.4817  0.2574
 8246W        W25094   4.739   9.487   4.341  0.3544  0.0338  0.0671
 8247W        W25095   9.232  11.718  16.953 -0.1826 -0.0387  0.0643
 8248W        W25096   4.483  13.944   6.103 -0.0985  0.3644 -0.1533
 8249W        W25097  12.137  14.876   0.870 -0.2725 -0.1365 -0.0883
 8250W        W25098  15.645   1.484   2.685 -0.1518  0.2163 -0.0998
 8251W        W25099   9.606  11.733   0.627  0.2284 -0.0018  0.1648
 8252W        W25100  11.310  15.366   2.531  0.1685 -0.6368 -0.1148
 8253W        W25101  13.648  13.094  14.192 -0.0256 -0.1495  0.1081
 8254W        W25102  14.222  10.413   0.632 -0.0605 -0.1180 -0.0464
 8255W        W25103   1.349   3.604   3.843 -0.1819 -0.2222  0.0915
 8256W        W25104  11.686   1.065   3.095  0.1269 -0.1668 -0.1092
 8257W        W25105   3.274  16.143  12.593  0.0029  0.2273  0.1242
 8258W        W25106  16.309   6.451   0.130  0.4382 -0.2736  0.1433
 8259W        W25107   3.107   3.206   3.352 -0.0662 -0.0280 -0.2935
 8260W        W25108   4.209  10.239   3.212  0.0034  0.3758  0.0177
 8261W        W25109  10.091  14.401   5.109 -0.0557  0.1830  0.1592
 8262W        W25110   6.433  14.064  17.197  0.2503 -0.4202 -0.0217
 8263W        W25111  10.702   4.682   0.046  0.1486 -0.1321  0.1086
 8264W        W25112  14.589  10.181  12.631 -0.2564 -0.0208 -0.1236
 8265W        W25113   7.446   2.770   4.747  0.0458 -0.0028  0.1065
 8266W        W25114   3.702   2.027  13.331  0.0236  0.1020  0.1398
 8267W        W25115   6.979   4.049  13.624 -0.2874  0.0240 -0.3667
 8268W        W25116   3.040   5.234  15.938 -0.3978  0.1166 -0.0632
 8269W        W25117  10.609  10.509   0.737 -0.0073  0.0321  0.0684
 8270W        W25118  15.306  12.446   5.049  0.2067  0.2151  0.3161
 8271W        W25119  15.523   4.363   3.824  0.0369  0.3189 -0.1231
 8272W        W25120   9.731   4.362  15.986  0.0786  0.0321  0.0990
 8273W        W25121  11.288  14.664  17.725  0.0631  0.1497  0.0135
 8274W        W25122   2.349   4.876   0.525 -0.1612 -0.0245  0.1754
 8275W        W25123  11.674   4.515   2.341  0.0662  0.3544  0.0941
 8276W        W25124   2.497  14.784  15.156  0.4287 -0.0237 -0.0084
 8277W        W25125  16.220   6.963   1.669  0.0936 -0.0369 -0.3106
 8278W        W25126   7.344   0.363   3.051 -0.3240 -0.0138 -0.4256
 8279W        W25127   5.339  11.900   5.698  0.3633  0.0746 -0.1236
 8280W        W25128   6.692   5.255   4.234  0.0276  0.0015 -0.2877
 8281W        W25129   3.317   4.504   0.251  0.3125  0.3080  0.4470
 8282W        W25130  12.730  16.598   0.445  0.2229 -0.0094  0.2346
 8283W        W25131  11.612   3.415  15.273  0.2535 -0.0510 -0.2304
 8284W        W25132  13.507   1.100   6.015  0.1402  0.2471 -0.2476
 8285W        W25133   5.560   2.980  12.907 -0.0392 -0.0589  0.1984
 8286W        W25134   7.918   5.261  12.453 -0.1938  0.0634 -0.2992
 8287W        W25135   5.803   9.221  14.345 -0.0271 -0.1175 -0.1305
 8288W        W25136   3.959   4.763  12.601  0.1202  0.0382 -0.2821
 8289W        W25137   7.056  11.886   3.333 -0.1138  0.3120 -0.0417
 8290W        W25138  14.458  15.671  15.286  0.1280  0.1820  0.0662
 8291W        W25139  13.364  11.335  12.861 -0.1105  0.2526 -0.2514
 8292W        W25140   3.163  14.254  16.744 -0.0716 -0.0767 -0.0029
 8293W        W25141   5.266  11.885   1.773  0.1486  0.1199 -0.0631
 8294W        W25142  10.580   8.890   0.862 -0.1525  0.3573  0.3539
 8295W        W25143  14.074   8.556  17.029  0.0934 -0.0937  0.1826
 8296W        W25144   7.685   4.124  13.225  0.0118 -0.1179  0.2679
 8297W        W25145   9.799   9.587   0.431  0.1729  0.2702  0.0631
 8298W        W25146   3.227   6.697  14.022  0.2126 -0.0175 -0.0618
 8299W        W25147   2.199   1.766   3.443  0.2224 -0.0681  0.3679
 8300W        W25148  10.760  10.587   5.022 -0.2427  0.0488  0.1705
 8301W        W25149  14.227   0.107   0.648 -0.0728  0.3071  0.1413
 8302W        W25150   0.975   0.830  17.670 -0.0664 -0.1414 -0.1970
 8303W        W25151  16.486   9.352  15.505 -0.1122  0.3749  0.2600
 8304W        W25152  16.893   4.629   4.983 -0.0095 -0.0333 -0.0078
 8305W        W25153   2.824   2.498   0.867  0.3120  0.1498 -0.1839
 8306W        W25154   8.429  11.910  13.522  0.1629  0.4137 -0.0067
 8307W        W25155   2.148   6.415  13.905 -0.1552  0.1297  0.0636
 8308W        W25156   4.370   7.458   5.544 -0.0749  0.0359  0.0429
 8309W        W25157   1.742  14.702   0.473 -0.1027  0.1899 -0.0271
 8310W        W25158  16.942   7.383   3.378  0.0307  0.1196 -0.0545
 8311W        W25159  15.639  12.384  15.178 -0.0542  0.1048  0.3334
 8312W        W25160   1.560   0.278  15.700  0.0817  0.1481  0.2085
 8313W        W25161  12.780   1.062  14.013 -0.0157 -0.0650  0.3554
 8314W        W25162   2.980  15.716   0.464 -0.2858  0.1301 -0.0856
 8315W        W25163   3.818   1.714  16.712  0.1178  0.0210 -0.0932
 8316W        W25164   4.567   4.757   4.079 -0.3006  0.0949  0.1594
 8317W        W25165  12.208   3.388  17.763  0.0237 -0.0830  0.1220
 8318W        W25166   7.922  10.352  15.675  0.0329  0.1476 -0.1426
 8319W        W25167  10.619   8.598  12.812  0.1223  0.1496  0.2404
 8320W        W25168   2.812  13.129  13.632 -0.0324  0.1179  0.1192
 8321W        W25169  14.144  13.980   3.619  0.2683 -0.0228  0.0066
 8322W        W25170   3.274  16.075  14.171  0.0508  0.1910  0.1358
 8323W        W25171  10.688   7.720   2.408 -0.2936 -0.0738 -0.3879
 8324W        W25172  13.668  15.269   4.426 -0.1065 -0.2159  0.1704
 8325W        W25173   2.610   7.354  16.852  0.0604 -0.2707  0.0628
 8326W        W25174   0.005  13.191  14.483 -0.1617 -0.1713 -0.0145
 8327W        W25175   9.115  15.681  14.564  0.0996 -0.0976 -0.1023
 8328W        W25176  16.166  11.126  15.883  0.0048  0.0815 -0.0327
 8329W        W25177  15.542   3.452   0.043 -0.4253 -0.0500  0.0651
 8330W        W25178   8.504  12.264   5.262 -0.2242 -0.3419 -0.2581
 8331W        W25179   8.142   8.894   4.398  0.2233  0.1099  0.1358
 8332W        W25180   1.831  14.004  17.604  0.1127  0.2101 -0.1067
 8333W        W25181  16.833  14.972   5.253 -0.0603  0.0836 -0.1603
 8334W        W25182  10.301   3.887   4.248  0.0775  0.0945 -0.1552
 8335W        W25183   1.785   7.335   2.817  0.2898 -0.2149  0.1942
 8336W        W25184   4.031  12.795   6.000 -0.1263 -0.0345  0.0818
 8337W        W25185  16.572   7.470  17.100 -0.1869  0.0845 -0.1721
 8338W        W25186   4.280   7.599  16.291  0.1834 -0.1590 -0.1450
 8339W        W25187  11.601   1.725   2.276 -0.4068 -0.1915  0.1727
 8340W        W25188  15.148  14.544   3.993 -0.2872  0.0328  0.1570
 8341W        W25189   4.192   5.844   5.417  0.0763 -0.0367 -0.1903
 8342W        W25190  15.263   1.359   1.086 -0.2462 -0.1104 -0.0907
 8343W        W25191  10.290  16.509  13.863  0.2647 -0.3647  0.0619
 8344W        W25192   1.318  10.337  14.349  0.0263  0.0801 -0.0183
 8345W        W25193   8.691   9.310  12.767 -0.0620  0.0429 -0.1048
 8346W        W25194   5.981   1.085  13.098 -0.0936 -0.2625 -0.3066
 8347W        W25195  16.236   8.392  15.623  0.1727 -0.1091 -0.1867
 8348W        W25196   5.468  13.486   1.736 -0.0191  0.0846  0.0819
 8349W        W25197  11.126   7.327  14.959 -0.4752  0.1185  0.1068
 8350W        W25198   1.434   4.953  16.625 -0.1808  0.1456  0.0679
 8351W        W25199  12.076   5.941   3.199  0.5264  0.2136 -0.2777
 8352W        W25200  10.625  13.570  12.735 -0.1351  0.0421 -0.0027
 8353W        W25201   6.754  14.248  12.024  0.1498  0.0809 -0.0670
 8354W        W25202   9.160   1.153  16.491 -0.1055  0.4893  0.4206
 8355W        W25203   1.860  15.725  15.558  0.0274  0.0664 -0.1851
 8356W        W25204  12.370   0.549  12.864  0.1634  0.0676  0.1503
 8357W        W25205   8.346   7.307   3.933  0.1330 -0.1241 -0.0352
 8358W        W25206  13.809   0.793  16.172  0.0288  0.0760 -0.0044
 8359W        W25207   0.535  16.042   2.537  0.1077 -0.2248  0.1379
 8360W        W25208   0.860   2.191  13.476  0.5074 -0.2611 -0.3993
 8361W        W25209  10.319  12.425   0.339  0.2856 -0.1095 -0.1515
 8362W        W25210   5.351  14.939   5.596  0.1830 -0.3554  0.2867
 8363W        W25211   0.279   4.707  14.275 -0.2145  0.2345 -0.2663
 8364W        W25212  13.130  17.099   3.587  0.2229 -0.3483 -0.1493
 8365W        W25213  12.230   8.506  15.408 -0.1927 -0.4872 -0.1515
 8366W        W25214   4.285   3.804  17.709 -0.0229  0.0318 -0.2536
 8367W        W25215  14.982   8.834  13.441  0.2727 -0.1135  0.2068
 8368W        W25216  13.012   8.643  14.510 -0.1819  0.0970 -0.0967
 8369W        W25217   0.974   1.405   0.925  0.0118  0.1714 -0.1932
 8370W        W25218  12.633   5.332   1.657  0.0608 -0.1417 -0.0141
 8371W        W25219   1.854   3.860   3.028  0.0954 -0.1726  0.1314
 8372W        W25220   3.724  16.154   0.030  0.0952 -0.1793 -0.2235
 8373W        W25221  12.644  17.144  17.332  0.3260  0.0285 -0.2613
 8374W        W25222   2.415  10.243  12.882  0.1048  0.1233  0.1943
 8375W        W25223  14.185   3.660   1.624  0.1892  0.0636 -0.3064
 8376W        W25224   5.832   0.048   3.698 -0.1322  0.0953  0.2073
 8377W        W25225   6.538   1.931   3.975  0.1783  0.1552  0.1357
 8378W        W25226   8.062   3.648   1.177  0.0491 -0.0126 -0.2678
 8379W        W25227   6.058  10.429   4.560 -0.1622  0.2073 -0.3431
 8380W        W25228   1.231   3.255  16.106 -0.0498  0.4041 -0.1486
 8381W        W25229   1.922  10.122   2.861 -0.1502  0.1285  0.0783
 8382W        W25230  15.945  13.982   1.558 -0.3167  0.2575 -0.3368
 8383W        W25231  16.083   1.757   1.381 -0.0783 -0.1088 -0.1810
 8384W        W25232   5.524   4.928   2.518  0.0209  0.0050  0.0379
 8385W        W25233   8.758   7.695   1.549 -0.3533  0.0649  0.2230
 8386W        W25234   9.638  12.075  12.978  0.0577 -0.0198  0.3496
 8387W        W25235   4.656  11.938  13.828  0.2225 -0.0095  0.1825
 8388W        W25236   9.306   0.136  16.349  0.0322 -0.0617  0.2065
 8389W        W25237   4.284  15.943  12.130  0.2065 -0.2652 -0.2614
 8390W        W25238   2.804   3.188   4.546 -0.1857  0.1282  0.0069
 8391W        W25239   5.152  10.653  17.284 -0.0935 -0.0797 -0.4541
 8392W        W25240  12.457   6.077  14.621  0.1138  0.1861  0.0490
 8393W        W25241   0.090  14.379   5.413  0.0113  0.0419  0.2043
 8394W        W25242  13.507  11.110  12.456 -0.1528  0.2462  0.1939
 8395W        W25243  13.123  11.653  15.365  0.0043 -0.0059 -0.2546
 8396W        W25244   9.856   3.079   5.487  0.2499 -0.0523  0.1671
 8397W        W25245   4.301  10.183   4.940 -0.2878  0.3876 -0.3081
 8398W        W25246   6.340  13.005   2.914 -0.6219 -0.0057  0.0910
 8399W        W25247   1.729   6.634   4.561 -0.0859  0.0132 -0.0996
 8400W        W25248  10.257  15.831  14.697  0.1025  0.1648  0.1986
 8401W        W25249   6.562  11.301   4.010 -0.1574  0.1198 -0.2115
 8402W        W25250   5.100   2.007  17.006  0.1670 -0.2523 -0.3562
 8403W        W25251   8.467   6.573  12.717 -0.1091 -0.2209 -0.4195
 8404W        W25252  10.602  12.378   5.053 -0.1171 -0.2111 -0.4116
 8405W        W25253   7.677  14.149   3.727 -0.0593 -0.0608 -0.2987
 8406W        W25254   0.308  14.141   4.991 -0.0416 -0.1006 -0.0973
 8407W        W25255   1.781  12.841   0.530  0.0932 -0.3472  0.0827
 8408W        W25256   9.596  11.534   3.892  0.0767  0.3608 -0.3330
 8409W        W25257  11.370   6.309  15.518  0.0884 -0.1887  0.1575
 8410W        W25258   8.821   5.166  12.677 -0.3824 -0.1200 -0.1144
 8411W        W25259   6.446  11.839   0.183  0.0257  0.1481 -0.0504
 8412W        W25260   9.108  11.675  15.715 -0.1280 -0.3509 -0.1928
 8413W        W25261   1.821  10.201  12.886  0.2731  0.2678 -0.0792
 8414W        W25262  15.143  14.983   3.742 -0.1701  0.0840 -0.0808
 8415W        W25263  13.285   8.583  14.031 -0.0839  0.4103 -0.0777
 8416W        W25264  11.841  14.157  17.417  0.0115  0.1266 -0.4718
 8417W        W25265   5.529  13.242  13.461  0.1703  0.2130 -0.1933
 8418W        W25266  11.028  10.787  17.732  0.2972 -0.0646  0.2664
 8419W        W25267   1.243   9.492   1.327 -0.2819 -0.2801  0.2440
 8420W        W25268   3.014  15.962   5.015 -0.0262 -0.0545  0.1282
 8421W        W25269   0.306   7.570  13.268 -0.4314  0.1046  0.0862
 8422W        W25270   6.645   5.109   6.427  0.0222  0.2126  0.1688
 8423W        W25271  13.587  14.863  13.550  0.4598  0.2781  0.1246
 8424W        W25272  15.242   4.954   5.487  0.1703  0.0084 -0.0106
 8425W        W25273   1.372  10.686  14.645 -0.3052 -0.1118  0.0115
 8426W        W25274  15.610   9.580  10.939 -0.0640  0.0803  0.2593
 8427W        W25275   8.275  12.108  12.154 -0.0983  0.2279 -0.1195
 8428W        W25276   4.906   6.303   4.116 -0.1043  0.1233  0.2879
 8429W        W25277   2.104   3.359  15.482  0.1118  0.2567  0.5007
 8430W        W25278   5.984  10.911  14.720  0.2526 -0.1287 -0.1919
 8431W        W25279  11.446  13.099  16.303  0.2148 -0.0014  0.1556
 8432W        W25280  15.775   0.130  12.754  0.1571  0.3272  0.0389
 8433W        W25281  15.220   5.397  17.026 -0.0820  0.3464  0.0859
 8434W        W25282  12.727  11.931   1.963 -0.0155 -0.0962 -0.0377
 8435W        W25283   7.966  11.998   1.439  0.0466  0.0245  0.1867
 8436W        W25284   2.577  15.043   1.043  0.2295 -0.0073 -0.0954
 8437W        W25285   7.155   8.613  17.612 -0.2049 -0.0947 -0.3275
 8438W        W25286   7.587   4.917   5.508 -0.1579 -0.0714 -0.2180
 8439W        W25287   2.705   6.642   5.854  0.0789  0.4179  0.0486
 8440W        W25288   6.132   6.256  12.675 -0.1488  0.0683  0.2646
 8441W        W25289  16.800  13.205   5.509 -0.1849  0.4240 -0.0366
 8442W        W25290  12.972  11.991   0.484  0.2429  0.0794 -0.0063
 8443W        W25291  10.268  14.757  13.962 -0.0788  0.0687 -0.3454
 8444W        W25292   0.889   9.999  16.923 -0.1662  0.1319  0.1463
 8445W        W25293   2.195   3.261   0.510  0.0255 -0.1587 -0.1251
 8446W        W25294   5.030  15.427   1.926 -0.0356  0.0381 -0.1870
 8447W        W25295  16.534   4.076   4.273 -0.2894  0.1637  0.2620
 8448W        W25296   8.910  13.930   4.074  0.1073 -0.0825  0.0776
 8449W        W25297   0.828   0.264   1.953 -0.0062 -0.2944 -0.3144
 8450W        W25298  12.909  15.168  12.725  0.0352  0.3257 -0.1308
 8451W        W25299   4.978  14.928   0.653 -0.0989 -0.1137 -0.1092
 8452W        W25300   9.152  11.387  14.890  0.0161  0.0902 -0.1551
 8453W        W25301  10.988   6.144   3.511 -0.1725  0.2543 -0.1861
 8454W        W25302   1.642  13.034   3.483  0.3516 -0.0485  0.2302
 8455W        W25303   7.430  16.336  15.592 -0.2161 -0.1578 -0.0228
 8456W        W25304   4.089  12.002   2.128  0.0173 -0.2009  0.1887
 8457W        W25305  16.771   3.642   5.396 -0.0482 -0.1481  0.1646
 8458W        W25306  13.446  11.658   1.597  0.0342 -0.1452  0.3050
 8459W        W25307  15.480   4.507  12.197 -0.4679  0.1563  0.2138
 8460W        W25308   5.898   8.026  16.398 -0.2022 -0.1142  0.0977
 8461W        W25309   0.597   7.249   2.302  0.0906 -0.3260  0.1249
 8462W        W25310   7.193  15.103   4.436 -0.1896 -0.0829 -0.0104
 8463W        W25311  16.656   7.307   5.965 -0.4109  0.0324 -0.2365
 8464W        W25312   6.366  12.198  16.745  0.0751  0.1631 -0.1738
 8465W        W25313   8.111  11.572   1.715 -0.0395 -0.1656  0.0423
 8466W        W25314   7.378   8.462   5.496  0.0316  0.1290  0.1374
 8467W        W25315   1.559   4.437  15.902 -0.2729  0.0425  0.1128
 8468W        W25316   4.079   8.056   1.701 -0.2055 -0.1327  0.0505
 8469W        W25317   2.076   0.218  15.203  0.0594 -0.0057 -0.0445
 8470W        W25318  16.724   8.776   3.772  0.0220 -0.0803 -0.0812
 8471W        W25319   3.291  14.512   2.196 -0.1163 -0.1591 -0.2282
 8472W        W25320   9.994   5.525  15.976  0.0242  0.1108 -0.4145
 8473W        W25321   3.716   6.658   5.562  0.1064  0.1582 -0.0395
 8474W        W25322   2.117   7.583  11.444 -0.1267 -0.3655  0.0690
 8475W        W25323   6.766  16.718   4.450  0.0616  0.0354 -0.2315
 8476W        W25324   0.002   7.376  16.787  0.2459  0.1064  0.1433
 8477W        W25325  13.558   8.355   2.835  0.0215 -0.1194  0.1479
 8478W        W25326  10.278  16.132   1.885 -0.0576  0.0837 -0.0317
 8479W        W25327  13.284   1.995   1.716 -0.2673  0.1330 -0.2762
 8480W        W25328   0.553  12.519   2.108  0.1402 -0.0207  0.3138
 8481W        W25329   6.068   0.378  14.375  0.3526  0.0272 -0.0087
 8482W        W25330   1.020  17.141   4.938 -0.1335 -0.0544  0.0179
 8483W        W25331   3.747   5.842   2.937 -0.0826 -0.1827 -0.0010
 8484W        W25332   2.301   3.520   2.304  0.0415 -0.1668 -0.0248
 8485W        W25333   3.340   1.253   1.325 -0.2840  0.0055  0.1489
 8486W        W25334  11.352  13.233   2.701  0.1156  0.4089  0.2119
 8487W        W25335   5.094  12.743   6.540  0.2703  0.0788 -0.2906
 8488W        W25336   9.941  13.390   0.874 -0.1781 -0.0790  0.0906
 8489W        W25337  14.256   3.885   3.595  0.0964 -0.0153  0.2038
 8490W        W25338   3.135   9.531  17.092  0.2810  0.1187 -0.0717
 8491W        W25339  15.252   4.513   0.706 -0.4512 -0.0469 -0.0527
 8492W        W25340   7.568   7.787  15.728 -0.0188  0.2922 -0.3730
 8493W        W25341   2.292  15.520  17.480  0.1345  0.1458  0.0381
 8494W        W25342   3.556  11.778   7.321  0.0137  0.0443  0.1074
 8495W        W25343   4.823  15.693   4.571  0.0038 -0.1488  0.0924
 8496W        W25344   8.787  16.706  17.754  0.3821 -0.1691 -0.1557
 8497W        W25345   1.010  10.198  13.173  0.1340 -0.0723 -0.0436
 8498W        W25346  11.155  15.887   2.634  0.2912  0.0490  0.1140
 8499W        W25347   9.811   9.020   3.325  0.1310  0.0042 -0.0880
 8500W        W25348   6.167   5.597   0.079  0.2533  0.1257 -0.1177
 8501W        W25349  11.600   8.294  16.867  0.2796 -0.0625  0.0430
 8502W        W25350  10.442   8.849  12.072  0.2949 -0.2044  0.1653
 8503W        W25351   2.306  13.270  16.499 -0.0705  0.4044 -0.3242
 8504W        W25352   2.616   3.397   4.080  0.0441  0.1976  0.2715
 8505W        W25353   6.653   5.857   5.224  0.0117 -0.2110  0.0139
 8506W        W25354  10.881   2.530   5.216  0.0500  0.0227 -0.3234
 8507W        W25355  12.170   6.051   0.551 -0.0579 -0.2360 -0.0068
 8508W        W25356   0.449  15.206  15.409 -0.1166 -0.2509 -0.5077
 8509W        W25357   0.040  12.413   0.638 -0.0170 -0.0036  0.1524
 8510W        W25358  13.240  10.239  12.925 -0.1673  0.2245 -0.2684
 8511W        W25359   2.008  11.895  17.657 -0.0197 -0.1143 -0.2659
 8512W        W25360  15.389   1.225   4.230 -0.0453  0.2157  0.3027
 8513W        W25361  10.359   0.406  13.065  0.1090 -0.1613 -0.1330
 8514W        W25362  16.738  15.898  15.456 -0.0125 -0.1497 -0.1381
 8515W        W25363  16.804  11.123   3.893  0.0580  0.1628  0.1352
 8516W        W25364   1.666  14.013   2.640 -0.1980  0.1199 -0.0661
 8517W        W25365   7.663   8.524  16.108 -0.1012 -0.2411 -0.0682
 8518W        W25366   7.654   6.696  17.434  0.0076 -0.4969  0.2585
 8519W        W25367  16.251   6.762  13.358 -0.0069  0.1580 -0.0265
 8520W        W25368  14.696   2.650   5.353  0.0054  0.2900  0.0285
 8521W        W25369  16.582   1.265  12.282  0.0614  0.3945  0.0893
 8522W        W25370  11.207   7.464   3.457 -0.0063  0.3699 -0.3008
 8523W        W25371  10.430   0.401  15.817  0.1006 -0.1076  0.0836
 8524W        W25372  15.296   8.178   0.707 -0.0445 -0.3241 -0.2793
 8525W        W25373   4.525  13.570   1.949  0.0869  0.0798 -0.4603
 8526W        W25374   5.413   2.590   2.462 -0.2396  0.0066  0.1270
 8527W        W25375   7.189  16.951  16.897 -0.0872  0.0681 -0.1603
 8528W        W25376   3.494   6.515  16.487  0.1109 -0.2581 -0.1985
 8529W        W25377  15.185   4.471   1.208 -0.0152 -0.1130  0.1701
 8530W        W25378   8.030   9.765   0.906 -0.0747  0.0082  0.0284
 8531W        W25379  11.315  11.355  14.316 -0.3370  0.4753 -0.0099
 8532W        W25380   9.163   1.383   2.590 -0.0379  0.0739  0.0900
 8533W        W25381   7.048   4.686   0.858 -0.1542 -0.1648  0.1751
 8534W        W25382  12.964   9.612  15.220  0.0614  0.0178 -0.0280
 8535W        W25383   3.299  12.208  14.345 -0.0816  0.0023 -0.2858
 8536W        W25384  14.030   5.195   0.671  0.0097 -0.3376  0.3961
 8537W        W25385   3.392   9.045   0.418 -0.0363 -0.0812  0.0325
 8538W        W25386  15.147  12.635  12.853  0.0740 -0.0726  0.1961
 8539W        W25387  15.016   6.272   5.030  0.1691  0.0530 -0.3409
 8540W        W25388   4.728   5.422   4.784 -0.0280 -0.1300  0.0289
 8541W        W25389   3.992   4.983  15.904 -0.2125  0.3960 -0.0071
 8542W        W25390   3.016  16.275   3.114  0.1250 -0.0159  0.0865
 8543W        W25391   0.106   7.275  14.157  0.3469 -0.0327 -0.1475
 8544W        W25392  14.010   1.926  16.980  0.0900 -0.0405  0.1110
 8545W        W25393   8.659   4.963  13.496 -0.0304 -0.1055 -0.0530
 8546W        W25394  11.711   5.146   1.726 -0.0071 -0.2263  0.1348
 8547W        W25395  10.267  12.097  13.927  0.0563 -0.3645  0.1534
 8548W        W25396   3.485   3.523   0.261 -0.0315  0.1302  0.2470
 8549W        W25397  16.749   2.944   4.764  0.0164 -0.0334 -0.2760
 8550W        W25398   0.004   8.076  12.501 -0.2636 -0.1033  0.0010
 8551W        W25399  17.067   3.143   3.387  0.0893 -0.1453 -0.0919
 8552W        W25400  13.116   9.164   4.202  0.3251 -0.0701  0.4233
 8553W        W25401   3.584  12.754  13.276  0.2884 -0.1542 -0.0762
 8554W        W25402   2.165  11.226  15.707 -0.0653  0.0777  0.0115
 8555W        W25403   0.518   5.143  15.054 -0.1445 -0.0953  0.0419
 8556W        W25404  10.849   5.883  17.430 -0.3093  0.2594 -0.0067
 8557W        W25405   9.618   6.256  16.240  0.5399  0.1990  0.0332
 8558W        W25406   0.563   6.485   5.132 -0.1178 -0.0777  0.0490
 8559W        W25407   4.141   3.795  12.518 -0.2114  0.1017 -0.1829
 8560W        W25408  12.742   5.283  16.178 -0.0074  0.0559  0.0526
 8561W        W25409   8.379  15.659   2.925  0.3219  0.0335  0.2542
 8562W        W25410  12.943  16.034  12.217 -0.2400  0.0910  0.1926
 8563W        W25411   1.056  12.723  15.284  0.2687 -0.0886  0.0306
 8564W        W25412  16.275  12.121   1.778  0.3871  0.1549 -0.2539
 8565W        W25413   6.376  11.889  15.987 -0.3650  0.0974  0.0327
 8566W        W25414   0.164  12.616   1.136 -0.1052 -0.3480 -0.2077
 8567W        W25415  12.350   3.683   3.873 -0.0273 -0.0198 -0.2206
 8568W        W25416  15.514  16.123  16.592  0.1718 -0.1455 -0.4084
 8569W        W25417  13.484   0.477   1.046  0.0289 -0.2426  0.2738
 8570W        W25418  13.828  13.162  13.710  0.3934  0.3040 -0.0273
 8571W        W25419   0.769  11.856  13.710  0.1762 -0.0264 -0.2234
 8572W        W25420  10.396  11.142  13.984 -0.0321 -0.0728 -0.0909
 8573W        W25421  16.066  16.893   4.353  0.2977  0.1978  0.1469
 8574W        W25422  14.421   3.447   0.387  0.1308 -0.0474  0.1059
 8575W        W25423  15.147  16.487  16.149  0.3631  0.0002 -0.1109
 8576W        W25424   6.591  15.401   2.624  0.0421 -0.0778 -0.0110
 8577W        W25425  12.180  10.818   5.430 -0.1257  0.0491  0.1465
 8578W        W25426   5.268  10.342  16.089  0.1298 -0.0197  0.1770
 8579W        W25427   3.935  13.508   3.601  0.0418  0.1330  0.0463
 8580W        W25428   2.269   9.707  13.784 -0.1023 -0.2567  0.1395
 8581W        W25429  14.068   0.072  15.819 -0.0012  0.1607  0.1208
 8582W        W25430  15.928  11.407  16.809 -0.3135  0.0811 -0.1141
 8583W        W25431   9.587  13.476  16.851  0.1367 -0.0842  0.2978
 8584W        W25432   1.536  11.053   0.552  0.3423  0.3817  0.3418
 8585W        W25433   9.690   3.987  14.524 -0.1347  0.0691 -0.1058
 8586W        W25434  13.741   3.242   2.282  0.0339  0.1157  0.3649
 8587W        W25435  15.347   4.410  17.467 -0.3494  0.0015 -0.0781
 8588W        W25436   8.956   9.727  13.021  0.3071 -0.0246  0.1468
 8589W        W25437   9.100  14.754  12.149  0.0277  0.2719 -0.0249
 8590W        W25438  15.592  10.154  15.749  0.1851 -0.0229 -0.2408
 8591W        W25439   4.880   4.431   1.185 -0.0432  0.0929 -0.1631
 8592W        W25440  10.670   2.989  15.989 -0.0175 -0.0721  0.0439
 8593W        W25441   4.836   0.727   3.350 -0.0289 -0.0149  0.0084
 8594W        W25442   2.824  13.544   3.661 -0.2019 -0.2571 -0.2025
 8595W        W25443  11.183   6.243   1.891  0.1300  0.1390 -0.1877
 8596W        W25444  15.028  15.142   3.187 -0.0886 -0.0274  0.0235
 8597W        W25445  12.404   9.942   5.049  0.3505 -0.0544 -0.1969
 8598W        W25446   7.669   7.996  14.798 -0.1671  0.2050 -0.1268
 8599W        W25447   6.707  11.239  15.840 -0.2782 -0.0626 -0.4044
 8600W        W25448   1.726  14.084  16.390  0.0971  0.0870 -0.1119
 8601W        W25449   2.130  14.450  15.778  0.0693  0.2510 -0.3137
 8602W        W25450   8.053  13.077   1.333  0.1038 -0.0512 -0.0096
 8603W        W25451   7.054   9.032  14.611 -0.1522  0.0687 -0.1601
 8604W        W25452   8.355   5.173  16.638  0.1586  0.1690  0.0163
 8605W        W25453  10.586   2.635  16.352 -0.3128 -0.1198 -0.1398
 8606W        W25454   7.936   6.419   4.163 -0.0831  0.0716 -0.2960
 8607W        W25455  14.369   4.668   0.585  0.0243 -0.0136  0.0290
 8608W        W25456  16.346  16.240   1.073  0.0542 -0.0814  0.1920
 8609W        W25457  14.938   0.433  12.367  0.4790  0.0560 -0.2332
 8610W        W25458   5.928   5.899  17.489 -0.1760 -0.0747 -0.0120
 8611W        W25459   1.244  12.608  14.771 -0.0888 -0.3343  0.1171
 8612W        W25460   2.148  16.476  17.719 -0.3330 -0.0125 -0.2517
 8613W        W25461  16.516  16.128   3.981 -0.1024  0.0322  0.3537
 8614W        W25462  12.507   2.005  16.982 -0.2496  0.1019  0.0355
 8615W        W25463   4.697  13.643  16.572 -0.1789  0.3145 -0.0041
 8616W        W25464   1.719   1.946   2.157  0.0380 -0.0472  0.0078
 8617W        W25465  17.104   7.608  16.352  0.1107 -0.1618 -0.0482
 8618W        W25466  11.159   0.683  11.883 -0.0239  0.1571  0.3388
 8619W        W25467   1.545  14.953  16.057  0.1884  0.2168 -0.4407
 8620W        W25468  12.872  16.091  13.313 -0.0045  0.0215 -0.2590
 8621W        W25469   6.971   5.688  14.875  0.0834 -0.2132 -0.0144
 8622W        W25470  15.337  15.009   4.218 -0.3493  0.1238 -0.3339
 8623W        W25471   3.301  16.042  15.061 -0.0116  0.0920 -0.1228
 8624W        W25472  16.933   8.062   1.256 -0.1572 -0.1434  0.1024
 8625W        W25473   2.583  16.374   4.412 -0.0986  0.3100 -0.1752
 8626W        W25474   2.044   4.062   5.439  0.2101 -0.1651  0.0052
 8627W        W25475   0.691  13.594   1.888  0.0420  0.2820  0.0631
 8628W        W25476   1.956  16.551  15.521  0.1863 -0.0810  0.0951
 8629W        W25477   5.395   3.360   4.088  0.0564  0.0905 -0.3506
 8630W        W25478   2.599  17.062  12.997 -0.0936  0.0815  0.3884
 8631W        W25479   0.078   5.451  12.447 -0.1700  0.1275 -0.1992
 8632W        W25480   5.394   3.552   4.961 -0.0490  0.1866  0.0551
 8633W        W25481  15.368  10.376   1.397 -0.0231  0.4169  0.1329
 8634W        W25482   9.416   8.880  12.454 -0.1414 -0.0381  0.2766
 8635W        W25483   7.980  16.600   2.278 -0.0492 -0.0273  0.1308
 8636W        W25484   8.461  10.345  17.638 -0.1808 -0.0559 -0.1244
 8637W        W25485   6.217   7.772  13.163  0.0014  0.2043 -0.0335
 8638W        W25486   8.835   4.220  12.371 -0.0464  0.3548  0.1806
 8639W        W25487  16.337  11.747  16.595 -0.1584  0.0651 -0.0109
 8640W        W25488  11.695  12.135   1.877  0.1070 -0.0476 -0.2997
 8641W        W25489   5.288   1.554   1.669  0.2566  0.1023 -0.1542
 8642W        W25490   8.962  14.394  15.407  0.0401 -0.3614  0.1632
 8643W        W25491  12.915   6.188   1.286 -0.1191 -0.2279 -0.1139
 8644W        W25492   8.085   4.054  17.086  0.0619  0.0001  0.0382
 8645W        W25493  15.999   5.556  15.005 -0.1463  0.1634  0.1597
 8646W        W25494  15.717   2.307  16.127 -0.3165  0.2632  0.3994
 8647W        W25495   7.814   6.392   0.073  0.3481 -0.0444  0.0200
 8648W        W25496   3.743   7.121  14.190  0.0891  0.2270  0.2618
 8649W        W25497   9.956   1.447  16.166  0.1103 -0.0591  0.1495
 8650W        W25498   1.506  14.665  13.864 -0.2208 -0.0318  0.1400
 8651W        W25499  14.069  13.505   3.889  0.0561  0.1645  0.0796
 8652W        W25500  11.807  15.852  15.022  0.1016  0.0225  0.0097
 8653W        W25501  13.117  13.761  13.967 -0.1923  0.0424  0.0057
 8654W        W25502   9.707  14.889   6.442 -0.1059 -0.2731  0.1858
 8655W        W25503   2.432  15.524   2.096  0.0860  0.0644  0.2125
 8656W        W25504  13.634  13.286   0.735 -0.0168 -0.0402  0.2547
 8657W        W25505  14.970   0.046  15.564 -0.1939  0.1964 -0.1082
 8658W        W25506   9.564   0.330  17.188 -0.0597  0.0857  0.0392
 8659W        W25507  12.475   9.652  12.927 -0.1628  0.1120 -0.0442
 8660W        W25508   1.858   0.795   3.965  0.0049 -0.0500 -0.1716
 8661W        W25509   2.205   2.447  13.794  0.2931 -0.1978 -0.1785
 8662W        W25510   4.473  12.379  16.223  0.2291 -0.2893  0.1551
 8663W        W25511   8.796   5.934   0.097  0.3424  0.0107  0.0119
 8664W        W25512  13.156   9.490   0.309  0.2449  0.1668 -0.0240
 8665W        W25513  14.546   3.909  14.024 -0.1050  0.1115  0.0944
 8666W        W25514   5.137  15.344   3.910  0.2628 -0.0667 -0.4862
 8667W        W25515  12.228   2.616   3.112 -0.2247 -0.0648 -0.1577
 8668W        W25516   7.031  12.243  14.011 -0.0192  0.1183  0.2066
 8669W        W25517   0.054   6.500   0.105  0.0979  0.2481 -0.0986
 8670W        W25518  16.575   9.828  17.019  0.1146  0.2326  0.0578
 8671W        W25519   4.299  13.723  17.365 -0.0501  0.2677  0.1065
 8672W        W25520   9.405  15.488  12.564  0.1316  0.1312 -0.2545
 8673W        W25521   6.948   6.225   2.509  0.0804 -0.3098  0.0981
 8674W        W25522   9.513   5.696  13.382  0.0145  0.3056 -0.1622
 8675W        W25523  15.067  12.525   2.717  0.0616  0.0220  0.0534
 8676W        W25524   3.030   3.995   0.032 -0.2711 -0.1950 -0.1019
 8677W        W25525   2.833   5.613   2.597 -0.0958  0.0548 -0.0369
 8678W        W25526   9.539  14.417   6.229  0.2042 -0.0232  0.1762
 8679W        W25527  16.367   8.272   0.968  0.1923 -0.1083 -0.2090
 8680W        W25528  10.465   9.340   4.437 -0.2317  0.0404  0.2442
 8681W        W25529  13.464   5.686   3.192 -0.1621  0.1902  0.0270
 8682W        W25530   6.913   9.948  11.748 -0.0618  0.1611 -0.0419
 8683W        W25531  15.219  16.927  13.214 -0.2056 -0.1715  0.1758
 8684W        W25532   3.378   9.125   4.876  0.0833 -0.2299  0.1117
 8685W        W25533   2.346  10.003  17.492 -0.2847 -0.2073  0.1738
 8686W        W25534   0.788   7.821  16.884 -0.1632  0.0975 -0.3205
 8687W        W25535   8.250  15.861   5.041  0.0125 -0.3012  0.0963
 8688W        W25536   1.211   9.209   3.764  0.0126  0.1970  0.1728
 8689W        W25537  14.819   3.358  15.056  0.2233  0.2239 -0.0057
 8690W        W25538   1.825   7.184  14.052  0.0474 -0.0432 -0.1878
 8691W        W25539  12.835  15.463  13.477 -0.1803 -0.0769 -0.0666
 8692W        W25540  16.946   4.110  17.014  0.1185  0.1033  0.1696
 8693W        W25541   3.902   1.638   2.946 -0.1521  0.1156 -0.1612
 8694W        W25542  15.368   0.703   5.567 -0.1603  0.1987  0.1244
 8695W        W25543  11.166  10.784   2.734  0.3082 -0.0554 -0.0249
 8696W        W25544   1.615   7.863   4.001 -0.0528 -0.0250 -0.0307
 8697W        W25545   3.692   9.531  12.902 -0.2224 -0.4551  0.1229
 8698W        W25546   1.541   0.095  13.930  0.3955  0.0428  0.0193
 8699W        W25547   9.028   1.392  11.808 -0.0647 -0.0452  0.1487
 8700W        W25548  10.668  16.016   4.152 -0.2222  0.1273  0.0831
 8701W        W25549  15.339   3.780   4.945 -0.0501  0.4587 -0.0469
 8702W        W25550   8.225  14.300   3.177  0.0261  0.0166  0.1587
 8703W        W25551   0.933   1.326  17.748  0.2541 -0.3492  0.2976
 8704W        W25552   3.422  14.373   2.774 -0.0238 -0.2550 -0.1529
 8705W        W25553   0.844  16.075   1.552 -0.2008 -0.0046 -0.4483
 8706W        W25554  12.550  11.360  16.498 -0.1059  0.2221  0.0809
 8707W        W25555   7.647   9.264  17.006 -0.2509 -0.0609 -0.2899
 8708W        W25556   4.447   3.112   5.170 -0.2824  0.1454  0.0029
 8709W        W25557   4.538  12.854   1.273  0.1568 -0.0737 -0.0558
 8710W        W25558   8.992   7.321  15.411  0.3188 -0.2256  0.1482
 8711W        W25559  16.352  16.944  17.438  0.1940  0.2358  0.1025
 8712W        W25560  15.226   3.300   2.127 -0.1918  0.0118  0.1533
 8713W        W25561   9.026  16.216  13.306  0.0149  0.2080 -0.0521
 8714W        W25562   7.605  10.610   3.359 -0.0763  0.0139  0.1104
 8715W        W25563   6.535  13.422   5.039 -0.3962 -0.1087  0.0600
 8716W        W25564   1.022   4.421   2.342 -0.0645  0.2381  0.0630
 8717W        W25565   2.363   3.072   4.770 -0.2057  0.1716 -0.0298
 8718W        W25566   5.232  12.266  13.243  0.0262  0.0621  0.0639
 8719W        W25567  13.262   7.521  12.687  0.0784  0.1154 -0.0639
 8720W        W25568  16.819   7.277   2.793 -0.0126 -0.1043  0.1098
 8721W        W25569   4.653   2.990  15.494  0.2839  0.1128  0.0311
 8722W        W25570   5.655   0.244  14.651  0.0281 -0.1645 -0.0268
 8723W        W25571  12.386  13.348   1.733  0.0694  0.1169 -0.0466
 8724W        W25572   6.676   5.104  12.691  0.1264  0.2799  0.1513
 8725W        W25573  15.107  14.480  14.345  0.1072 -0.0751 -0.2203
 8726W        W25574   1.692   8.501  12.713 -0.0699  0.4639 -0.2158
 8727W        W25575  11.948  16.213  12.475 -0.0993  0.2376  0.0954
 8728W        W25576   8.282   4.818  13.085 -0.0155  0.1236 -0.1682
 8729W        W25577   0.271  11.584   2.644  0.0345 -0.0375 -0.0639
 8730W        W25578  12.938  11.139  17.180 -0.1048  0.1238  0.0930
 8731W        W25579  13.006   5.396   1.280  0.1254  0.0989  0.1505
 8732W        W25580   5.546   5.829   0.208 -0.1505  0.3882 -0.0731
 8733W        W25581   7.267   7.502  17.642 -0.1619 -0.0647  0.0350
 8734W        W25582  12.792   6.466  17.425 -0.3053  0.0124  0.1634
 8735W        W25583   9.843   4.791  17.440  0.1015 -0.0622  0.1079
 8736W        W25584  10.918   0.025  17.129 -0.2579 -0.0196 -0.2400
 8737W        W25585  15.626   9.204  15.904 -0.0593 -0.2202 -0.2762
 8738W        W25586  10.820  16.086   2.311  0.0485  0.1889  0.0374
 8739W        W25587   8.186   1.183   1.943 -0.2199 -0.1318  0.0689
 8740W        W25588  13.839  10.084   3.993 -0.3465 -0.1066  0.4692
 8741W        W25589   0.374   5.733   3.141 -0.1434 -0.1994  0.2028
 8742W        W25590  14.646   9.428   4.018  0.1575  0.1665  0.0037
 8743W        W25591  10.497  16.498   6.104 -0.1502  0.1917  0.2185
 8744W        W25592  11.303   6.646  12.115 -0.3943 -0.0147  0.0230
 8745W        W25593   0.178  16.276  17.100 -0.4211 -0.0275  0.1632
 8746W        W25594   2.413  14.218   4.721  0.1302 -0.0392  0.0577
 8747W        W25595   6.860  15.045  12.703  0.0775  0.1047 -0.3198
 8748W        W25596   2.106  15.633  14.582  0.3611 -0.2012  0.1105
 8749W        W25597   0.923   6.737   1.050 -0.0303 -0.3112  0.0311
 8750W        W25598   8.249  16.073  12.223  0.3887  0.3905 -0.0093
 8751W        W25599  12.185   3.143   3.299 -0.2849 -0.0614  0.0595
 8752W        W25600   6.549   9.829  15.613  0.1824 -0.0108 -0.2023
 8753W        W25601  16.063   2.067  15.190 -0.3015 -0.1812 -0.1141
 8754W        W25602   0.065   2.931  13.033 -0.2990 -0.2493 -0.5011
 8755W        W25603  10.413   4.406  16.949  0.2271  0.2252 -0.0024
 8756W        W25604   2.935   2.945   4.075 -0.2708  0.0206 -0.0368
 8757W        W25605   6.132  14.301   2.314  0.2388 -0.3458 -0.0546
 8758W        W25606   4.114   8.090  17.716 -0.0614  0.0521 -0.1564
 8759W        W25607   0.655   9.654   6.235  0.1699 -0.4222  0.1473
 8760W        W25608   1.618  15.504   5.429 -0.2447  0.1888  0.0650
 8761W        W25609  10.014   2.381  14.662  0.0336 -0.1914  0.0544
 8762W        W25610  10.563  14.297   1.997 -0.1756 -0.0479  0.0985
 8763W        W25611   9.295  11.386  16.560 -0.0594 -0.0910 -0.0743
 8764W        W25612  11.389   2.540  17.328 -0.2711  0.2944 -0.1238
 8765W        W25613  13.726   3.516   0.398 -0.1760  0.1802  0.0407
 8766W        W25614  11.144  13.537  12.618 -0.1128 -0.1501 -0.1004
 8767W        W25615   9.824   7.491  13.726 -0.1954  0.1407  0.0789
 8768W        W25616   5.183   2.095   3.591  0.2886 -0.0685  0.3328
 8769W        W25617   1.453   9.644   3.595  0.1674  0.1312  0.1681
 8770W        W25618  14.049  13.207  16.109 -0.1900 -0.1575  0.0351
 8771W        W25619   4.169  11.016   1.931  0.2783 -0.2788 -0.1098
 8772W        W25620  14.180   9.603   2.677 -0.1312 -0.1339  0.0971
 8773W        W25621  16.654  11.968  16.048  0.0766 -0.2272 -0.0791
 8774W        W25622  15.688   4.586  16.067 -0.1917  0.0748 -0.1393
 8775W        W25623   3.111  12.382  16.369 -0.2767  0.0620  0.1496
 8776W        W25624  14.696   3.113   3.880  0.0148 -0.0159 -0.0479
 8777W        W25625  15.497  11.774   1.417 -0.1013  0.1656 -0.2545
 8778W        W25626   7.432  15.150  12.716  0.0379 -0.2675  0.1630
 8779W        W25627   0.910   0.919  14.673 -0.3544 -0.1289  0.0208
 8780W        W25628   0.963   9.366  15.660 -0.1148 -0.0981  0.1829
 8781W        W25629   3.066   4.876  17.380  0.0945  0.0604  0.0063
 8782W        W25630  13.604  11.617  15.582 -0.3077 -0.0643 -0.1474
 8783W        W25631  15.617  16.571  15.863  0.1624 -0.0880  0.1292
 8784W        W25632   6.354   3.204  13.295 -0.2739 -0.0937  0.0237
 8785W        W25633  12.214   4.580  12.091  0.2450 -0.1714 -0.4826
 8786W        W25634   7.331   1.361   0.385 -0.1144  0.0817  0.0169
 8787W        W25635  16.975   9.046  12.850 -0.0795 -0.2131 -0.1179
 8788W        W25636  15.075   0.906   0.053 -0.1578  0.1291  0.1605
 8789W        W25637   3.349   3.548  16.042 -0.0865  0.0496  0.0877
 8790W        W25638  11.741   1.840   0.386  0.1094 -0.1215 -0.0435
 8791W        W25639   7.257   4.932   2.120  0.1067 -0.2610  0.0534
 8792W        W25640   3.704  14.437  17.312  0.1576 -0.1560  0.1878
 8793W        W25641   4.659   4.496   2.497  0.0965  0.1512  0.0342
 8794W        W25642   0.848  10.675   5.304  0.1216  0.0543 -0.1621
 8795W        W25643   3.104   0.932   2.744  0.1091 -0.1128  0.1984
 8796W        W25644   8.502  14.466  14.471 -0.0972  0.1072  0.0045
 8797W        W25645   0.465   0.955   2.446 -0.1908 -0.0410  0.0814
 8798W        W25646   0.631  14.288   5.352 -0.0385  0.2975 -0.0152
 8799W        W25647  13.779   1.993  15.613  0.2445 -0.2575 -0.1121
 8800W        W25648   7.070  12.302   2.382 -0.2810 -0.2524  0.2750
 8801W        W25649   6.461   2.906   0.573  0.1434  0.0546 -0.0399
 8802W        W25650   1.485   9.301  12.436  0.1054  0.1800 -0.3326
 8803W        W25651  10.195   2.755  13.109  0.2720 -0.0862 -0.0611
 8804W        W25652  13.834  15.275  13.853 -0.4425  0.5631 -0.2678
 8805W        W25653   2.160   0.835   0.960  0.2613  0.3160  0.2549
 8806W        W25654   5.757   4.181   4.264  0.2347 -0.0577  0.1885
 8807W        W25655   1.491   2.391  14.726  0.0232 -0.1627 -0.2539
 8808W        W25656   2.426  13.013   3.142  0.2463 -0.0747 -0.0376
 8809W        W25657   6.699   2.025  16.562  0.0157 -0.2084 -0.1579
 8810W        W25658  10.626   0.334   2.837  0.0641  0.3007 -0.0217
 8811W        W25659  15.711   5.373  12.810 -0.0727 -0.1892  0.1041
 8812W        W25660   4.840   0.291   1.346  0.1821  0.0111 -0.2585
 8813W        W25661  15.802   4.493   4.271 -0.3480  0.1079  0.0820
 8814W        W25662   4.833  14.424   1.585 -0.1190  0.3568 -0.1012
 8815W        W25663  10.469   2.522  12.706 -0.1268 -0.0888 -0.1691
 8816W        W25664   2.489   3.281  11.343  0.1043 -0.0301 -0.0518
 8817W        W25665   5.718  16.631   0.598 -0.0527 -0.0165  0.1224
 8818W        W25666   1.661  11.022  16.144  0.0997  0.0217  0.0928
 8819W        W25667  14.624  12.048   0.057 -0.0692 -0.2049  0.0105
 8820W        W25668   9.131   3.704  12.731 -0.1543  0.1535  0.1560
 8821W        W25669   2.373   5.348   5.708 -0.0237  0.0808  0.0727
 8822W        W25670  16.361   2.332   3.569  0.4403  0.3789  0.0799
 8823W        W25671  15.513  15.596  14.429  0.1214 -0.3210  0.1611
 8824W        W25672   1.084   3.071  17.604  0.0492  0.0397 -0.1586
 8825W        W25673   0.728  13.109  13.499 -0.4683 -0.2618 -0.2154
 8826W        W25674  12.942  16.684  16.469  0.2092  0.2699  0.2867
 8827W        W25675  11.283   5.949   4.916 -0.0497  0.2904  0.0181
 8828W        W25676  12.654  13.403   5.232  0.3019  0.1035 -0.0420
 8829W        W25677   1.219  10.426  13.601  0.1840  0.1734 -0.0177
 8830W        W25678  17.156   8.353  13.567  0.1034  0.0502 -0.0737
 8831W        W25679   0.606  13.926   2.305 -0.1047  0.0200  0.2449
 8832W        W25680   7.607  14.254  12.225 -0.0587 -0.2503 -0.0462
 8833W        W25681  14.608   3.520   4.720  0.1378  0.2177 -0.0207
 8834W        W25682   2.045  13.806   3.045 -0.3512 -0.1573  0.0180
 8835W        W25683  10.742  10.636   3.099 -0.2655 -0.0404  0.2299
 8836W        W25684  10.652  13.251  16.074 -0.3460  0.0249  0.1589
 8837W        W25685  16.858   5.844   0.784 -0.1832  0.1537  0.2118
 8838W        W25686  16.937  15.097   1.983  0.1557  0.1924  0.4303
 8839W        W25687  13.236  10.071   1.113  0.0199 -0.1789 -0.1379
 8840W        W25688   3.476  16.512  15.497  0.1309 -0.3004 -0.0052
 8841W        W25689  16.230   1.136   0.784 -0.0643  0.0353 -0.1994
 8842W        W25690  14.679   2.558  17.597 -0.0820  0.3172  0.0271
 8843W        W25691   7.634   2.030   3.515  0.0120  0.0093 -0.2990
 8844W        W25692   9.057  10.310  17.713  0.2852 -0.0613 -0.0467
 8845W        W25693   3.282  15.598   5.264  0.1423  0.0944 -0.1315
 8846W        W25694  16.836   6.292   2.603  0.2491  0.5709  0.2281
 8847W        W25695   8.528  15.293   2.267 -0.1715  0.0843  0.0381
 8848W        W25696  16.913   0.367   4.799  0.1695 -0.0253 -0.0298
 8849W        W25697   7.969  13.147  13.593 -0.2207  0.1687  0.1404
 8850W        W25698  17.090   6.599   1.190  0.0376  0.1037  0.5120
 8851W        W25699   0.995  16.346   5.587  0.0984  0.0791 -0.1557
 8852W        W25700   9.353   8.499   5.825  0.0130  0.1930  0.0210
 8853W        W25701   3.565   5.225  13.779 -0.0478 -0.3135 -0.1934
 8854W        W25702   6.237   8.530  16.591  0.0295 -0.2513  0.1201
 8855W        W25703   7.545  14.273   5.544 -0.2981  0.0188 -0.0803
 8856W        W25704   2.112  12.372  17.188 -0.1274 -0.1214  0.1840
 8857W        W25705   8.899  11.022  15.140  0.0337 -0.0067  0.1036
 8858W        W25706   0.253  14.337   4.041 -0.2067 -0.4088  0.0650
 8859W        W25707  14.512   1.800  15.928 -0.0629  0.4636  0.0863
 8860W        W25708   6.524   1.109  16.082  0.1538  0.1304  0.0506
 8861W        W25709   6.482  13.641  16.927  0.0325 -0.0088  0.2682
 8862W        W25710   0.423   2.475   0.849  0.0440 -0.1983  0.0171
 8863W        W25711  10.092   1.408  13.127  0.2546 -0.2834  0.3636
 8864W        W25712  16.042   9.300  13.389  0.2983  0.2694  0.0525
 8865W        W25713   3.310   3.709   5.226 -0.0191  0.0928 -0.2105
 8866W        W25714  14.891   8.202   3.856  0.0835 -0.1521  0.0725
 8867W        W25715   3.741   9.249  15.005 -0.1186 -0.4151  0.1342
 8868W        W25716   3.783  10.072  12.638 -0.1151 -0.0035  0.3500
 8869W        W25717   9.230  14.319  14.999 -0.4677  0.1205  0.2612
 8870W        W25718   5.246   8.669   0.756  0.1111 -0.0844  0.2065
 8871W        W25719   8.714   6.303   3.628 -0.4104  0.0545 -0.1436
 8872W        W25720  13.135   7.372   2.104  0.0041  0.1785 -0.2359
 8873W        W25721   2.987  15.020  13.188 -0.1923  0.3049 -0.2148
 8874W        W25722  12.931  12.289  13.368 -0.3652  0.0743 -0.1542
 8875W        W25723   8.288   4.477   2.934 -0.2293  0.2942 -0.0454
 8876W        W25724  15.969   1.068  12.779  0.2652  0.0351 -0.1952
 8877W        W25725  15.098  11.022   3.029 -0.0575 -0.0120  0.0059
 8878W        W25726   0.347   0.519   2.735 -0.2023  0.2419  0.0921
 8879W        W25727   2.852   0.735  17.624  0.0794  0.1985 -0.1395
 8880W        W25728   5.261   8.585  15.738  0.2852  0.2811  0.1401
 8881W        W25729  10.205   7.543  15.864  0.0201 -0.0252  0.0417
 8882W        W25730   2.921  12.773  16.598 -0.0050  0.1440 -0.1713
 8883W        W25731   0.435   9.358   1.256 -0.3578  0.1656 -0.2860
 8884W        W25732   2.775  14.596   1.233  0.1721 -0.1234  0.3977
 8885W        W25733  10.928  15.390  11.891  0.1125  0.1158 -0.0221
 8886W        W25734   3.666   2.425   2.420  0.0826 -0.1235 -0.0270
 8887W        W25735  15.425   4.617   2.741  0.6120  0.0996  0.0029
 8888W        W25736   7.896  15.930   2.804  0.0312 -0.0920  0.1579
 8889W        W25737  12.210   6.713  15.533 -0.2247 -0.0891 -0.0872
 8890W        W25738  13.709  11.960   4.583  0.0598  0.3759 -0.2816
 8891W        W25739   6.107  13.060   0.796 -0.3550  0.1210 -0.1549
 8892W        W25740  12.367   1.177  12.241  0.2869 -0.0551  0.1406
 8893W        W25741   6.853   0.232   0.358 -0.0782  0.4731  0.2101
 8894W        W25742  14.612  16.148  14.688 -0.2212 -0.1559  0.0196
 8895W        W25743   4.237  13.041  13.313  0.0895  0.0212 -0.1027
 8896W        W25744  11.323   2.309   0.442 -0.0462  0.0479 -0.0589
 8897W        W25745   2.836   7.016  12.507 -0.0539  0.2074 -0.0338
 8898W        W25746   1.729  13.802  11.667  0.0893  0.0542  0.2405
 8899W        W25747   5.118  15.660  14.374  0.0223 -0.1628 -0.0056
 8900W        W25748  13.699   0.796   5.587 -0.0429 -0.0187  0.0593
 8901W        W25749  15.602   0.156   2.322  0.1862  0.0317 -0.2382
 8902W        W25750  10.125   2.125   1.920  0.0282 -0.1334 -0.1514
 8903W        W25751   6.441   3.526  17.335 -0.0409 -0.0560  0.0203
 8904W        W25752   0.203   3.984  15.568  0.0274 -0.1867  0.1742
 8905W        W25753   7.558   6.771  16.461  0.0520 -0.0060  0.2738
 8906W        W25754   9.488  14.153   3.115 -0.5611 -0.0674  0.2880
 8907W        W25755  14.019  11.447  13.533  0.0449  0.0121  0.0354
 8908W        W25756   2.575   8.609   0.366 -0.0714 -0.2676  0.0295
 8909W        W25757   5.467   2.689   4.480  0.0539 -0.1694 -0.1448
 8910W        W25758   1.840  11.777   4.030  0.2238  0.0018  0.0633
 8911W        W25759   0.839  10.462   3.506 -0.1935 -0.1563 -0.4878
 8912W        W25760   8.348   6.745   4.246 -0.1017 -0.3224 -0.0104
 8913W        W25761   1.385   1.023  14.857 -0.1475  0.3341  0.0361
 8914W        W25762   4.800   6.458  13.673 -0.0813  0.2141 -0.1812
 8915W        W25763  12.847   0.365   3.483  0.0792  0.2263 -0.0347
 8916W        W25764  15.786   3.954  16.623  0.1378  0.1171 -0.5424
 8917W        W25765   2.934   9.638  13.066 -0.0779  0.1014  0.0904
 8918W        W25766  13.125  16.042   4.119  0.2929  0.2363 -0.1644
 8919W        W25767  11.352   1.461  11.652  0.0587 -0.1391  0.0708
 8920W        W25768   5.525  12.781   0.306 -0.0309  0.0967  0.1137
 8921W        W25769   2.142   8.835   4.568 -0.0862 -0.0015  0.1105
 8922W        W25770   0.186   3.742  12.488 -0.1008  0.2479  0.1486
 8923W        W25771   5.518   2.239  16.851 -0.0185 -0.0561  0.0139
 8924W        W25772  10.441  11.832   1.937 -0.0980 -0.1917 -0.1596
 8925W        W25773  10.206   8.862  15.328  0.1215 -0.1524  0.1130
 8926W        W25774  12.146  15.238   3.307  0.0909  0.1416  0.2173
 8927W        W25775  11.252  13.158  13.457 -0.0144  0.0134 -0.0375
 8928W        W25776   6.319  14.834  13.397  0.0837 -0.3106  0.1789
 8929W        W25777   4.808  15.940   0.622 -0.1344  0.3016 -0.2700
 8930W        W25778   4.088   6.674  15.932 -0.5538 -0.1228  0.0286
 8931W        W25779  16.620  12.652  15.276 -0.0994  0.0805 -0.2865
 8932W        W25780   2.084  11.717   2.896  0.1523  0.1750 -0.0669
 8933W        W25781   5.020   5.327   5.527  0.1750  0.2983 -0.2444
 8934W        W25782   1.514  11.277   5.858 -0.1613 -0.2165  0.2638
 8935W        W25783  13.236   8.845   4.526  0.1206 -0.3559  0.1162
 8936W        W25784   1.297   1.447   0.491  0.2222  0.0190 -0.2311
 8937W        W25785  16.149   9.874   4.709  0.1470  0.0203  0.0144
 8938W        W25786  16.672   2.482  14.668 -0.3854  0.1531 -0.2856
 8939W        W25787  16.295   0.572   3.447  0.4086  0.0380 -0.1917
 8940W        W25788  11.963  16.063  15.492 -0.0515  0.3661  0.2421
 8941W        W25789  11.393   2.492   1.848 -0.2289  0.0053 -0.1894
 8942W        W25790   6.376  10.813   4.379 -0.0075  0.1851  0.2847
 8943W        W25791   2.886   2.042   0.983  0.1423  0.1922  0.2587
 8944W        W25792   4.167   3.527  13.614  0.1466  0.4944  0.1546
 8945W        W25793  14.874  11.459  15.260  0.1138  0.0749 -0.2450
 8946W        W25794  15.309   3.480   0.816  0.1065  0.0874 -0.1765
 8947W        W25795   0.718   0.384   4.871  0.1879 -0.1548  0.0800
 8948W        W25796   0.215   2.064   4.419 -0.0320  0.1799  0.1715
 8949W        W25797   5.802   7.985   4.573 -0.1391  0.2639  0.3181
 8950W        W25798  10.170   7.553   4.483  0.1427 -0.1920  0.0582
 8951W        W25799   9.743   6.602   4.660  0.1192 -0.0005  0.1157
 8952W        W25800  13.907  10.655  16.514  0.2498 -0.3074 -0.0139
 8953W        W25801  15.905   6.250  16.094  0.0832  0.0733 -0.3242
 8954W        W25802   9.600   6.859  11.947  0.0236  0.0646 -0.0848
 8955W        W25803  13.539   7.275   1.907  0.1752  0.0109 -0.1538
 8956W        W25804   7.414  16.349   1.032 -0.0720  0.1132  0.1985
 8957W        W25805   6.558  13.848   5.367 -0.2603 -0.0872 -0.0979
 8958W        W25806  11.526   5.418   3.982  0.2488  0.0929 -0.0566
 8959W        W25807  14.273  14.836  15.073 -0.0600 -0.0714  0.0477
 8960W        W25808   2.839   8.329  13.947 -0.3185 -0.2151 -0.1120
 8961W        W25809   6.377   8.431  14.378  0.0279 -0.2366  0.0730
 8962W        W25810   0.476  15.280   3.014  0.0912 -0.0853  0.3349
 8963W        W25811   4.379  11.039   4.446 -0.0463 -0.2472  0.0750
 8964W        W25812   8.506   5.758  14.999  0.1021 -0.0786 -0.1460
 8965W        W25813   0.006  14.801   5.627 -0.1982 -0.1775 -0.0679
 8966W        W25814  12.171  14.109  11.579  0.0259  0.2201 -0.1269
 8967W        W25815   5.655   0.275  15.184  0.0806 -0.3397  0.0626
 8968W        W25816   6.020   6.583  11.471 -0.0360 -0.0138 -0.1132
 8969W        W25817   1.313  16.856  16.738 -0.1923 -0.1443  0.2252
 8970W        W25818   7.619  13.542  13.359 -0.1477  0.1280  0.2846
 8971W        W25819  16.744   1.954  16.441  0.2487  0.0258 -0.4229
 8972W        W25820   4.624   0.925  12.694 -0.2487 -0.0792 -0.3187
 8973W        W25821  16.026   3.052   0.858  0.0889 -0.1599  0.0517
 8974W        W25822   9.280   9.510   0.340 -0.1242 -0.2322 -0.2625
 8975W        W25823  13.697   1.570   5.013  0.0242 -0.1171 -0.1523
 8976W        W25824  16.807   6.344   5.329  0.0649  0.0358  0.0756
 8977W        W25825  15.512  15.482   1.160  0.1301 -0.2492 -0.1512
 8978W        W25826   7.508  11.017   5.336  0.0054  0.0309  0.3287
 8979W        W25827   7.131   3.271   5.516  0.0599 -0.0258  0.3585
 8980W        W25828   2.265   8.417   1.643 -0.0380  0.0361 -0.0552
 8981W        W25829  10.381   3.594  12.054  0.0023  0.0222  0.3259
 8982W        W25830   9.447   1.878  14.901  0.0431 -0.1548 -0.0580
 8983W        W25831   9.536   9.596  13.837  0.1383  0.2053  0.0667
 8984W        W25832  10.712   3.289  12.156  0.2205  0.1124  0.3409
 8985W        W25833   0.740  10.637   0.699 -0.3141  0.1010 -0.3832
 8986W        W25834   3.152  13.507   4.118 -0.2311 -0.1187  0.1403
 8987W        W25835  13.179   2.673   3.902  0.1332 -0.3031  0.0533
 8988W        W25836  14.961  13.099  14.644  0.0888 -0.1022 -0.1383
 8989W        W25837  16.919   3.074   5.514 -0.1011 -0.2272 -0.0687
 8990W        W25838  11.673   2.921   2.640  0.1928 -0.1142 -0.1457
 8991W        W25839   7.669   9.340   2.064  0.3213  0.0027  0.1241
 8992W        W25840   2.722   9.361  16.828 -0.1126  0.0799  0.0597
 8993W        W25841   8.613   4.102   0.721 -0.0494 -0.0784 -0.0169
 8994W        W25842  16.046   3.462   4.936 -0.0112 -0.0824  0.3147
 8995W        W25843   3.632  14.591  12.173 -0.0985  0.0945  0.1012
 8996W        W25844  14.792   7.935   3.262  0.0570 -0.0524 -0.0848
 8997W        W25845  15.640  10.701   2.061  0.1105 -0.2073 -0.2537
 8998W        W25846   7.448  10.698  16.399  0.1288 -0.2226 -0.0262
 8999W        W25847   6.089   1.866  12.555  0.1078 -0.0007  0.0016
 9000W        W25848   1.995  16.897  15.149  0.1577 -0.1208  0.1784
 9001W        W25849  12.805  13.997  13.044  0.0866  0.2290 -0.0235
 9002W        W25850   5.103   8.713  12.814  0.4779 -0.0371 -0.2436
 9003W        W25851  14.601   5.604   2.742  0.0046  0.0104 -0.3926
 9004W        W25852  15.357   4.910  13.450 -0.0517 -0.1729 -0.0520
 9005W        W25853  12.837   8.600   2.022  0.0445 -0.0521  0.4208
 9006W        W25854  16.359   5.200   3.875 -0.0835  0.0080 -0.0645
 9007W        W25855  11.729   0.566  13.768 -0.0402 -0.1366 -0.0155
 9008W        W25856   2.689   1.883   4.452  0.0120 -0.2711  0.0038
 9009W        W25857   1.816   0.728   2.517  0.0256 -0.1801 -0.0593
 9010W        W25858   3.964  15.027   0.128 -0.0488  0.1042  0.0901
 9011W        W25859  10.247  12.698   3.857  0.1655 -0.1279  0.1334
 9012W        W25860   5.097  10.349  15.475  0.0037 -0.2390 -0.1203
 9013W        W25861   4.620   7.916  12.791  0.1903 -0.0928  0.2765
 9014W        W25862  11.214   9.229   5.244 -0.1461 -0.3487  0.1201
 9015W        W25863   2.880  16.968   5.764  0.0579  0.0300  0.3356
 9016W        W25864   4.322  15.921   2.114  0.0311 -0.1857 -0.0032
 9017W        W25865  13.671   6.738  12.666  0.2515  0.3852  0.2196
 9018W        W25866   3.425   3.495  14.641 -0.0409 -0.0536  0.0255
 9019W        W25867  14.587   3.145   5.456  0.1057 -0.0966 -0.2521
 9020W        W25868   8.328   7.177  16.104  0.0292  0.3428  0.3922
 9021W        W25869  16.201   1.968   0.181 -0.0192  0.2610 -0.0632
 9022W        W25870   1.515  12.363   1.059  0.3406 -0.1755 -0.0554
 9023W        W25871   8.367   8.629   1.169 -0.1745 -0.1789  0.0908
 9024W        W25872   5.644   3.938  17.757 -0.2470  0.0725  0.0728
 9025W        W25873  14.860  11.921  15.050 -0.1171  0.0180  0.0695
 9026W        W25874  12.202   9.513  12.536  0.1033 -0.1904 -0.3726
 9027W        W25875  10.420   2.587   1.883  0.0260  0.1193  0.0221
 9028W        W25876   7.987   0.436   0.418  0.0598  0.1038 -0.0159
 9029W        W25877   2.313  12.329  13.490 -0.1433  0.2119 -0.3162
 9030W        W25878  12.959   5.180  15.674  0.1191  0.0788 -0.1044
 9031W        W25879  12.154  12.760   3.955  0.0414 -0.1972  0.2435
 9032W        W25880   7.058   9.204  16.081  0.1207  0.2020  0.0627
 9033W        W25881   7.593   5.668  17.729 -0.0746  0.0724 -0.1572
 9034W        W25882   9.505   4.405  16.538 -0.1927  0.2061 -0.0493
 9035W        W25883  16.384   8.788   4.736 -0.0380 -0.1305  0.0265
 9036W        W25884   4.628   6.157  11.948 -0.1154  0.2461 -0.0629
 9037W        W25885   1.143   8.358  15.141  0.0595 -0.1820  0.3062
 9038W        W25886  11.874   2.146  14.092 -0.2226 -0.2032 -0.2036
 9039W        W25887  12.189   4.967   2.815  0.0298 -0.0400  0.1653
 9040W        W25888  14.895   8.501   0.282 -0.1678  0.0938  0.1129
 9041W        W25889  15.689   8.063   6.722 -0.0815  0.0785 -0.2232
 9042W        W25890   6.490   9.023   0.016 -0.1789  0.0676 -0.1938
 9043W        W25891  12.654  10.139  16.218  0.0935  0.1006  0.0029
 9044W        W25892   0.477   0.868   4.672  0.1984 -0.0952  0.0028
 9045W        W25893   9.914   9.192   2.525  0.0078 -0.0212 -0.2011
 9046W        W25894   7.371  13.424   5.488  0.2372 -0.0809  0.1904
 9047W        W25895   8.522   8.884  15.706  0.3100 -0.0348  0.1648
 9048W        W25896  15.489   5.526  15.029 -0.2930  0.3255  0.2875
 9049W        W25897  12.621  12.766   2.930 -0.2339  0.1234 -0.1122
 9050W        W25898   1.800   0.116   3.506  0.0421  0.2840 -0.1036
 9051W        W25899  13.276   3.620   5.157 -0.2074 -0.0061 -0.0043
 9052W        W25900   4.583  14.350   4.166  0.0612 -0.2212  0.3644
 9053W        W25901   2.418   1.405   3.751 -0.3112  0.1038 -0.5300
 9054W        W25902   7.345   6.832  15.823  0.2836  0.3137  0.0028
 9055W        W25903  11.034   2.851   0.568 -0.4350  0.3325 -0.0574
 9056W        W25904  14.849  11.962   3.318 -0.1031  0.1402 -0.3155
 9057W        W25905  12.454   1.412   1.691  0.1836  0.0114 -0.1747
 9058W        W25906   5.033  16.655  14.815  0.0652  0.0445 -0.1731
 9059W        W25907   4.272  11.210  17.239  0.1522  0.2165 -0.1220
 9060W        W25908   9.536   8.212   3.663  0.1770 -0.2526 -0.0465
 9061W        W25909   9.737   4.616   3.747 -0.2522 -0.2700 -0.0996
 9062W        W25910  13.564   4.265  10.847  0.1993 -0.0907  0.0276
 9063W        W25911   1.714   0.307   1.750  0.2600 -0.0430 -0.2320
 9064W        W25912   1.042  14.115  14.562 -0.3498 -0.1734  0.2268
 9065W        W25913  16.765   5.785   5.263  0.0612  0.1136 -0.1219
 9066W        W25914   0.686  14.558   4.913  0.1057  0.1295 -0.1067
 9067W        W25915   6.097   6.201  17.114  0.0132 -0.0058 -0.1065
 9068W        W25916   8.847   1.650   2.198  0.4166  0.1325  0.2558
 9069W        W25917   8.539   3.325  17.650  0.1012  0.2529 -0.0335
 9070W        W25918   0.411   9.161  14.492  0.1020  0.0017  0.3823
 9071W        W25919   2.473  16.383   2.156 -0.1661 -0.1234  0.0840
 9072W        W25920   7.708  15.959  13.097  0.0241  0.0147  0.0839
 9073W        W25921  16.006  11.741   1.668  0.2659  0.0589 -0.2713
 9074W        W25922   0.108  12.084   5.962  0.4104 -0.0588  0.0217
 9075W        W25923  12.299   6.316  17.401 -0.0591 -0.1643 -0.2404
 9076W        W25924   3.813   6.766   1.628 -0.2139  0.1882  0.2176
 9077W        W25925   2.951   6.469  15.930 -0.0682  0.0190  0.0169
 9078W        W25926  16.727  16.296   6.049  0.0983  0.3220 -0.1883
 9079W        W25927   9.969  13.236  12.546 -0.1822  0.0261  0.1029
 9080W        W25928  11.338   1.469   0.371  0.2117  0.3850  0.1861
 9081W        W25929  13.825  16.257   1.914 -0.1068 -0.0298 -0.0780
 9082W        W25930   8.771   4.515  13.693 -0.0900  0.0767 -0.0143
 9083W        W25931  16.010   7.465  17.191  0.2007 -0.0288  0.2254
 9084W        W25932   8.472  16.745  15.564 -0.0531  0.2121 -0.0963
 9085W        W25933  14.147   3.307  11.621  0.0992  0.0950 -0.3344
 9086W        W25934   5.466  11.051   4.283  0.2516  0.2176 -0.1305
 9087W        W25935  10.315  10.864   0.945  0.0081  0.0607  0.0258
 9088W        W25936   5.755   0.721  16.869  0.0046 -0.1493 -0.1994
 9089W        W25937   2.536   6.980  13.579  0.2261  0.1932  0.1913
 9090W        W25938  11.204   5.737   1.742 -0.0541  0.0605 -0.0356
 9091W        W25939   0.061  15.345   3.325 -0.0019 -0.0425 -0.0246
 9092W        W25940   0.236   1.464   5.476  0.0417  0.0461  0.0875
 9093W        W25941   3.012  16.753   1.536  0.1870  0.1700  0.1149
 9094W        W25942  10.572   6.729   2.362  0.1427  0.0042 -0.0355
 9095W        W25943   1.169   2.020  12.535 -0.2284 -0.2152  0.0456
 9096W        W25944   6.460   3.603   4.722 -0.0865  0.0189 -0.1661
 9097W        W25945  12.866   0.616   0.940 -0.1008  0.0848  0.0140
 9098W        W25946  11.436  10.001   3.179  0.2116 -0.0078  0.1515
 9099W        W25947   4.079  12.314   5.804 -0.2819 -0.0143 -0.0538
 9100W        W25948  14.823   8.657   1.787 -0.0929  0.2162  0.1284
 9101W        W25949  12.693  10.231  13.637 -0.5227 -0.1449 -0.0218
 9102W        W25950  12.169   1.747  16.015 -0.3030 -0.1245 -0.1953
 9103W        W25951   1.999  16.619  16.018 -0.0316  0.0946 -0.0183
 9104W        W25952   5.310   9.573  14.392  0.2047 -0.1328  0.2852
 9105W        W25953  12.401   5.901  12.527 -0.3516 -0.2737 -0.1672
 9106W        W25954   7.131  14.300  17.489  0.0908  0.0173 -0.1102
 9107W        W25955  10.888   8.906   2.616  0.0101 -0.3851 -0.2179
 9108W        W25956  14.921   5.972  16.954 -0.4072 -0.1102 -0.2817
 9109W        W25957   0.549   9.888   1.763 -0.1338  0.3268  0.1811
 9110W        W25958   8.575   1.727   4.839  0.0527 -0.1478  0.2089
 9111W        W25959  13.942  14.549   5.432  0.1565 -0.0279 -0.1851
 9112W        W25960  16.990   5.342  15.100  0.1092 -0.0071 -0.1466
 9113W        W25961   1.933   4.413  15.617  0.0595 -0.0913  0.0358
 9114W        W25962   3.726  11.283  12.754 -0.2943  0.1313  0.0745
 9115W        W25963   2.818   4.993  16.457 -0.1302 -0.1670 -0.1855
 9116W        W25964  11.080   0.207  15.048 -0.0125 -0.0436  0.4727
 9117W        W25965  14.159   1.408   0.291 -0.1754  0.0161  0.1863
 9118W        W25966  11.951   0.653   1.229 -0.0328  0.2800  0.2415
 9119W        W25967   5.704  15.320   2.010  0.0518  0.0346  0.2404
 9120W        W25968  15.132  13.404   4.647 -0.2516 -0.3319  0.0678
 9121W        W25969   9.006   5.012  14.879 -0.1176 -0.0638  0.0962
 9122W        W25970   9.007   6.022  12.789 -0.0738 -0.0573  0.5324
 9123W        W25971  16.122   0.974   4.830 -0.0720  0.1127 -0.1658
 9124W        W25972   3.806   7.387  16.411  0.1085  0.1277 -0.0999
 9125W        W25973   2.215   8.227   0.375  0.5433 -0.0733  0.2381
 9126W        W25974   4.608  12.080  17.314 -0.1120  0.1867  0.0313
 9127W        W25975  10.007  15.135  16.032  0.0651  0.2812  0.0060
 9128W        W25976   8.363  12.651   2.208 -0.0442  0.1551 -0.0874
 9129W        W25977   8.794   4.358   4.324 -0.1468  0.2368  0.2963
 9130W        W25978  12.581  13.007   2.538  0.0132  0.1863  0.1304
 9131W        W25979   8.708   1.011   1.959  0.0847 -0.0084 -0.0436
 9132W        W25980  12.121   9.632   2.476 -0.1361 -0.2325  0.2280
 9133W        W25981   4.424   3.719  12.054  0.1517 -0.1424  0.2118
 9134W        W25982   4.601   0.902  15.864 -0.2803  0.0564 -0.2054
 9135W        W25983  14.399   2.306  13.593 -0.1182 -0.0904 -0.0473
 9136W        W25984   0.527   8.237   0.762  0.1902  0.3047  0.0139
 9137W        W25985   2.212  13.206  14.941 -0.0756 -0.1062  0.0694
 9138W        W25986   5.299   7.491  13.907 -0.2171 -0.1590  0.0177
 9139W        W25987   7.116   3.988  16.825  0.3519  0.3324 -0.0839
 9140W        W25988  14.053  13.391   2.716 -0.0015 -0.1082  0.2119
 9141W        W25989   8.560  17.159  11.885 -0.0082 -0.3008 -0.0341
 9142W        W25990   3.461  12.000  14.775 -0.0637 -0.0880  0.0755
 9143W        W25991  16.841   5.191   2.642  0.1699 -0.1552  0.4540
 9144W        W25992   6.756   2.589  16.035 -0.3166 -0.3329  0.1761
 9145W        W25993  14.562   5.749   1.913  0.1010 -0.1367  0.2022
 9146W        W25994   9.587  12.334  17.679 -0.0105  0.2052  0.1367
 9147W        W25995   5.170   9.368   0.154  0.0913 -0.1645  0.0010
 9148W        W25996   2.078   6.233   3.489  0.0246 -0.0765 -0.2141
 9149W        W25997   5.599   5.681   3.982 -0.2127 -0.0471  0.1149
 9150W        W25998   5.263  15.434  13.596  0.3123  0.2788 -0.1709
 9151W        W25999   3.041  11.503   1.550  0.1959 -0.2233  0.2269
 9152W        W26000  10.130   9.008   1.115  0.0917 -0.1445 -0.0450
 9153W        W26001   7.563   4.433   0.515  0.1095 -0.2646 -0.1063
 9154W        W26002   3.183  12.518  15.468 -0.0269  0.0595  0.0825
 9155W        W26003   2.562   5.673   4.088 -0.0389 -0.1706  0.1058
 9156W        W26004  10.749  16.324  17.659 -0.0824 -0.1211  0.0135
 9157W        W26005  11.447  10.103  13.354  0.1117  0.0289  0.1841
 9158W        W26006   7.029   8.071   5.202 -0.0312 -0.5447  0.4562
 9159W        W26007   4.441   2.739   4.810  0.3062 -0.2407 -0.0634
 9160W        W26008   9.893   8.782  16.900 -0.2103  0.0008  0.1038
 9161W        W26009  10.052  10.428   1.865 -0.0075 -0.1002  0.1625
 9162W        W26010   6.436   4.479   1.000  0.4919  0.2312 -0.0605
 9163W        W26011   1.610   8.223  12.285 -0.0889  0.2773  0.4127
 9164W        W26012   0.462   4.244  17.330 -0.0584  0.0465 -0.0364
 9165W        W26013  12.793  13.361  14.996  0.1220 -0.0548 -0.0623
 9166W        W26014  16.501  15.132   4.865  0.1446 -0.2109  0.0192
 9167W        W26015   1.372   6.810  14.648  0.2019 -0.1185  0.2264
 9168W        W26016   3.666   2.304  17.215  0.0579  0.1308  0.2804
 9169W        W26017  13.814   7.017  14.834 -0.2213  0.0335 -0.4577
 9170W        W26018   5.659   4.667   1.032  0.2923 -0.2266  0.6216
 9171W        W26019   1.270   6.182  15.980 -0.0190  0.1211  0.2458
 9172W        W26020   7.185  11.501   0.608 -0.0697  0.1516 -0.2225
 9173W        W26021  16.697  15.554  14.337  0.3060 -0.2293 -0.0139
 9174W        W26022  16.457   8.898   0.178 -0.2244  0.0254 -0.0743
 9175W        W26023  12.032   7.785   3.786  0.0808  0.1464  0.1923
 9176W        W26024  13.764   3.557   3.713 -0.1611 -0.3384  0.0622
 9177W        W26025   1.523   2.008   4.580 -0.0908  0.1434  0.0559
 9178W        W26026  11.599   1.512  14.248 -0.2435  0.1989  0.0827
 9179W        W26027   6.036   9.094   5.066  0.1176  0.0639 -0.3990
 9180W        W26028   7.149  10.303   1.971 -0.1545  0.0428  0.0362
 9181W        W26029   5.403   9.400  13.379 -0.1197  0.2627  0.0971
 9182W        W26030   9.546   6.945   2.092  0.1546  0.0005 -0.0732
 9183W        W26031   7.857  11.134  13.216 -0.0528 -0.3380 -0.1464
 9184W        W26032  15.964   9.068   1.689  0.2075 -0.2002 -0.2627
 9185W        W26033  12.574   8.277  14.490  0.1003  0.2116  0.3884
 9186W        W26034   9.036   9.608  14.114 -0.2237  0.3547  0.0518
 9187W        W26035   7.927   0.650  17.735  0.0827  0.2292 -0.2105
 9188W        W26036   6.550  10.978   2.450  0.2583  0.0452 -0.0816
 9189W        W26037   4.990   1.725   2.490  0.3162  0.0492 -0.0519
 9190W        W26038   0.918  17.085  14.693 -0.2113  0.0300  0.0509
 9191W        W26039   2.589   2.381  14.368 -0.3030 -0.0844 -0.2022
 9192W        W26040   6.008   4.256   2.548 -0.0192  0.2733  0.0940
 9193W        W26041   1.540   2.799  15.931  0.2572  0.3508 -0.0401
 9194W        W26042   3.297  10.032  17.415 -0.3087  0.0252  0.2148
 9195W        W26043   5.246   2.050  15.623 -0.0765  0.3201  0.0091
 9196W        W26044   2.092  14.645  14.758 -0.1237 -0.0652  0.0390
 9197W        W26045  13.241  12.736  17.688  0.0026  0.1666 -0.2648
 9198W        W26046   6.234   9.320  17.085  0.0690  0.1669 -0.3972
 9199W        W26047   1.713   8.773   0.973  0.0954 -0.1316 -0.0061
 9200W        W26048   9.408  16.372  14.998  0.1836 -0.1851 -0.1601
 9201W        W26049   2.453   4.689   2.383 -0.0876  0.0082  0.0926
 9202W        W26050  10.548   5.551  10.716  0.1251  0.2013 -0.1503
 9203W        W26051   3.899   3.120  16.828 -0.0305  0.0934  0.0627
 9204W        W26052   1.603   5.404  16.714 -0.2270  0.0649  0.1066
 9205W        W26053   0.927   0.860  14.141  0.1681 -0.0843  0.0104
 9206W        W26054  14.098   5.795   2.804 -0.2456 -0.0704  0.0293
 9207W        W26055  15.466   8.278   3.944 -0.2028  0.2267 -0.2176
 9208W        W26056   4.563   8.943  11.415  0.1846  0.1458  0.0229
 9209W        W26057  14.163   8.426   0.102  0.2144  0.0264  0.0614
 9210W        W26058   6.299  13.676   2.234 -0.0956  0.1391 -0.1673
 9211W        W26059  12.464   8.699  15.818  0.1330  0.3737 -0.0900
 9212W        W26060   7.071  15.074  16.899 -0.0993  0.1291  0.0936
 9213W        W26061  14.490   7.856   3.728  0.1107 -0.2692 -0.1719
 9214W        W26062   5.951  13.850   2.628  0.0058  0.1696  0.0765
 9215W        W26063  17.121   2.512   2.309 -0.2609 -0.3475 -0.0148
 9216W        W26064   5.160   4.529  14.785 -0.0934 -0.1613  0.1425
 9217W        W26065  16.774  17.083   1.988  0.2524 -0.1604 -0.5208
 9218W        W26066   4.960   0.259   2.350 -0.1054  0.3580  0.1217
 9219W        W26067   4.709  13.081  12.531 -0.0815 -0.1555 -0.2953
 9220W        W26068   8.766   2.048   2.984 -0.2672 -0.0184 -0.1124
 9221W        W26069   8.582   0.949  14.542 -0.1988 -0.1737  0.0562
 9222W        W26070   6.897   1.539   3.190 -0.1043 -0.0863 -0.2378
 9223W        W26071  17.013  15.437  13.460  0.0011 -0.0622 -0.1134
 9224W        W26072   2.930  10.510   1.509  0.3213 -0.2448 -0.1179
 9225W        W26073  16.568   2.343   3.133  0.1867  0.0896  0.1725
 9226W        W26074  15.252   0.864  15.035 -0.0333 -0.2646  0.1768
 9227W        W26075   5.188  13.285   5.888 -0.0056 -0.1795  0.2010
 9228W        W26076   4.680   0.850   0.862 -0.1219 -0.1486 -0.0080
 9229W        W26077  13.273  11.579  14.773 -0.1280 -0.0797 -0.0473
 9230W        W26078  13.153  16.381  17.289  0.1883  0.1052  0.1000
 9231W        W26079   2.590  16.333  17.465 -0.3933  0.1403 -0.3188
 9232W        W26080   8.118   5.956  15.294 -0.0421  0.1490  0.1298
 9233W        W26081  16.989   7.673   4.258  0.0705  0.1218 -0.3178
 9234W        W26082  10.522  12.856  11.279  0.1150 -0.0063  0.1388
 9235W        W26083  15.539  11.702  17.694 -0.2793 -0.0829  0.0476
 9236W        W26084  14.724   0.511  13.996 -0.0052  0.2960  0.0544
 9237W        W26085  11.165  16.894   5.663  0.1034  0.1330 -0.4448
 9238W        W26086   1.937   1.805  13.158 -0.0190  0.2030 -0.2840
 9239W        W26087  10.646   0.581   5.704  0.0326 -0.0966 -0.2935
 9240W        W26088  13.736   7.312  17.432 -0.2113  0.0636 -0.1111
 9241W        W26089   8.374   4.888   0.588 -0.2587 -0.3708 -0.0724
 9242W        W26090   7.505   7.126   2.203 -0.0738  0.0783 -0.1585
 9243W        W26091   6.545   3.983   4.343  0.2487 -0.1160  0.1237
 9244W        W26092  15.638   4.911  12.587  0.0384 -0.0244 -0.0835
 9245W        W26093   0.441   1.293  12.888  0.1572 -0.2577  0.1110
 9246W        W26094   9.289  13.319  14.760  0.2203 -0.0504  0.1004
 9247W        W26095  15.702   9.723  11.777 -0.0122 -0.0513  0.0217
 9248W        W26096  15.294   3.891  15.785 -0.0156 -0.2266 -0.0852
 9249W        W26097   3.569   0.825   1.452  0.3994  0.1308  0.1174
 9250W        W26098   7.270   1.884   4.484 -0.0188 -0.0036 -0.3294
 9251W        W26099   3.125   2.482   1.761  0.1042  0.0474  0.1348
 9252W        W26100   7.497   4.063   1.785 -0.0985  0.1092  0.1805
 9253W        W26101  16.494  16.334  15.632 -0.2493  0.0502 -0.2019
 9254W        W26102   1.193  15.119  17.318 -0.0873 -0.1072  0.1042
 9255W        W26103   1.521   2.514   4.563  0.1816 -0.1931 -0.2102
 9256W        W26104  11.344   7.313  15.967  0.2871 -0.0147 -0.2626
 9257W        W26105   5.365   4.012  14.797  0.2184  0.0319 -0.1268
 9258W        W26106   1.015   0.388   3.954  0.2450 -0.1156 -0.4409
 9259W        W26107  13.696  12.685  13.853 -0.1955  0.2565 -0.3993
 9260W        W26108  13.247   6.304  13.611  0.2822  0.1308  0.0624
 9261W        W26109   6.349  13.180  17.193  0.3139 -0.3088 -0.0948
 9262W        W26110  14.672   7.868   1.423  0.1790 -0.2732  0.0680
 9263W        W26111   0.366  16.862   4.569 -0.0896  0.1286  0.0285
 9264W        W26112  11.042   2.630   4.775  0.1679  0.1059  0.4041
 9265W        W26113  10.015   3.993  12.243  0.1782 -0.0437  0.1142
 9266W        W26114  13.843   1.929   3.549  0.4226  0.1905  0.0110
 9267W        W26115   6.158  13.237  13.643 -0.1068 -0.0809 -0.1404
 9268W        W26116  13.624   3.374   4.170  0.1790  0.0467 -0.1512
 9269W        W26117   3.661   8.455   1.813  0.2662 -0.1291  0.1708
 9270W        W26118  12.144   1.294  15.600  0.4314  0.1638  0.1227
 9271W        W26119   5.504  10.439  12.885 -0.0720 -0.1174  0.0156
 9272W        W26120   5.048  14.797   3.291 -0.3741 -0.1544  0.2212
 9273W        W26121  12.272   4.005   5.173  0.3759 -0.1173 -0.0245
 9274W        W26122   1.601   8.942   1.833 -0.1905 -0.2790 -0.0616
 9275W        W26123  13.200   6.173  16.035  0.0094  0.1509 -0.0915
 9276W        W26124   2.662   0.031   1.680 -0.2577  0.0193  0.3932
 9277W        W26125   5.303   1.021  16.621 -0.1036 -0.1002 -0.0769
 9278W        W26126   3.707  11.861  17.328  0.2336  0.0014  0.0094
 9279W        W26127   3.367   8.278  12.631  0.2531 -0.0528  0.0623
 9280W        W26128   6.826   8.568  17.217 -0.1971  0.3559  0.2552
 9281W        W26129  11.509   8.792  14.227  0.3675  0.0265  0.4146
 9282W        W26130   7.470   2.302   2.980  0.1410  0.0660 -0.1238
 9283W        W26131   4.619  10.623   1.195  0.2183 -0.0521 -0.0817
 9284W        W26132  10.266  12.739  17.403 -0.2736  0.2291 -0.0387
 9285W        W26133   4.016  14.965  13.110 -0.3135  0.0292  0.2673
 9286W        W26134   0.679   3.676  13.354  0.0941  0.1705 -0.0770
 9287W        W26135  10.785  17.040   4.290 -0.0398 -0.2359 -0.0410
 9288W        W26136   9.404   6.666  12.469 -0.2677  0.0089 -0.0173
 9289W        W26137  10.489  11.923  15.320 -0.0817 -0.0654  0.2608
 9290W        W26138   0.065   9.325   2.575  0.1949  0.0203 -0.0195
 9291W        W26139   0.762  10.542   4.607 -0.1020 -0.0781  0.1052
 9292W        W26140   0.493   0.869  12.686 -0.0899 -0.1307 -0.0091
 9293W        W26141   8.404  16.235  17.514 -0.3235 -0.2535  0.1283
 9294W        W26142  14.219   8.411  13.001  0.2079  0.2167  0.0826
 9295W        W26143   1.231   9.036   5.286 -0.0404  0.0483 -0.1387
 9296W        W26144   7.931   6.596   3.440 -0.1111  0.0999  0.4588
 9297W        W26145   4.112  12.805  14.448  0.4187  0.3969  0.2270
 9298W        W26146  11.653   6.916  13.468  0.1363  0.0335 -0.2505
 9299W        W26147   2.816   4.433   0.232 -0.1234 -0.2253  0.1004
 9300W        W26148  17.013   2.132   1.943 -0.0225 -0.0263 -0.0564
 9301W        W26149   8.818  12.603  15.130 -0.0737 -0.1101  0.1106
 9302W        W26150  13.055   0.290  13.980 -0.1997 -0.0366  0.1355
 9303W        W26151   6.317   5.054  17.608 -0.2477  0.2913 -0.0269
 9304W        W26152   1.036   6.815   0.578  0.1791  0.1261 -0.1665
 9305W        W26153   7.236   0.407   0.642 -0.0269  0.1527  0.1860
 9306W        W26154  16.193  15.056  12.884  0.2116 -0.1508  0.0886
 9307W        W26155   6.666   3.634   1.938 -0.0420  0.0680 -0.0549
 9308W        W26156  14.782  11.268  13.885  0.0828  0.0523 -0.1928
 9309W        W26157   3.936  11.539  14.681  0.1166  0.6161  0.0098
 9310W        W26158  13.401  10.322  10.988 -0.1439  0.3521 -0.1167
 9311W        W26159   8.925   0.757  13.351 -0.2766  0.3006 -0.0927
 9312W        W26160  12.510  15.193   3.692 -0.0538 -0.1324  0.2467
 9313W        W26161   6.059   8.571  12.190  0.0720 -0.1508 -0.0236
 9314W        W26162   5.914   8.672   3.432  0.0095  0.0023 -0.1883
 9315W        W26163   2.376   9.655   4.033  0.0957 -0.0619 -0.0793
 9316W        W26164   1.039   6.407   2.892  0.0763 -0.0883 -0.0220
 9317W        W26165   2.503   1.832   5.311 -0.2213  0.3650  0.1345
 9318W        W26166  16.089  17.143   5.108  0.0838 -0.1237  0.0553
 9319W        W26167   8.078   6.687   2.874  0.0431  0.1692  0.2146
 9320W        W26168   4.094   8.072  15.916  0.1986  0.0782  0.2345
 9321W        W26169   7.660   0.013   4.473  0.0890 -0.0352  0.0080
 9322W        W26170   5.642  10.236  16.394 -0.1939  0.0469  0.0124
 9323W        W26171   9.111   5.953  14.362 -0.3848  0.0777  0.0575
 9324W        W26172  12.406   0.801   4.712  0.2043  0.1374 -0.0957
 9325W        W26173   9.283  10.826  17.488  0.4758  0.0356 -0.2240
 9326W        W26174  13.332  11.503  16.541 -0.4791  0.1803 -0.2090
 9327W        W26175   3.768   1.058  13.809  0.0141  0.0927  0.0584
 9328W        W26176  14.317  15.576  12.592  0.0837 -0.2068 -0.4064
 9329W        W26177  15.473  14.533   0.128  0.0627  0.0242 -0.2217
 9330W        W26178   7.983   8.706   3.409 -0.0642  0.0194 -0.5880
 9331W        W26179   3.250   6.096  17.688  0.1816 -0.1093  0.0777
 9332W        W26180   9.277  11.603  14.397 -0.2079  0.2682  0.0719
 9333W        W26181   5.082   7.468   4.163  0.0207 -0.2699 -0.0693
 9334W        W26182   2.369  11.580   3.900 -0.1012 -0.0333 -0.0671
 9335W        W26183   2.283   2.555   4.898  0.1578 -0.2885  0.0346
 9336W        W26184   6.741  12.099  14.432  0.1335  0.2862 -0.0199
 9337W        W26185   5.597   7.079   5.085  0.1292 -0.1776 -0.1450
 9338W        W26186  11.318   2.027   2.462  0.1420 -0.1548 -0.1607
 9339W        W26187  11.418  14.324  12.387  0.1438  0.1314 -0.4439
 9340W        W26188  10.207   5.120  12.098 -0.2393  0.1400  0.2333
 9341W        W26189  16.101  11.005   5.390 -0.1459 -0.1032  0.1802
 9342W        W26190  17.126   5.836  15.187  0.2194 -0.0208 -0.1176
 9343W        W26191   5.352   3.615  12.446  0.2180  0.0165  0.2291
 9344W        W26192   4.108   9.958  14.528 -0.0268  0.2509 -0.0373
 9345W        W26193  16.496  13.010  16.164 -0.2628 -0.0092 -0.0229
 9346W        W26194  11.022   5.153  16.042  0.1906  0.0499 -0.1150
 9347W        W26195  12.643   5.920   4.450 -0.0741  0.1437  0.1228
 9348W        W26196  10.881   8.309  15.757 -0.1378 -0.1528  0.3116
 9349W        W26197  13.693  15.878  14.620 -0.0210 -0.1829  0.3009
 9350W        W26198  13.257  14.794  12.520 -0.0127 -0.0272  0.2618
 9351W        W26199   1.502   5.053   3.056 -0.1783 -0.3601 -0.1137
 9352W        W26200  15.632   1.735   4.898  0.1521 -0.2300 -0.1256
 9353W        W26201  11.898   7.604  15.449 -0.0021  0.2570  0.0756
 9354W        W26202   6.913   5.791   0.430 -0.1493  0.0290  0.1079
 9355W        W26203   5.163   5.523   4.156  0.0160  0.2602 -0.3281
 9356W        W26204   6.703  13.331  12.898  0.1501  0.0396 -0.0546
 9357W        W26205   4.349  13.629  14.232  0.0617 -0.1091 -0.1880
 9358W        W26206   2.712   0.434   0.262  0.2628 -0.0106 -0.3003
 9359W        W26207  15.271  10.121  13.972  0.1454 -0.1774  0.1492
 9360W        W26208   7.089   3.078   3.015  0.0365  0.0938  0.1960
 9361W        W26209   0.949  14.403   3.553  0.0941 -0.2041 -0.2149
 9362W        W26210   2.862   2.341  15.459  0.0926 -0.1494  0.1043
 9363W        W26211  10.385  13.885   3.623 -0.0866 -0.1036  0.0729
 9364W        W26212   8.224   1.515  13.329 -0.0218 -0.0219 -0.1745
 9365W        W26213   6.471   4.636   4.846  0.0693 -0.1355  0.0981
 9366W        W26214  13.408   1.110  16.217 -0.1264  0.0292 -0.0421
 9367W        W26215  15.773  12.493  17.373 -0.2696 -0.2475 -0.4571
 9368W        W26216  10.736   5.539   1.778 -0.0805  0.1155 -0.2264
 9369W        W26217   7.100  13.912   2.527  0.0071  0.0882  0.0472
 9370W        W26218  14.173   0.710   3.432 -0.0599 -0.1522 -0.0083
 9371W        W26219  14.359   4.395  15.665  0.2578  0.0677 -0.1088
 9372W        W26220   8.514  12.052   2.650 -0.1018 -0.3252  0.0192
 9373W        W26221   8.291   1.745  15.752  0.0134 -0.1689 -0.1763
 9374W        W26222  10.278   0.215   4.989  0.3646  0.2381  0.3398
 9375W        W26223  14.112   2.205  16.558  0.0125 -0.2889  0.0224
 9376W        W26224   7.810  10.317   2.947  0.0302  0.1310 -0.0951
 9377W        W26225   9.076  13.134   0.744  0.0366 -0.1674  0.2610
 9378W        W26226  14.293  13.641   4.330 -0.0470  0.1298  0.1508
 9379W        W26227  16.263   5.836  14.662 -0.2446  0.0205 -0.3717
 9380W        W26228   2.540   6.477  15.568  0.1574  0.0351  0.0103
 9381W        W26229   7.883  14.640   3.265  0.2061  0.1996 -0.0354
 9382W        W26230   8.869  12.110  15.294  0.1993  0.3903 -0.1609
 9383W        W26231   9.572  12.463  15.880  0.0829 -0.1605 -0.1377
 9384W        W26232  11.977  16.207   2.406 -0.0097 -0.1270 -0.0701
 9385W        W26233   9.572   7.936  12.371  0.2072  0.1080 -0.0618
 9386W        W26234   3.975  13.836   5.453 -0.0432  0.0386  0.0565
 9387W        W26235  10.031   4.809   1.100  0.1673  0.1342 -0.1757
 9388W        W26236   0.087   2.426  15.844 -0.0249  0.0727  0.1895
 9389W        W26237   2.319  10.841   5.393 -0.4221  0.3486 -0.0752
 9390W        W26238   6.350   7.020  12.426 -0.0371  0.4554 -0.3488
 9391W        W26239  12.638  15.623  17.438  0.2487  0.1758 -0.2999
 9392W        W26240  14.673   5.089   2.722  0.1711  0.1829  0.0402
 9393W        W26241   1.219  16.710   3.852 -0.1810 -0.0677  0.3102
 9394W        W26242   2.693  13.240   5.714  0.0795  0.2311 -0.0583
 9395W        W26243   5.022   6.861   0.117  0.1228  0.2058 -0.2246
 9396W        W26244   9.438  15.015   3.383 -0.4521  0.0114 -0.2623
 9397W        W26245  10.492  12.922  15.630  0.3041  0.3572 -0.1357
 9398W        W26246  10.043   7.259   3.028 -0.3316  0.0670  0.1096
 9399W        W26247  13.907   2.269   5.722 -0.3066  0.1397  0.0465
 9400W        W26248  11.505   1.421   4.827  0.0207 -0.0973  0.2014
 9401W        W26249   1.398  12.940   5.716  0.4613  0.3846 -0.4224
 9402W        W26250   8.861  16.256  17.402 -0.3614 -0.0574  0.2866
 9403W        W26251  14.265   7.532  15.686 -0.0374  0.1931 -0.0114
 9404W        W26252   0.460   2.146  16.048 -0.1484  0.1103  0.2082
 9405W        W26253   2.499  13.603   4.858 -0.0589 -0.2839 -0.1359
 9406W        W26254  12.367   0.841   0.994  0.1697 -0.2677 -0.0681
 9407W        W26255   1.543   9.816   6.016  0.2446  0.0183 -0.1165
 9408W        W26256   3.268   3.792   1.983 -0.0240  0.0994  0.2770
 9409W        W26257  10.671   0.673   2.451 -0.1942 -0.1763  0.1868
 9410W        W26258   3.972  12.042  13.019  0.0077  0.1958 -0.1417
 9411W        W26259  12.751   1.242  17.254  0.1288  0.0210  0.1492
 9412W        W26260  15.192   6.558   0.354  0.0793 -0.2396 -0.0012
 9413W        W26261  15.338  11.745  13.074  0.0176 -0.5248 -0.1624
 9414W        W26262   4.526   0.741   4.667  0.1435 -0.1318  0.0751
 9415W        W26263   7.262  15.983   4.003  0.0579 -0.1677  0.0890
 9416W        W26264   6.150   6.334  14.532 -0.0760 -0.2397 -0.1707
 9417W        W26265  10.019   5.195  13.873 -0.0454 -0.4014 -0.1519
 9418W        W26266   0.536  14.507  12.066 -0.1100 -0.0048  0.1751
 9419W        W26267   5.693  16.272  15.064  0.1454 -0.2140 -0.0468
 9420W        W26268   9.057   6.462  17.104  0.5022  0.1965  0.0089
 9421W        W26269  15.529  12.633   5.672 -0.1066 -0.0297 -0.0366
 9422W        W26270   3.036   2.774  12.439 -0.2812  0.1522 -0.1281
 9423W        W26271   7.307   2.249  17.350  0.3330  0.0740  0.0685
 9424W        W26272   9.837  14.479   3.211  0.1304  0.2801 -0.2799
 9425W        W26273   9.583  11.343  13.221 -0.1485 -0.0346 -0.0965
 9426W        W26274  15.354  13.363   5.670 -0.2416 -0.0821 -0.0165
 9427W        W26275  15.466  11.757   5.829  0.1020 -0.1110 -0.0695
 9428W        W26276   6.804  16.173   1.957  0.0514 -0.1229  0.2001
 9429W        W26277  13.619   2.248   0.876  0.0839  0.0864  0.1358
 9430W        W26278   4.354  16.781  15.337 -0.0735  0.0792 -0.0659
 9431W        W26279   2.653   4.311   3.985  0.2499 -0.0040  0.5652
 9432W        W26280   9.570   3.484  11.606 -0.2963 -0.3614  0.3223
 9433W        W26281   1.830   1.082  13.211 -0.4406 -0.0640 -0.0624
 9434W        W26282   1.915  15.560  15.084  0.1275  0.1350  0.1027
 9435W        W26283   7.768   4.002   0.925 -0.1833 -0.1054  0.2063
 9436W        W26284   7.267  11.730   4.619  0.1736 -0.0969 -0.0137
 9437W        W26285   3.585   9.613  17.327  0.0280  0.0548  0.0159
 9438W        W26286   2.247  14.187  15.008 -0.0315  0.2567 -0.1929
 9439W        W26287   1.738   0.740   1.998 -0.1734 -0.0090  0.1383
 9440W        W26288   4.782  11.744   1.540 -0.0023  0.1834  0.0060
 9441W        W26289  12.678  16.166  14.608 -0.2563  0.1755  0.1418
 9442W        W26290   9.765  15.052  12.573 -0.3531 -0.0697  0.1479
 9443W        W26291  16.340   3.474  14.806 -0.0057  0.2709 -0.1339
 9444W        W26292   4.296   6.972  11.991  0.0779  0.1271  0.3933
 9445W        W26293  13.178  11.955   5.630 -0.0984  0.2797  0.0656
 9446W        W26294  16.510  14.266  17.700  0.5147 -0.0626  0.1689
 9447W        W26295  15.113   7.910   5.063 -0.0810 -0.0074  0.2038
 9448W        W26296   7.388  12.960   3.334 -0.0667 -0.0179 -0.3302
 9449W        W26297  14.376   5.457  15.518  0.4493 -0.0765  0.0871
 9450W        W26298   6.565  12.357  15.911  0.1568  0.2468  0.1040
 9451W        W26299  14.140  13.676  16.120 -0.0729 -0.0527 -0.0510
 9452W        W26300  12.240   3.109  16.380 -0.1069  0.1651 -0.0106
 9453W        W26301   8.519  14.271  13.346  0.1071 -0.0627 -0.2087
 9454W        W26302   5.867   2.477   2.538 -0.5106  0.0828 -0.1847
 9455W        W26303   9.547   5.353   1.716 -0.1417 -0.1335  0.1605
 9456W        W26304   7.603   3.454  15.158  0.1482  0.1579  0.2039
 9457W        W26305   0.457   6.801   1.261 -0.2578  0.0397 -0.0526
 9458W        W26306  10.784   1.912   4.396  0.0285 -0.1444  0.0677
 9459W        W26307  15.060   8.846  14.383 -0.3804  0.0795 -0.2105
 9460W        W26308  10.891  12.363   0.402 -0.0709  0.1244  0.1501
 9461W        W26309  15.036  15.437   4.387 -0.0776  0.0235  0.1855
 9462W        W26310   9.171  10.213  13.683  0.0318 -0.0662 -0.0194
 9463W        W26311  15.641  16.194  15.515 -0.0905  0.2984  0.0546
 9464W        W26312   0.057   2.577   1.750 -0.0948  0.1700  0.2439
 9465W        W26313   0.342   7.551  14.581  0.0736 -0.1257  0.1200
 9466W        W26314   5.984   4.601  16.307 -0.1999 -0.1353 -0.0217
 9467W        W26315   2.895  13.530   4.550  0.0079  0.0953 -0.0997
 9468W        W26316  16.356  14.108  16.748 -0.0682 -0.0504  0.2101
 9469W        W26317  14.366  15.118  11.943 -0.1285  0.2025  0.1982
 9470W        W26318   5.985  16.070   3.972  0.1734 -0.0838 -0.1050
 9471W        W26319   2.688   8.675   1.673 -0.0628 -0.0139  0.0145
 9472W        W26320   3.448  12.936  12.860  0.0824  0.0055  0.3860
 9473W        W26321   7.458   5.105   1.649  0.1761 -0.2723  0.2481
 9474W        W26322  14.247  14.514  16.713  0.0935  0.1126 -0.1454
 9475W        W26323   7.982   5.843   1.228  0.1379  0.3806 -0.1660
 9476W        W26324  12.466   4.745   3.682  0.2074  0.0002 -0.1923
 9477W        W26325   7.364   4.475  13.397  0.2535 -0.5552  0.2507
 9478W        W26326  12.724   0.014  13.715 -0.2660  0.1162 -0.0950
 9479W        W26327   0.917  10.878  14.469 -0.3105  0.1514 -0.0981
 9480W        W26328   9.350   4.888   1.825  0.1338 -0.0663  0.1317
 9481W        W26329  13.328   0.329  14.989 -0.2279 -0.0452 -0.1040
 9482W        W26330   4.249   1.297   2.173  0.1151 -0.2407 -0.1536
 9483W        W26331  11.521   2.184   4.323  0.0173  0.1264  0.0129
 9484W        W26332  10.984   6.898  16.233  0.0653 -0.1777 -0.3012
 9485W        W26333  15.091  13.751   3.242  0.1711  0.1832  0.0927
 9486W        W26334  11.375  15.119  17.443 -0.0227 -0.0166 -0.2094
 9487W        W26335   0.503  16.215  15.856 -0.3154  0.2459 -0.0750
 9488W        W26336   3.691   9.354   2.946 -0.1664 -0.2422 -0.2474
 9489W        W26337  10.550  16.381  12.627 -0.0866  0.1163  0.2844
 9490W        W26338  15.068  15.929  13.727 -0.1550  0.1816  0.1979
 9491W        W26339   8.292  16.413   0.608  0.2401 -0.1882 -0.1478
 9492W        W26340  13.154   4.849   0.624  0.1232 -0.0277  0.0378
 9493W        W26341  15.923   2.863   1.336 -0.2983 -0.0820 -0.0023
 9494W        W26342  15.219   0.214   2.621 -0.1295  0.0335  0.0061
 9495W        W26343  15.917   1.792  17.280  0.1056  0.0169 -0.2882
 9496W        W26344  16.409  15.728   1.120  0.2485 -0.0603 -0.1454
 9497W        W26345   8.917   2.578   3.522 -0.2974  0.0815  0.0557
 9498W        W26346  12.422  12.331  13.092  0.0769  0.2161 -0.0767
 9499W        W26347  10.692   1.579  12.335  0.1183 -0.0047 -0.1321
 9500W        W26348  15.929   2.319   1.181 -0.2175  0.1457 -0.0266
 9501W        W26349   1.439   9.792  14.345 -0.0669 -0.0445 -0.1026
 9502W        W26350   0.425  15.130   5.066 -0.2338 -0.1237 -0.0730
 9503W        W26351  11.367  10.493   3.207 -0.0650 -0.1839 -0.1739
 9504W        W26352   7.257  14.706  12.747  0.0477 -0.3270 -0.0945
 9505W        W26353   9.808  14.369   2.290 -0.2487 -0.2113 -0.2550
 9506W        W26354  15.315  12.228   4.221  0.0146 -0.3593  0.0576
 9507W        W26355  13.545   0.427  12.584  0.0920  0.1032 -0.0473
 9508W        W26356  11.015   3.836   3.825  0.1277  0.0648 -0.1988
 9509W        W26357   1.407   9.216  13.001 -0.1957  0.0005 -0.3927
 9510W        W26358   7.655   0.714   1.631 -0.1108  0.2822 -0.2931
 9511W        W26359  14.265  14.606   0.241 -0.0000 -0.2589  0.1020
 9512W        W26360   8.539   2.503   2.666  0.1048 -0.0627 -0.1744
 9513W        W26361   2.990  16.834   5.145 -0.2060 -0.2061 -0.0179
 9514W        W26362  11.845   3.613   2.134 -0.0050 -0.2524  0.2505
 9515W        W26363   0.095  15.816   1.418 -0.0037  0.1256  0.0415
 9516W        W26364   2.445   5.381   1.816  0.2343 -0.3997 -0.1073
 9517W        W26365  10.953  16.507   3.372  0.1246 -0.0688 -0.1318
 9518W        W26366   1.841   6.236  14.918 -0.2158 -0.0773 -0.2390
 9519W        W26367  14.043   7.279   3.211 -0.0063 -0.0649  0.0856
 9520W        W26368  14.800   8.489  13.126 -0.1299 -0.0445  0.2911
 9521W        W26369   6.128  15.501   4.638  0.0315  0.0769  0.1169
 9522W        W26370   7.928   9.972   4.470  0.1584  0.2351 -0.1795
 9523W        W26371  12.288   1.113   0.550  0.0665  0.0803 -0.2386
 9524W        W26372   8.667  15.668  14.156 -0.0584 -0.0349  0.0703
 9525W        W26373   1.870  11.975  13.521  0.1309 -0.1438 -0.1205
 9526W        W26374  10.940   2.526  12.823 -0.2729  0.0616 -0.0821
 9527W        W26375  10.107   8.442  13.688  0.2375 -0.3093  0.1840
 9528W        W26376   5.063  13.433  12.726  0.0868  0.3004  0.0954
 9529W        W26377  13.524  13.986  12.765  0.2661 -0.1514 -0.1438
 9530W        W26378   9.996  10.187  15.196  0.1620  0.2927  0.0418
 9531W        W26379   4.698  10.955  17.300  0.3578  0.0419 -0.2076
 9532W        W26380   8.295   9.888  15.744 -0.1204 -0.0097  0.3311
 9533W        W26381   4.131  13.167  15.989  0.3393  0.0705 -0.2057
 9534W        W26382  16.606   5.301   1.199 -0.0214 -0.1393  0.0355
 9535W        W26383   2.576  16.436   1.654  0.3292 -0.0887 -0.2331
 9536W        W26384   3.192   2.474   4.999 -0.1228  0.0677  0.3409
 9537W        W26385   4.928   1.343   5.363 -0.0151 -0.3744 -0.0176
 9538W        W26386   0.528   1.048  17.620  0.0483  0.1558  0.2302
 9539W        W26387  15.812  11.547  11.876 -0.2426 -0.0049  0.1172
 9540W        W26388  15.662   6.818   5.304  0.3168  0.2825  0.2159
 9541W        W26389   8.464  13.503  12.636 -0.0212 -0.3239 -0.3607
 9542W        W26390   3.894  15.959   5.860 -0.0753  0.0031 -0.2822
 9543W        W26391  16.844   1.320   1.621  0.2252 -0.0049  0.2566
 9544W        W26392  14.434   2.222  12.718  0.0996 -0.3893  0.1026
 9545W        W26393   4.534   7.818   0.643  0.0180  0.1479  0.0497
 9546W        W26394   2.546   1.497  13.604 -0.3631 -0.0568 -0.0717
 9547W        W26395  13.377  14.525   0.638  0.1034  0.3412  0.0466
 9548W        W26396  11.283   4.228  13.433  0.0892  0.0737 -0.1700
 9549W        W26397  10.642   2.954  16.949  0.0422  0.2263 -0.1267
 9550W        W26398  16.563   5.278  15.332  0.0396  0.0855  0.3442
 9551W        W26399   5.775   6.705  17.281  0.0180 -0.1715  0.2680
 9552W        W26400  11.436  13.638   3.012  0.0442 -0.0458  0.1654
 9553W        W26401   4.925   1.477  15.490 -0.0085  0.1253 -0.1178
 9554W        W26402   2.097   9.072   3.198  0.0492  0.2354  0.0238
 9555W        W26403   6.810   1.388  16.394 -0.2045 -0.2478 -0.0852
 9556W        W26404  16.204  10.004  12.637 -0.3810  0.1749  0.2749
 9557W        W26405   3.045   5.172   3.393 -0.1292  0.1603  0.3594
 9558W        W26406  14.256   9.084   2.951  0.1976 -0.0987 -0.0778
 9559W        W26407  15.706   5.143   0.192  0.2022  0.2334 -0.4433
 9560W        W26408   6.629   3.234   3.855  0.3428 -0.1528  0.1163
 9561W        W26409   1.824   4.237   1.895  0.3643  0.2942  0.0909
 9562W        W26410  14.793  10.082   0.584 -0.0667 -0.0280  0.0326
 9563W        W26411   7.355  16.915  15.044  0.0362  0.1818  0.2512
 9564W        W26412   9.889  10.778   3.426  0.1213 -0.0950  0.0671
 9565W        W26413  15.385  13.848   5.878 -0.0543 -0.1392  0.0991
 9566W        W26414  10.696   7.016  16.609  0.0558  0.0305  0.1365
 9567W        W26415  10.746  13.850   2.091  0.0463  0.0045 -0.1983
 9568W        W26416  12.802   9.127  15.669  0.0725  0.0843 -0.0094
 9569W        W26417  10.943  15.061   1.213  0.0221 -0.0615 -0.3751
 9570W        W26418   4.307   7.402   4.641  0.2130  0.2022 -0.2498
 9571W        W26419   2.192   9.109   5.058 -0.2034  0.0925 -0.0841
 9572W        W26420  14.563   8.462  17.133  0.0492 -0.0622  0.0875
 9573W        W26421   6.011   2.277   3.533  0.2603 -0.0232 -0.1044
 9574W        W26422   7.450   1.565   3.426 -0.3595  0.2329 -0.0520
 9575W        W26423   8.748   6.359  13.158  0.1636 -0.3485  0.1166
 9576W        W26424   3.668  13.713  13.262 -0.0503 -0.2102 -0.2199
 9577W        W26425   3.509   5.028   4.969  0.3326 -0.1387 -0.0280
 9578W        W26426   8.543  14.827  13.313 -0.1638  0.0655  0.0800
 9579W        W26427   7.027   6.757   5.152  0.0444 -0.0474  0.2812
 9580W        W26428   3.315   8.446  15.571 -0.0794  0.3414 -0.0583
 9581W        W26429   6.688  12.585  15.430  0.0411 -0.1187 -0.1456
 9582W        W26430   4.971   2.633  14.650  0.2005  0.1482  0.0549
 9583W        W26431  16.879   9.574  14.840  0.0383 -0.0056 -0.3703
 9584W        W26432   8.238   4.260  16.126  0.1845  0.0322  0.0176
 9585W        W26433   5.212   9.388   5.604  0.2503 -0.0773 -0.3503
 9586W        W26434   8.105   1.139  13.660 -0.1010 -0.0572 -0.0061
 9587W        W26435  13.541  11.769  13.058  0.2400 -0.1776 -0.4682
 9588W        W26436   8.791  13.405  16.300  0.1517 -0.3155 -0.1345
 9589W        W26437  14.537  13.771   3.928 -0.3539 -0.2194 -0.2021
 9590W        W26438   6.873  14.029  12.449 -0.1223 -0.1234 -0.2135
 9591W        W26439  15.888   9.975   5.517  0.0769  0.3160  0.1603
 9592W        W26440   9.705  13.512  14.260 -0.3031  0.0064  0.1043
 9593W        W26441   8.716   4.034   2.405  0.3024 -0.1971  0.2312
 9594W        W26442   0.426  14.366   2.471 -0.1832  0.0737  0.1460
 9595W        W26443   7.833  10.279  13.644  0.1125 -0.1802  0.1023
 9596W        W26444  11.055   2.070  13.915  0.3264 -0.3003 -0.3563
 9597W        W26445   3.174   4.620   5.243 -0.1684  0.2465 -0.2626
 9598W        W26446  13.943   1.098  14.803 -0.0680  0.0630 -0.0708
 9599W        W26447  15.442   0.024  17.736 -0.1235 -0.3476 -0.1398
 9600W        W26448   6.965   7.962  15.176 -0.1846  0.0751 -0.1260
 9601W        W26449  15.647   7.820   3.820  0.2021 -0.1639  0.0452
 9602W        W26450   9.000  10.509  15.163 -0.0166 -0.1028  0.1233
 9603W        W26451   3.663   4.709   1.682 -0.0847  0.2718  0.0461
 9604W        W26452  14.732  17.022   3.388  0.0381  0.2171  0.0779
 9605W        W26453   3.420  12.328   1.777 -0.1113 -0.1033  0.2753
 9606W        W26454  16.804   2.042   2.795 -0.1483 -0.0439 -0.0171
 9607W        W26455   1.168  11.009  12.543  0.0564 -0.0065  0.0523
 9608W        W26456   2.173   0.942   1.917  0.0915  0.0711 -0.1409
 9609W        W26457  12.513   2.883  15.049  0.1384  0.0549 -0.1284
 9610W        W26458  13.095  15.438  16.993  0.0447  0.2306  0.1568
 9611W        W26459  17.065   8.714  13.225  0.0156  0.1277 -0.0798
 9612W        W26460  11.821   1.621  17.239 -0.3483 -0.0411  0.2079
 9613W        W26461   2.350  14.157  17.652  0.1849 -0.0182  0.0607
 9614W        W26462  13.717  11.660  12.611 -0.1811 -0.0723 -0.0990
 9615W        W26463   6.360   5.226  15.014  0.1186 -0.1626 -0.0403
 9616W        W26464   4.719  17.038   0.543 -0.2862  0.0618 -0.0331
 9617W        W26465   0.811  14.247   2.770 -0.1921 -0.4750 -0.0365
 9618W        W26466   5.427  14.140  12.497 -0.0589 -0.0011 -0.0455
 9619W        W26467   0.021   8.697   5.844 -0.1448  0.0310  0.1281
 9620W        W26468  11.638   1.536  16.787 -0.1729  0.0916  0.2508
 9621W        W26469   5.506   7.100   4.155  0.1842  0.1737 -0.0567
 9622W        W26470   9.495  14.351   1.141  0.2182 -0.1106 -0.1365
 9623W        W26471   1.045   4.890   5.231 -0.1684  0.0252  0.1254
 9624W        W26472  11.910   2.981   6.170 -0.0535  0.5140 -0.0914
 9625W        W26473  11.151   9.842   2.814  0.1729  0.2234 -0.0893
 9626W        W26474   4.169  14.143  12.865  0.0465 -0.0397  0.0531
 9627W        W26475   5.973   2.306  17.173 -0.0325 -0.3980 -0.1031
 9628W        W26476   8.822  10.489  16.777  0.3611 -0.3405 -0.2315
 9629W        W26477   4.520  11.722  16.856 -0.4599 -0.0259  0.0868
 9630W        W26478  13.993  11.184  15.626  0.0056  0.2291  0.1320
 9631W        W26479  10.947   5.503  15.057  0.0671  0.3282  0.0570
 9632W        W26480  14.528  10.771   4.568 -0.0506 -0.1463 -0.3471
 9633W        W26481  10.214   0.418   1.266 -0.1242 -0.0629  0.1882
 9634W        W26482   1.185   0.038  16.248  0.1526  0.1806  0.1173
 9635W        W26483  11.484  12.718  13.300  0.4204  0.1040 -0.2027
 9636W        W26484  12.317   1.019  14.954 -0.5041  0.2177 -0.0630
 9637W        W26485   4.986  12.110   5.979 -0.1501  0.2104 -0.3762
 9638W        W26486   0.791  10.399   0.255  0.0011 -0.4344 -0.0686
 9639W        W26487   1.100  16.087  17.254  0.1744  0.1486  0.0490
 9640W        W26488  11.600   8.374  16.368 -0.0318  0.6370  0.3004
 9641W        W26489   8.808   6.562  15.135  0.1014  0.0124  0.4093
 9642W        W26490  12.831   7.315  12.603  0.2672 -0.1892 -0.1235
 9643W        W26491  16.605  15.144   2.915 -0.0384  0.1073  0.4110
 9644W        W26492   7.835   7.300  14.640  0.1225  0.1631  0.0098
 9645W        W26493  16.564  12.368   3.900  0.1497 -0.2830  0.1104
 9646W        W26494   6.768  13.110   2.653 -0.3070  0.1176  0.1946
 9647W        W26495   5.128  12.743  16.865 -0.3068  0.1004 -0.0704
 9648W        W26496   4.578   5.349   5.264  0.1448 -0.2770  0.0820
 9649W        W26497  13.696  13.255  17.019 -0.4585  0.0812  0.3647
 9650W        W26498   2.826  14.412  17.169 -0.1267 -0.0991 -0.0886
 9651W        W26499   8.119   6.689  14.920 -0.1316 -0.1865 -0.0108
 9652W        W26500  13.534  13.779   1.744 -0.2491  0.2692 -0.1843
 9653W        W26501  16.331  13.710   3.631  0.2122  0.0685 -0.1221
 9654W        W26502   5.400  13.074   2.686 -0.1656  0.0186 -0.0122
 9655W        W26503   9.199   1.051  15.618  0.1057 -0.1041  0.1642
 9656W        W26504  11.456   7.004   3.408 -0.4878  0.4451 -0.1895
 9657W        W26505   9.943   0.432   2.267 -0.0430  0.1190 -0.4729
 9658W        W26506  14.221   8.976  16.111 -0.1174 -0.2188  0.1153
 9659W        W26507   9.559   6.511   5.744 -0.3795  0.2129  0.2446
 9660W        W26508   3.662   0.148  14.321 -0.1178  0.2542  0.3427
 9661W        W26509   6.278   4.745  14.298  0.2775  0.3467  0.2522
 9662W        W26510  16.206   6.565  16.983  0.0447 -0.1773  0.0132
 9663W        W26511   6.286  15.924   5.366  0.0948 -0.0324  0.0146
 9664W        W26512   9.136   3.890   2.179  0.1614  0.0688 -0.0849
 9665W        W26513  16.566   2.453  11.436 -0.0842  0.0440 -0.0874
 9666W        W26514  12.911   5.380   4.408 -0.3107 -0.0300  0.4092
 9667W        W26515  11.710   5.663   1.722 -0.2390 -0.1213 -0.1354
 9668W        W26516  13.817   8.259  15.899 -0.0076  0.2995 -0.3846
 9669W        W26517  16.795   7.798  16.727 -0.3439  0.0851 -0.1246
 9670W        W26518  16.375   1.331   2.216  0.2167  0.0054 -0.1351
 9671W        W26519  13.281   5.399   0.721 -0.2489  0.2794  0.1121
 9672W        W26520  10.590   2.490  13.238  0.2469 -0.3872 -0.1999
 9673W        W26521   8.884   7.448   1.109 -0.1199 -0.1860  0.3482
 9674W        W26522   9.933  14.059   4.763 -0.0168 -0.0425  0.2693
 9675W        W26523   1.923  11.962  14.561  0.1002 -0.0947  0.0481
 9676W        W26524  16.621   6.320   4.742  0.2340 -0.3485  0.3568
 9677W        W26525  10.819  11.501   5.287  0.0715 -0.0345  0.0095
 9678W        W26526   1.482   6.226   2.679 -0.0509 -0.0136  0.5500
 9679W        W26527  15.721  11.434   6.070 -0.0120 -0.0073 -0.1646
 9680W        W26528   6.092   9.037  13.533  0.1393 -0.2304  0.0442
 9681W        W26529  16.152   5.084   0.982 -0.1160  0.3512  0.2373
 9682W        W26530   9.336  10.025  12.886 -0.0286  0.2841  0.1809
 9683W        W26531   3.077  14.017   6.071 -0.0447 -0.2131 -0.0336
 9684W        W26532   8.844   3.766  16.725 -0.1741 -0.2612  0.1677
 9685W        W26533  12.089   2.210   5.591  0.1759 -0.1759 -0.1091
 9686W        W26534  16.171   9.028   2.294 -0.2116  0.1585 -0.0928
 9687W        W26535  14.264   7.140  15.234 -0.0672 -0.2865  0.0264
 9688W        W26536  11.145   9.063   2.226  0.0603  0.1335  0.1636
 9689W        W26537   6.557   6.901   3.944  0.0586  0.0984  0.2527
 9690W        W26538   2.109   8.214   3.827  0.0996 -0.0748  0.2205
 9691W        W26539  13.166  12.324  14.412  0.1288  0.0494  0.1050
 9692W        W26540   3.193   0.737   0.223 -0.2859  0.1884  0.0802
 9693W        W26541  14.809   6.924   1.379  0.2570 -0.1960  0.0706
 9694W        W26542  15.847  10.158   0.617  0.1409 -0.0665  0.0650
 9695W        W26543  13.520  13.858   5.392  0.3410  0.0612 -0.3983
 9696W        W26544   2.867   9.656   3.080  0.1303 -0.3600 -0.1829
 9697W        W26545   2.208  14.470   5.225  0.0177  0.1536 -0.0196
 9698W        W26546   0.797  16.304   5.143 -0.1520  0.2452  0.2642
 9699W        W26547   3.459   7.554   5.335  0.0500  0.1744 -0.0244
 9700W        W26548  12.699   3.121  13.471 -0.0297 -0.1780 -0.2519
 9701W        W26549   7.040   1.869  13.382 -0.1215  0.3278 -0.2313
 9702W        W26550   8.386   0.826   2.297 -0.2029  0.1386  0.2799
 9703W        W26551  14.954   7.042  13.083  0.2134 -0.0945  0.3795
 9704W        W26552   1.161   3.599   1.538 -0.0710 -0.1337  0.2267
 9705W        W26553   3.166   0.538   1.760  0.3777  0.1339 -0.3541
 9706W        W26554  13.873  14.754  13.946  0.0271  0.0803  0.0582
 9707W        W26555   5.641  16.708   3.541 -0.1766  0.2171 -0.4367
 9708W        W26556  17.131  12.269  17.118  0.1290  0.0876  0.0245
 9709W        W26557   2.849  12.160   1.166  0.1133  0.5265 -0.2519
 9710W        W26558  13.544   9.877  17.234  0.1692 -0.0324 -0.0307
 9711W        W26559   9.272   9.055   5.208 -0.2027  0.0207 -0.0685
 9712W        W26560   5.148   6.556  12.817  0.3333 -0.2103  0.1029
 9713W        W26561  15.959   9.529  15.396  0.0613 -0.0461  0.2407
 9714W        W26562  14.352  11.122   1.788 -0.1169  0.1706  0.0063
 9715W        W26563   7.046   4.010   0.259 -0.1494 -0.1323  0.1364
 9716W        W26564   6.763  12.397  13.203  0.0822  0.1620 -0.3139
 9717W        W26565   6.006   4.994   4.055 -0.0517  0.2412 -0.0170
 9718W        W26566   3.111   4.679   4.332 -0.4771  0.0522  0.2000
 9719W        W26567   3.760   6.788   0.645 -0.0591 -0.2649  0.1407
 9720W        W26568   9.749   5.703  15.582 -0.0297 -0.2250 -0.0059
 9721W        W26569  11.509   4.107   1.153 -0.2040 -0.1699 -0.0547
 9722W        W26570   4.213   4.960  16.858 -0.0941  0.1945 -0.3623
 9723W        W26571   5.153   4.310   2.249  0.1214  0.2995 -0.3102
 9724W        W26572   5.688  10.502  17.540  0.1714  0.1741  0.2039
 9725W        W26573   4.133  14.686  17.451 -0.1129 -0.0629 -0.1496
 9726W        W26574  10.575   2.466  17.237  0.0235  0.2169 -0.1223
 9727W        W26575  12.457   9.145  12.250  0.0160  0.5034 -0.2862
 9728W        W26576   3.333   7.399   1.231 -0.2164 -0.1358  0.2026
 9729W        W26577   8.660  11.398   4.264 -0.1125  0.3099  0.2110
 9730W        W26578   1.848  14.129  13.274  0.0833  0.1116  0.4063
 9731W        W26579   5.620   6.626   5.275  0.0526  0.1284  0.0144
 9732W        W26580   2.512  15.004   5.213 -0.1354  0.1399 -0.1690
 9733W        W26581  15.960  13.750  13.557  0.3319  0.2082  0.0149
 9734W        W26582   1.216   2.052   0.321  0.3468  0.1900  0.2193
 9735W        W26583   1.709  10.716  17.021  0.0862 -0.0387  0.1164
 9736W        W26584   5.601  11.031  16.756 -0.0991 -0.1268  0.0943
 9737W        W26585   4.200   4.649   3.709  0.0199  0.0249  0.4487
 9738W        W26586  11.254   1.661   4.415  0.3693  0.0599  0.2201
 9739W        W26587  12.321   7.312   2.155  0.2142 -0.0634  0.1571
 9740W        W26588   7.470  13.098   0.801  0.1983  0.1614  0.0560
 9741W        W26589  16.477  15.195  15.870 -0.1374  0.1228 -0.0284
 9742W        W26590   8.084   0.630  13.432  0.0519 -0.0346  0.1581
 9743W        W26591  16.087   3.173   5.424 -0.1499 -0.0121  0.1137
 9744W        W26592  14.038  12.531  15.337  0.1718 -0.0015  0.0917
 9745W        W26593  15.013  16.601  17.351  0.0817  0.2438 -0.1417
 9746W        W26594  15.458  11.704  16.931 -0.0160 -0.0764  0.1064
 9747W        W26595   2.129  11.093   0.550 -0.1014  0.2103 -0.0288
 9748W        W26596   8.415  14.867  17.543  0.3232  0.2255 -0.0964
 9749W        W26597   5.912  15.090  14.788 -0.0312  0.1044 -0.0099
 9750W        W26598  13.752   6.979  16.151 -0.0041 -0.1632  0.3563
 9751W        W26599  17.077   6.281  11.353 -0.1209  0.2890 -0.1482
 9752W        W26600   5.300   9.609   0.717  0.0517 -0.1913  0.0132
 9753W        W26601   2.308  15.329  15.306 -0.1042 -0.3463  0.1495
 9754W        W26602  14.714   8.735   5.377  0.0027 -0.2010  0.2342
 9755W        W26603   1.103   3.721  13.061  0.0490 -0.0064 -0.1325
 9756W        W26604   6.842  11.297  15.359 -0.0680  0.1932  0.0981
 9757W        W26605   0.405   9.208   0.205 -0.1820  0.2699 -0.0349
 9758W        W26606   8.601   3.080  13.707 -0.0170 -0.0897 -0.0645
 9759W        W26607   3.535   8.724  14.205  0.1294  0.3871  0.2288
 9760W        W26608  16.805   7.178   2.269  0.1684 -0.3537 -0.2837
 9761W        W26609   1.862   5.544  13.290 -0.2159  0.2384 -0.1303
 9762W        W26610  16.306   1.490  17.188 -0.0185  0.0628 -0.1618
 9763W        W26611   8.074  15.119  11.191 -0.0461  0.4485 -0.4543
 9764W        W26612   4.723   9.427  17.521  0.0869 -0.2846  0.2026
 9765W        W26613   7.288   6.783  11.073  0.0531  0.1735 -0.1105
 9766W        W26614   9.842  13.813   0.580 -0.1642 -0.2076  0.2064
 9767W        W26615  13.031  14.728   4.874  0.1508 -0.0633 -0.0143
 9768W        W26616  12.129  11.960   2.569 -0.1521 -0.0463  0.3072
 9769W        W26617  13.674  13.641  17.421  0.2122 -0.0863  0.1339
 9770W        W26618   5.050  10.297   4.292 -0.1684  0.3305 -0.2475
 9771W        W26619   4.329   4.280   0.102  0.0070  0.0145 -0.0924
 9772W        W26620  10.225   6.264  12.811  0.1304  0.1220 -0.1404
 9773W        W26621  14.230  12.768   4.603  0.0835 -0.0953 -0.0398
 9774W        W26622   0.666   6.473  11.750 -0.0690  0.0828  0.0355
 9775W        W26623  14.372   0.263   2.737  0.1598  0.2474  0.3086
 9776W        W26624   7.410  14.233   0.431 -0.0685  0.3116 -0.1409
 9777W        W26625  16.757   3.762   4.523 -0.3858 -0.1919 -0.2263
 9778W        W26626   1.625  15.797  13.179 -0.1794 -0.0390 -0.0036
 9779W        W26627   6.525   4.107   1.955  0.1739 -0.1094 -0.1698
 9780W        W26628   4.195  14.623  16.394 -0.3583 -0.1821 -0.0554
 9781W        W26629   2.357   1.282   5.255  0.0668  0.0088 -0.1036
 9782W        W26630   0.486  12.082  13.320  0.2437 -0.2086 -0.0852
 9783W        W26631   0.682   3.737   4.659 -0.1726 -0.1460  0.1033
 9784W        W26632   1.185  11.726  15.124 -0.0713 -0.2063  0.0624
 9785W        W26633   5.269   8.743   1.260 -0.2345 -0.3014  0.1137
 9786W        W26634   2.705  15.949   6.014 -0.0307 -0.2497 -0.1889
 9787W        W26635   9.455   5.843  12.916  0.0485  0.1098  0.2283
 9788W        W26636  16.345   1.052  14.950 -0.1605  0.1090 -0.0263
 9789W        W26637   0.863  17.149   1.568  0.4744 -0.1177 -0.0091
 9790W        W26638   4.358   2.174  15.587  0.3253 -0.4619  0.0663
 9791W        W26639  16.879  13.546  13.009  0.3403  0.4918 -0.2713
 9792W        W26640  10.463  13.380   1.171 -0.3319 -0.1160  0.2812
 9793W        W26641   5.471   2.188   4.270  0.1509 -0.1331  0.0567
 9794W        W26642   6.799   7.932   4.644  0.0208  0.0757  0.0647
 9795W        W26643   4.160   3.705   3.212 -0.0113  0.0718 -0.0332
 9796W        W26644   8.017  12.858  14.521  0.4671  0.0697 -0.4399
 9797W        W26645  13.344  16.600  13.406  0.1358 -0.1634  0.1713
 9798W        W26646   3.921   5.232   2.326 -0.2049  0.3028 -0.3463
 9799W        W26647   3.273   1.449   4.125  0.0190  0.0923 -0.0073
 9800W        W26648  14.708  11.495   1.704 -0.1284 -0.3232  0.2971
 9801W        W26649  10.971  15.065   2.243 -0.0141 -0.0884  0.2502
 9802W        W26650   4.885   5.642  15.879 -0.0105  0.1944 -0.0451
 9803W        W26651   7.131   6.281   0.351  0.0379 -0.1299 -0.0837
 9804W        W26652   8.979   2.713  13.371  0.0767 -0.0527  0.2131
 9805W        W26653   2.907   9.240  16.346 -0.0351 -0.1727  0.0372
 9806W        W26654   8.710  14.114  15.783 -0.0592 -0.2748 -0.2953
 9807W        W26655   9.980   8.833   1.556  0.1104  0.2750  0.0389
 9808W        W26656  15.624   7.683   2.172 -0.1138 -0.0629  0.0660
 9809W        W26657  11.353   8.198   1.707 -0.1689  0.0837  0.0341
 9810W        W26658  16.559   2.101   5.025  0.2545  0.2844  0.0461
 9811W        W26659   6.000   9.833   2.268  0.1300 -0.1445 -0.2400
 9812W        W26660   3.154  10.127  16.498 -0.2244 -0.0640 -0.1587
 9813W        W26661  10.140  14.061   3.998 -0.3909 -0.0122  0.3644
 9814W        W26662  10.754   6.128  15.525 -0.2864  0.2693  0.1239
 9815W        W26663  14.770  16.832  13.385 -0.1978 -0.3583 -0.1136
 9816W        W26664  13.278   1.649  13.997 -0.0673  0.0695  0.1172
 9817W        W26665  14.464  14.272  17.648  0.1873  0.1614  0.0814
 9818W        W26666   9.089   4.516  14.606  0.2389  0.0572  0.0017
 9819W        W26667  11.135  11.462  13.033  0.1348 -0.3302  0.0512
 9820W        W26668   1.211  11.478  17.043  0.0460 -0.0842 -0.1500
 9821W        W26669  12.074  13.777   0.422  0.2109  0.1055  0.0614
 9822W        W26670  13.405   0.243   4.968  0.0317 -0.0042 -0.0516
 9823W        W26671  14.508  16.479  12.624  0.3703  0.2377 -0.2078
 9824W        W26672  11.281  16.540  16.931 -0.1825 -0.0793 -0.1925
 9825W        W26673  14.993   0.986   3.271 -0.1218 -0.0899  0.1899
 9826W        W26674   4.727   2.899   5.748  0.2083 -0.1235  0.0020
 9827W        W26675   1.571   0.245   5.097 -0.0341 -0.0165 -0.0319
 9828W        W26676  17.054   4.555  12.953  0.0791  0.4773 -0.2040
 9829W        W26677   3.921  10.730  12.485 -0.2005 -0.0439 -0.3182
 9830W        W26678  10.552  12.624  17.751  0.0827  0.0720  0.0636
 9831W        W26679  14.677  15.244  15.198  0.0144  0.0964  0.1500
 9832W        W26680  16.758   1.043  16.487 -0.1036  0.0145 -0.0346
 9833W        W26681   0.929   5.070  12.711  0.1708 -0.0699 -0.2022
 9834W        W26682  11.799   3.058  12.967 -0.2479  0.2666 -0.0180
 9835W        W26683  16.905  13.032   4.129  0.0777  0.1279 -0.0348
 9836W        W26684  16.416  14.059   0.619  0.0208 -0.2587  0.1746
 9837W        W26685   4.281   8.130  11.672 -0.1132  0.0922  0.1120
 9838W        W26686  12.034   7.310  13.688  0.0995 -0.0520 -0.1920
 9839W        W26687  11.081   2.699  16.325  0.2753  0.1187  0.2514
 9840W        W26688   9.365   5.620  12.112 -0.1486  0.2406  0.1856
 9841W        W26689   2.363   0.439  16.225 -0.1171 -0.3839  0.0260
 9842W        W26690  15.302   6.455   1.674 -0.0777  0.0224  0.1869
 9843W        W26691   0.892  15.500  13.595  0.1719 -0.0446  0.0433
 9844W        W26692   5.396   2.582  15.877 -0.1775 -0.0416 -0.0195
 9845W        W26693   3.601   1.370   3.272 -0.1271 -0.0128 -0.0493
 9846W        W26694   2.083  10.517   1.383  0.0505 -0.1470 -0.0346
 9847W        W26695  13.304   7.109  17.722 -0.0010 -0.0446 -0.1967
 9848W        W26696  12.596  15.348  14.445 -0.1186  0.2312 -0.0455
 9849W        W26697  14.371  12.776  15.723 -0.0203  0.1743  0.3529
 9850W        W26698   8.535   6.534   1.305  0.1261 -0.1633 -0.2933
 9851W        W26699   7.457   4.705   3.522 -0.1947  0.0190  0.0293
 9852W        W26700   9.261  14.314  12.092  0.0062  0.0802  0.0779
 9853W        W26701  16.142  14.852  14.992 -0.0944  0.2785 -0.0963
 9854W        W26702  14.933   4.228   4.060  0.0630  0.0095  0.4280
 9855W        W26703   9.568   0.774   4.452  0.3141 -0.1094  0.0325
 9856W        W26704   4.615   4.622   6.140  0.2293  0.0612  0.0678
 9857W        W26705  12.327  16.353  11.581 -0.0470 -0.1487 -0.1398
 9858W        W26706   8.416   0.001   5.008  0.4232  0.2403  0.2087
 9859W        W26707   6.534  13.810   5.943 -0.0828  0.4606  0.0559
 9860W        W26708  13.801   0.695  17.543  0.2912  0.1775 -0.1404
 9861W        W26709  15.549  14.557   4.328  0.0548  0.0467  0.0726
 9862W        W26710   6.373   6.297   5.772 -0.3901 -0.0507  0.0348
 9863W        W26711  11.226  13.197  15.278  0.0490  0.1391 -0.1172
 9864W        W26712   0.045   7.141   5.590  0.1636  0.1241  0.1217
 9865W        W26713   9.499  11.383  15.557  0.0439 -0.1105  0.0140
 9866W        W26714  15.633  16.899   3.184 -0.4174  0.0525  0.3579
 9867W        W26715  11.266   6.583   4.695 -0.0058  0.0117 -0.0970
 9868W        W26716   9.284  16.401  13.745 -0.1651  0.3456 -0.0216
 9869W        W26717   9.238   7.739  14.639  0.0001  0.1904  0.0675
 9870W        W26718  11.396   7.729   1.205 -0.0350 -0.0761 -0.4940
 9871W        W26719   4.861   1.780   0.355  0.0003 -0.1553  0.1456
 9872W        W26720   5.697   0.171   5.154  0.0070 -0.0691 -0.0053
 9873W        W26721  14.180   7.430  14.817  0.0163 -0.0213 -0.0985
 9874W        W26722  16.897  11.580   2.526 -0.3811  0.2808  0.0605
 9875W        W26723   3.167   0.693  16.087 -0.0313  0.0431  0.0918
 9876W        W26724  12.797   7.445  16.422 -0.1628 -0.1297 -0.1959
 9877W        W26725   0.244  14.869   2.313 -0.0664 -0.0420 -0.1290
 9878W        W26726  15.913  14.339  13.430 -0.5565 -0.0303 -0.0250
 9879W        W26727  14.716  10.503   1.663  0.0298 -0.0171  0.0999
 9880W        W26728   7.135   3.662  14.940  0.0601  0.0348  0.1170
 9881W        W26729   8.776   9.559   0.329 -0.3870  0.2540  0.1948
 9882W        W26730   8.494  12.530  13.848  0.1750  0.0795  0.2350
 9883W        W26731   5.386  11.870  14.281 -0.1369 -0.0922  0.2788
 9884W        W26732   3.513  16.218  17.097  0.1184 -0.1651 -0.1211
 9885W        W26733  15.662   8.675  15.687 -0.2842 -0.1482  0.0015
 9886W        W26734   6.477   4.580  17.547  0.1352 -0.3278 -0.2507
 9887W        W26735  14.640  11.668   3.881 -0.3223  0.0688  0.1723
 9888W        W26736   8.037  12.311   0.460  0.1190 -0.0525  0.0913
 9889W        W26737  10.537  12.530   0.811  0.2409 -0.1349  0.0279
 9890W        W26738  11.633  12.115  17.108 -0.0065 -0.0117  0.1075
 9891W        W26739   3.221   4.485   1.476  0.0465 -0.3180  0.0719
 9892W        W26740  13.216   1.700   4.896 -0.0433 -0.1332 -0.0159
 9893W        W26741   7.657   0.041  17.085  0.0430  0.3420 -0.2301
 9894W        W26742   2.309  14.771   4.852 -0.1853  0.0964 -0.0007
 9895W        W26743   8.605   2.260  17.616  0.1431 -0.0435  0.0615
 9896W        W26744  11.334  16.169   2.327  0.3045  0.0449 -0.0054
 9897W        W26745   4.432  12.378  13.820  0.0270 -0.0011 -0.0528
 9898W        W26746   9.893  15.439  13.347  0.0496  0.0024  0.4666
 9899W        W26747   7.429  14.540  11.827 -0.0777  0.3064 -0.1881
 9900W        W26748   7.941  12.140   5.035 -0.4790  0.0011  0.2911
 9901W        W26749   4.818  10.204  16.807 -0.1195  0.0639  0.2809
 9902W        W26750   8.242  11.572  12.151  0.0468  0.1037 -0.0877
 9903W        W26751   8.665   7.191   2.513 -0.1182  0.0047 -0.0893
 9904W        W26752  11.593  14.859  15.324 -0.2905 -0.1748  0.0283
 9905W        W26753   7.534  11.826  15.132 -0.2793 -0.2326  0.0154
 9906W        W26754   1.746   4.366   4.146  0.4492  0.1679 -0.1268
 9907W        W26755   3.340  13.910  14.109  0.4095  0.2076 -0.0253
 9908W        W26756  15.617  14.595  12.349  0.1950 -0.4233  0.0509
 9909W        W26757  10.069  12.253   3.308 -0.3721  0.2206 -0.0479
 9910W        W26758   9.458  15.723  13.605 -0.2340 -0.1731 -0.1469
 9911W        W26759  11.603   6.389  11.792 -0.0727 -0.1903  0.0615
 9912W        W26760   9.538   6.980   0.052  0.1623  0.1457  0.0979
 9913W        W26761   8.088  14.381   2.661 -0.2697  0.2288  0.0197
 9914W        W26762  16.258   3.783   4.602 -0.5349 -0.0886  0.2014
 9915W        W26763   4.307  10.119  15.003  0.1346  0.1914 -0.0671
 9916W        W26764   1.451  13.095  13.932 -0.1219 -0.0933  0.2775
 9917W        W26765   9.625  12.971   0.805 -0.2968  0.1508  0.2134
 9918W        W26766   9.699  10.720  14.434  0.1491  0.2529 -0.2287
 9919W        W26767  14.646   3.833   0.940 -0.0122  0.1549 -0.0929
 9920W        W26768  16.989  10.117  17.078  0.1874  0.0833 -0.3506
 9921W        W26769   4.012   2.776   1.794 -0.2139 -0.1099  0.2392
 9922W        W26770   5.074  16.178   5.020 -0.0159 -0.2217 -0.1093
 9923W        W26771  16.819  13.561  14.470 -0.1626 -0.0835 -0.2396
 9924W        W26772   7.034  13.264  16.534  0.0406 -0.2860  0.1978
 9925W        W26773   6.369  15.759  13.684 -0.1474 -0.0292 -0.3236
 9926W        W26774   1.134   1.960   3.273 -0.0774 -0.0607 -0.1152
 9927W        W26775  16.374   2.401  15.548  0.2015 -0.0607  0.3214
 9928W        W26776   8.598   8.304   3.705  0.0074 -0.2421  0.0539
 9929W        W26777   6.101   5.168  12.398  0.0964  0.0704  0.2075
 9930W        W26778  11.750  12.120   1.332  0.2024  0.1555 -0.0678
 9931W        W26779  12.612   0.027  16.041 -0.0228  0.2830 -0.1324
 9932W        W26780  12.831   2.575  17.258 -0.0439  0.1974 -0.0632
 9933W        W26781   9.583  16.846  14.029  0.0894 -0.0935 -0.0355
 9934W        W26782  10.391   7.844  15.104 -0.2821 -0.1492 -0.0161
 9935W        W26783   3.553   1.468   0.886 -0.0006  0.1240 -0.0772
 9936W        W26784   0.245   2.062  15.179  0.2970 -0.2110  0.2444
 9937W        W26785  16.799   3.307  15.445  0.0110  0.1979  0.0363
 9938W        W26786  11.765  13.974   2.790  0.1955  0.0657  0.1606
 9939W        W26787   2.791  13.168  16.316  0.0455  0.1510 -0.0788
 9940W        W26788  10.993  12.042   5.331  0.3510 -0.0785  0.0972
 9941W        W26789   2.181  16.416   1.324  0.2002  0.0565  0.1312
 9942W        W26790  14.717  16.346  16.909 -0.1805 -0.2624 -0.0536
 9943W        W26791  12.177   1.954   4.723  0.1704  0.1928  0.0955
 9944W        W26792  15.505  15.854   1.565 -0.1460 -0.3008 -0.0858
 9945W        W26793  14.383   7.634  16.472 -0.0383  0.1077 -0.0411
 9946W        W26794  14.534  16.486  11.472  0.3813 -0.4100 -0.0109
 9947W        W26795   3.002  12.236   2.070  0.4371 -0.0627 -0.2079
 9948W        W26796   3.212   9.272  12.848  0.0671 -0.2825 -0.1554
 9949W        W26797  12.648  15.427   5.352 -0.2067  0.1113  0.2471
 9950W        W26798  14.479   4.700  14.890  0.3667 -0.1431 -0.1862
 9951W        W26799   8.507  15.584   1.867  0.2694  0.1220 -0.1099
 9952W        W26800   9.619   4.166   3.895  0.0734  0.1077 -0.3366
 9953W        W26801   3.026   9.712   5.827  0.0557  0.0380 -0.0409
 9954W        W26802  11.910   7.807  17.769 -0.0764 -0.0699 -0.2490
 9955W        W26803   5.635   6.162   0.743  0.0215 -0.1323 -0.0741
 9956W        W26804   2.249   7.423  14.314 -0.1834 -0.1993  0.1360
 9957W        W26805   3.087   9.626  16.594 -0.2815  0.2713 -0.1175
 9958W        W26806  10.909  13.260   0.258 -0.0412  0.1350  0.0131
 9959W        W26807   1.917  11.570   5.902  0.1069  0.1695 -0.0711
 9960W        W26808  10.563   5.915  13.196  0.0945 -0.3123 -0.2790
 9961W        W26809  10.028   5.828  12.995  0.0062  0.3560  0.2263
 9962W        W26810   5.194  13.342   4.660 -0.2413 -0.2283 -0.2127
 9963W        W26811   2.775   2.723  16.586  0.0863 -0.2068 -0.1553
 9964W        W26812   3.550  12.071   2.995  0.2815  0.1527  0.3378
 9965W        W26813  13.959   9.372  15.686  0.3294  0.2569 -0.0667
 9966W        W26814  15.250  14.097  13.510  0.0940 -0.0576 -0.1431
 9967W        W26815   3.864  10.344   5.994 -0.4622  0.2018 -0.2395
 9968W        W26816  14.013   7.208  14.268  0.1634 -0.2078 -0.0499
 9969W        W26817  14.501   3.372   2.076  0.0770  0.0745  0.0291
 9970W        W26818  13.982   4.070  16.553 -0.1694  0.2423  0.3045
 9971W        W26819   4.504  14.493   2.866 -0.0502  0.1313  0.1681
 9972W        W26820  13.298   2.180  13.184  0.0638  0.0317  0.0289
 9973W        W26821   6.565  13.158   1.064 -0.1121  0.0053  0.0811
 9974W        W26822   8.185   6.763  15.787 -0.0534 -0.1086  0.0107
 9975W        W26823   7.344  14.310  15.455 -0.1210 -0.1761 -0.1957
 9976W        W26824  12.902  12.537  15.301  0.0804 -0.1447  0.0959
 9977W        W26825   1.865   5.749   2.066  0.4552 -0.0475 -0.2080
 9978W        W26826  10.937  16.717   6.088  0.0296  0.2689 -0.2016
 9979W        W26827  16.077   1.728   5.255  0.0349  0.0452  0.1851
 9980W        W26828   6.104   6.466   5.394 -0.0058 -0.0278 -0.0687
 9981W        W26829   9.196   6.462  12.867 -0.0026 -0.0062 -0.0564
 9982W        W26830  11.144  13.052  16.860 -0.1480 -0.3144 -0.1900
 9983W        W26831   5.918   8.251  14.439  0.1202 -0.0588 -0.2192
 9984W        W26832  14.840   7.529   1.135 -0.0096 -0.1070  0.0443
 9985W        W26833  11.172   2.377  14.612 -0.0309 -0.2669  0.0608
 9986W        W26834  14.790  14.003   2.902 -0.0360  0.1487 -0.1532
 9987W        W26835  13.551  13.518  12.507 -0.1919 -0.1251 -0.4661
 9988W        W26836  12.696  11.747   3.605 -0.0603 -0.1068 -0.2426
 9989W        W26837   0.956   0.593   3.526 -0.1600 -0.0614 -0.1312
 9990W        W26838  10.390   9.950  16.921  0.2305  0.3615  0.1083
 9991W        W26839   0.069   9.436   6.391 -0.1950  0.0301  0.0340
 9992W        W26840   2.550  16.136   4.833 -0.1248 -0.2925 -0.0695
 9993W        W26841  16.704   6.926   3.128 -0.0629 -0.1541 -0.1630
 9994W        W26842   4.645   6.704   2.476  0.0454 -0.0094 -0.2487
 9995W        W26843  13.737   3.526  12.613  0.3600  0.1216  0.1372
 9996W        W26844  13.030   8.461   2.967  0.0306  0.0386 -0.3321
 9997W        W26845  12.358   7.882  15.494  0.1349 -0.1024 -0.0195
 9998W        W26846  10.009  14.395   0.569  0.0255  0.2199  0.0878
 9999W        W26847   0.183   6.642  16.291  0.1357  0.0642  0.0223
10000W        W26848   6.835   6.603  15.950  0.0237  0.2603  0.0750
10001W        W26849  13.060  10.437   3.369 -0.1629 -0.3660  0.0898
10002W        W26850   6.307   0.648  15.981 -0.2119 -0.0451 -0.0849
10003W        W26851  10.374   2.321  12.103 -0.1305  0.4214 -0.2150
10004W        W26852  13.520   2.184   2.682 -0.4340 -0.1667 -0.2278
10005W        W26853  10.140  12.548  14.730 -0.0640  0.2883  0.1295
10006W        W26854   3.203   0.532   0.693  0.0534 -0.2247  0.1045
10007W        W26855  15.380   2.249   1.392 -0.3290  0.1690 -0.0713
10008W        W26856   5.538   7.531  11.919 -0.1663  0.1235  0.0086
10009W        W26857  15.819   0.120   6.872  0.0116  0.0900 -0.2312
10010W        W26858   2.961  12.367   5.561 -0.2869  0.2103  0.0858
10011W        W26859   6.842  16.316  15.548  0.0421 -0.1982  0.0723
10012W        W26860   5.285   7.298   0.610 -0.1086 -0.2288  0.2720
10013W        W26861   3.590   1.616  16.174 -0.1542 -0.1189  0.3017
10014W        W26862  10.237   7.310  15.409 -0.2385  0.0409 -0.0227
10015W        W26863  10.310  14.942  16.405 -0.2510  0.2018  0.1603
10016W        W26864   7.453   4.822   2.578 -0.1266 -0.2722 -0.0989
10017W        W26865   6.055   2.210  13.586 -0.3132  0.0670 -0.1257
10018W        W26866  12.871  14.895   4.450 -0.1150  0.0594 -0.1452
10019W        W26867  11.856  16.005  16.019  0.2445 -0.1369  0.4623
10020W        W26868   6.880   0.876  14.825 -0.1111  0.0236  0.3089
10021W        W26869   8.764  12.839   2.978  0.0057  0.1630 -0.2035
10022W        W26870  14.036  14.731  12.038  0.1902  0.0753  0.3864
10023W        W26871   8.785   6.976  15.980  0.2185 -0.0590  0.2183
10024W        W26872   3.831   6.848  16.321 -0.2541  0.0766  0.1959
10025W        W26873   9.995  11.417   5.906 -0.2351 -0.1020  0.2086
10026W        W26874  15.520   4.279   4.839 -0.2824  0.2537 -0.2231
10027W        W26875   1.799   6.675   4.084 -0.0432 -0.1397 -0.3599
10028W        W26876   8.643   9.054   0.929  0.2401 -0.1655  0.1306
10029W        W26877   7.706   9.766  14.658  0.1351  0.0636 -0.0425
10030W        W26878  14.434  11.706   3.040  0.2007 -0.0695  0.2547
10031W        W26879   1.807  16.114   0.008 -0.0166 -0.3479  0.0137
10032W        W26880   2.984  16.449  11.745 -0.4341  0.1260 -0.0303
10033W        W26881   2.075  10.420  16.359 -0.0863  0.0908  0.0411
10034W        W26882   2.546   3.253  15.287 -0.0184 -0.2546  0.1351
10035W        W26883  13.579   0.585   0.392  0.0361  0.1079 -0.2139
10036W        W26884  10.213   1.833  13.957 -0.1609 -0.1948  0.1989
10037W        W26885   1.102   7.093  16.433 -0.1750  0.1984  0.0128
10038W        W26886  16.348   5.300  16.975 -0.1174  0.0870  0.1148
10039W        W26887   3.118   7.242  17.464 -0.1846 -0.0288  0.2305
10040W        W26888   0.487   0.530   6.681 -0.1253  0.1466 -0.1874
10041W        W26889  14.127   0.202  12.228  0.3360 -0.1592  0.0270
10042W        W26890   9.633   0.553   1.287  0.2377  0.0270 -0.0683
10043W        W26891   4.929  12.078  16.908  0.1675  0.0294 -0.0601
10044W        W26892   4.653  10.562   4.186  0.1064  0.0441  0.0681
10045W        W26893  13.851  16.483  13.291  0.0786  0.1316 -0.0232
10046W        W26894  14.045   4.899   3.960  0.0099 -0.2038  0.4242
10047W        W26895   6.182   3.312  16.938  0.2092 -0.1257 -0.1906
10048W        W26896   8.721  12.842  16.014  0.3875  0.4054 -0.3803
10049W        W26897  12.466   6.643   2.085 -0.1053  0.4301  0.0737
10050W        W26898   6.282  11.949   1.174  0.0192  0.3093  0.0341
10051W        W26899   6.368   3.618   5.202  0.2356 -0.1235 -0.1029
10052W        W26900  12.726   7.464   2.379 -0.0526 -0.1776  0.0752
10053W        W26901  13.167   0.900   5.706 -0.0528  0.1888 -0.0975
10054W        W26902   0.489  14.043   3.575 -0.0246  0.1252 -0.0553
10055W        W26903   7.071   7.288  15.813 -0.2171 -0.0200  0.1053
10056W        W26904   4.755   7.790  16.880 -0.2731  0.2641 -0.0484
10057W        W26905   2.704   5.289   3.730  0.0318  0.1997 -0.1929
10058W        W26906   0.825   2.335  17.197  0.0889 -0.0447  0.0519
10059W        W26907   5.510  16.339  12.749 -0.1100 -0.2439 -0.1922
10060W        W26908   3.552  15.725  12.765  0.0601  0.2219 -0.1167
10061W        W26909   7.814  11.194   4.800 -0.0177 -0.3414 -0.2005
10062W        W26910  12.622  16.929   0.113  0.1736 -0.1968 -0.1619
10063W        W26911   2.929   9.405  15.233 -0.0920  0.1637  0.2801
10064W        W26912  11.433  16.104  15.735 -0.5704 -0.1225 -0.0283
10065W        W26913   0.650   2.672  16.903  0.0372 -0.1395  0.2569
10066W        W26914   9.207  15.453  16.425 -0.1308  0.1297 -0.0102
10067W        W26915  14.387  14.147  13.887 -0.3390 -0.0094 -0.1227
10068W        W26916  16.055   8.206  17.750  0.3760  0.3133 -0.1527
10069W        W26917  12.803   8.418  17.554  0.0026 -0.0229 -0.3592
10070W        W26918   3.429  12.746  16.716  0.1629 -0.5260 -0.0380
10071W        W26919  12.696  15.267   4.803  0.1592  0.3561  0.2372
10072W        W26920   3.108  14.269   1.006  0.0937  0.0564 -0.1354
10073W        W26921   2.174   0.035   1.625  0.1410 -0.1176 -0.2485
10074W        W26922   8.178   7.862  16.601 -0.1390  0.0797  0.1598
10075W        W26923  10.060   4.930  11.214  0.0670 -0.1405  0.0701
10076W        W26924  11.161   4.464   1.105  0.0910  0.0097 -0.1975
10077W        W26925   4.649   9.969   4.320  0.1054 -0.0349  0.0709
10078W        W26926  11.701  14.925  14.767 -0.0611 -0.0935  0.0982
10079W        W26927   1.704   3.626  14.257  0.2814 -0.0622  0.0241
10080W        W26928   0.338   2.586  17.342 -0.0989 -0.0468  0.1408
10081W        W26929  10.840   7.154   1.530  0.0094  0.1731 -0.0707
10082W        W26930   0.065  15.209   0.793 -0.2390  0.0982 -0.3775
10083W        W26931  10.048   7.269   0.716  0.0569  0.0898  0.0801
10084W        W26932   5.870   9.275   1.404 -0.0779  0.2465  0.0943
10085W        W26933  10.252  14.581  13.053  0.0825  0.0392  0.1041
10086W        W26934  14.612  16.798  13.859 -0.1246 -0.0625  0.0711
10087W        W26935  11.415  11.502   0.441  0.0690  0.2780 -0.3890
10088W        W26936  11.395   4.985  15.158  0.2553 -0.4145  0.0897
10089W        W26937   0.407   7.164  12.877  0.0249  0.0296 -0.2651
10090W        W26938   3.201   5.763  15.716 -0.0829 -0.2965 -0.2593
10091W        W26939   3.643  14.948  15.779 -0.3108 -0.0117 -0.0026
10092W        W26940   4.641   2.302   2.068 -0.0583 -0.1226  0.0249
10093W        W26941  16.681   6.606  15.630 -0.2239 -0.1456  0.0743
10094W        W26942  15.738   6.552   0.690  0.2413  0.0734  0.2377
10095W        W26943  12.615   5.459  17.695 -0.0266  0.1871  0.1571
10096W        W26944  16.508   1.997  12.928  0.1104  0.2349 -0.1690
10097W        W26945  16.976   4.179   5.639  0.1137  0.3411 -0.0090
10098W        W26946   4.457  11.735  14.643  0.2178  0.0890 -0.1133
10099W        W26947   4.283   7.546  15.780  0.1214  0.0914 -0.2222
10100W        W26948   0.359  11.087  14.935  0.1735  0.0696  0.5735
10101W        W26949  13.538   9.103   0.324  0.2122 -0.1194  0.2441
10102W        W26950   6.765   6.857   0.910  0.1197  0.0793  0.1732
10103W        W26951   7.546   2.370   5.086 -0.4578  0.3495 -0.0542
10104W        W26952  15.714   4.787  17.449 -0.3805 -0.0014  0.1027
10105W        W26953  11.333   7.967  16.563  0.0169  0.2950  0.0135
10106W        W26954   3.364   4.624   3.397  0.1984 -0.0994 -0.1230
10107W        W26955  16.547  12.577  14.742  0.1259 -0.0822 -0.1442
10108W        W26956   4.690  15.708  13.072 -0.1883  0.0534 -0.2747
10109W        W26957   7.900   4.107   0.424 -0.0792  0.1117 -0.0938
10110W        W26958   6.068   4.552   4.068  0.0368  0.0302  0.3468
10111W        W26959   4.371   8.911   2.403 -0.0823  0.0533  0.0262
10112W        W26960   0.022   8.593   5.297 -0.1759  0.3250  0.0658
10113W        W26961  12.268   8.950   6.205 -0.1958  0.0560 -0.0715
10114W        W26962  15.817   1.911  11.854  0.1917 -0.2151  0.0313
10115W        W26963   0.224   8.440   2.401  0.4568  0.0613 -0.2864
10116W        W26964   8.248   0.821   1.646 -0.3137  0.1976  0.2952
10117W        W26965  14.556   3.584  14.463 -0.1151  0.4029  0.0848
10118W        W26966   9.420  10.015  14.066 -0.2117 -0.0513  0.1996
10119W        W26967  15.264   4.499  16.996 -0.0652 -0.1566 -0.1463
10120W        W26968   7.542  15.675  15.127  0.1673 -0.0586 -0.2804
10121W        W26969   7.907   1.139   3.012 -0.0121 -0.1276  0.1617
10122W        W26970   6.180  10.319   2.176 -0.0918 -0.1089 -0.2996
10123W        W26971   1.815   8.349  17.018 -0.0777  0.0856 -0.0508
10124W        W26972   9.281   0.012   1.052  0.0156 -0.2594 -0.0886
10125W        W26973   8.960  12.108   1.601 -0.2889  0.2330 -0.0011
10126W        W26974  12.661   3.542  15.587  0.0079 -0.1688  0.0065
10127W        W26975  11.468   2.470   1.358 -0.0462 -0.3348  0.0453
10128W        W26976  14.881   6.159   0.409 -0.1495  0.1934  0.1017
10129W        W26977  14.148   5.371   3.735 -0.1539 -0.2118  0.1621
10130W        W26978   9.378  16.463  17.305  0.2267  0.0558  0.0700
10131W        W26979   9.968  11.191   4.788  0.0287 -0.0040 -0.1772
10132W        W26980   5.592  10.881  14.351 -0.2045 -0.0999 -0.0969
10133W        W26981   7.118  16.469  15.097  0.0987  0.1257  0.0614
10134W        W26982   6.186   2.845   1.615 -0.1563 -0.0484 -0.0136
10135W        W26983   5.264  16.358  16.302  0.0186 -0.0996 -0.2384
10136W        W26984   1.678  16.677  14.009  0.2465 -0.0310  0.0578
10137W        W26985   5.531   1.210  12.632  0.0847 -0.0334  0.1637
10138W        W26986   4.714   5.951   3.386 -0.0666 -0.0426  0.0230
10139W        W26987  13.297   1.301  15.455 -0.0945 -0.3576  0.1566
10140W        W26988   3.965  15.307  15.104 -0.2847  0.2923 -0.5094
10141W        W26989   5.011   6.934   2.719  0.1128  0.0601  0.2341
10142W        W26990   0.358  13.081  17.223 -0.1423 -0.0021  0.1724
10143W        W26991   4.869  15.911   3.222  0.2017  0.0378 -0.0503
10144W        W26992   1.306  14.995   4.686  0.3018 -0.3052 -0.0358
10145W        W26993   0.086   0.076   2.137 -0.4399  0.3541 -0.2608
10146W        W26994   9.061   1.167   5.168  0.0352 -0.0714  0.0432
10147W        W26995   1.431   2.430   3.340  0.0486 -0.1750 -0.1314
10148W        W26996  14.227  11.203  14.764  0.0589  0.1814  0.0078
10149W        W26997  13.155   5.736  13.731  0.2479  0.0688 -0.1095
10150W        W26998  13.335   5.777   5.661  0.1631 -0.3322 -0.2071
10151W        W26999   6.638   0.586   0.072 -0.0032 -0.0637 -0.3327
10152W        W27000  13.399   5.926  14.620  0.0824 -0.2608  0.0611
10153W        W27001  10.362   3.577   1.922 -0.0281 -0.0431  0.1560
10154W        W27002  14.151  13.610  13.189 -0.3825 -0.3087 -0.0847
10155W        W27003   0.929   1.701  16.607  0.1674 -0.2608 -0.1088
10156W        W27004  12.559   9.274  13.273 -0.1022  0.0210  0.2118
10157W        W27005  11.210   9.743  17.374  0.2394 -0.3692  0.0922
10158W        W27006  14.817  13.322   1.084 -0.0111 -0.3057  0.2160
10159W        W27007   4.750   7.178   3.018  0.0735  0.1726 -0.1439
10160W        W27008  16.744  11.104  13.685  0.0825 -0.1517  0.1130
10161W        W27009   5.254   3.347   0.706  0.0026 -0.2992  0.0533
10162W        W27010  14.492  11.668   5.641 -0.0254 -0.0090  0.1692
10163W        W27011   1.468  15.583  14.640 -0.0365  0.0279 -0.0210
10164W        W27012   1.589  15.648   0.688 -0.0693 -0.1896 -0.0983
10165W        W27013  13.918   5.238   5.243 -0.1164 -0.1413 -0.0107
10166W        W27014   6.511   9.880  14.238  0.0746 -0.0744  0.0725
10167W        W27015  16.851  12.208  17.528  0.1593  0.2472  0.1980
10168W        W27016   4.497  12.644  17.155 -0.1717 -0.1701 -0.0105
10169W        W27017  16.304   6.916   4.039  0.1142  0.1615 -0.3365
10170W        W27018  11.848  11.606   3.715 -0.2312 -0.3131  0.2020
10171W        W27019  15.440  15.337  13.081 -0.3253  0.1194  0.1116
10172W        W27020  15.070  12.606   0.909  0.0213 -0.0012  0.1827
10173W        W27021  14.205  14.482  14.201 -0.2268  0.2461  0.0769
10174W        W27022   0.713  13.629  17.232  0.2086  0.2271 -0.4288
10175W        W27023   2.427  14.323  13.951 -0.1547  0.0305  0.0025
10176W        W27024   3.906  15.848  14.792  0.0385  0.0788 -0.0002
10177W        W27025  11.519   5.052  16.163  0.0987  0.0429 -0.2248
10178W        W27026   1.515   4.900  13.667  0.4899  0.0559 -0.1297
10179W        W27027   2.645  10.355   4.730  0.1247  0.0986 -0.1315
10180W        W27028  11.810   4.978  17.674 -0.1953  0.1135 -0.0007
10181W        W27029   0.134   3.619  15.163  0.1375  0.1139 -0.0953
10182W        W27030   9.253   5.309  16.721  0.2726  0.2571 -0.1746
10183W        W27031   5.679   6.560   1.560  0.1918  0.2146 -0.2418
10184W        W27032   0.293  10.943  15.436  0.1921 -0.1669  0.0018
10185W        W27033   6.687  15.825  15.699 -0.0412  0.0516 -0.4293
10186W        W27034  13.750  15.766   4.372  0.1885 -0.0340 -0.0861
10187W        W27035   5.486   6.934  12.602  0.0077  0.0571  0.4759
10188W        W27036   0.197   7.118  12.392  0.1562 -0.2745  0.2771
10189W        W27037   0.974   6.239  13.805  0.1536 -0.1359  0.2046
10190W        W27038   3.660  16.321  14.932 -0.2118 -0.1235 -0.1089
10191W        W27039  10.356   8.084  13.901 -0.1007 -0.1253 -0.3126
10192W        W27040  14.435  16.453   1.141 -0.1701  0.2958  0.2431
10193W        W27041   4.627  10.523  15.215  0.0869  0.1431 -0.0156
10194W        W27042   1.851  13.454  16.242  0.1897  0.2430  0.0866
10195W        W27043  11.152   0.252   4.359 -0.0878  0.2803  0.0827
10196W        W27044   3.965  16.452  15.325  0.0783 -0.1255  0.0860
10197W        W27045  11.564  10.935   2.405  0.1407 -0.1800 -0.1575
10198W        W27046   4.268  15.767   0.850  0.1730  0.1516  0.0585
10199W        W27047  11.946  14.221  12.775 -0.3141  0.0352 -0.0737
10200W        W27048   4.345  16.307   4.420  0.1959  0.0329  0.3054
10201W        W27049   7.855   1.234  12.886  0.0206  0.0078 -0.1773
10202W        W27050   4.665  13.161   4.561  0.1235 -0.0016 -0.0464
10203W        W27051  13.641   9.685  16.787  0.1245  0.0045 -0.1245
10204W        W27052  11.380   5.018  13.885 -0.1999  0.0734 -0.1188
10205W        W27053   2.992  14.922   5.437 -0.0463 -0.0914  0.0404
10206W        W27054   8.870  16.028  13.763 -0.0479  0.1554 -0.1395
10207W        W27055   4.155   4.008  17.191  0.0507 -0.0412 -0.3120
10208W        W27056   5.495  13.017  17.053 -0.1725  0.0273  0.3649
10209W        W27057  16.878   1.424   1.041  0.2490  0.0767  0.0529
10210W        W27058   6.233  13.166   2.446  0.2837  0.1351  0.1258
10211W        W27059   0.629   3.315   0.130  0.0799  0.3979  0.2715
10212W        W27060  16.660  15.789   3.646 -0.0472 -0.1886 -0.0351
10213W        W27061   1.840  16.213   6.175  0.1636 -0.0975  0.1462
10214W        W27062   9.021  12.551   0.548  0.0681 -0.0510 -0.1272
10215W        W27063   6.797  11.116   3.570 -0.2756  0.0699 -0.0484
10216W        W27064  15.542  12.353   2.872 -0.0326 -0.1237  0.3335
10217W        W27065   8.398  10.568  16.320  0.1828  0.0019  0.0866
10218W        W27066   7.938   1.657  17.164  0.1215 -0.2883  0.0655
10219W        W27067  15.536   1.484  12.902  0.2022 -0.1962  0.0693
10220W        W27068  12.645  12.899  15.057 -0.0086 -0.1306 -0.0567
10221W        W27069   1.917  12.222   4.446 -0.0647 -0.2341 -0.2859
10222W        W27070   9.802  15.244  15.578 -0.0061 -0.0967 -0.4484
10223W        W27071   2.788  12.315   4.197 -0.1245  0.1304 -0.0441
10224W        W27072   8.267  10.068  12.465  0.1952 -0.3537  0.1157
10225W        W27073   3.995  16.259  17.426 -0.0870  0.0150 -0.1003
10226W        W27074   7.756   2.315   0.986  0.1080 -0.2999  0.0150
10227W        W27075  12.775   9.066  14.711  0.1800  0.1652  0.1009
10228W        W27076   5.951   6.529   6.674  0.0167 -0.0142 -0.2044
10229W        W27077   1.414   1.230   4.083  0.0980 -0.0078  0.1168
10230W        W27078   4.168   4.711   1.612  0.0261 -0.3112  0.2188
10231W        W27079   5.865   3.372  16.163  0.0969 -0.0176 -0.2560
10232W        W27080   6.536   5.490  16.823 -0.2903 -0.1836 -0.1648
10233W        W27081  14.453  16.495  14.292 -0.0091  0.1478  0.2572
10234W        W27082  16.563   8.653   2.362  0.1345 -0.0431 -0.0257
10235W        W27083   1.375   1.158   4.830 -0.0806 -0.0781  0.0269
10236W        W27084  12.231   5.508   2.898 -0.1580 -0.2252  0.1870
10237W        W27085  15.513   0.203   5.767  0.1883 -0.0294  0.1320
10238W        W27086   5.239   9.901  13.297 -0.1310 -0.2356  0.0483
10239W        W27087   6.887   5.016   2.618  0.1003 -0.3175  0.0658
10240W        W27088  15.436   7.913  17.505  0.0104 -0.3164  0.0553
10241W        W27089  16.099  10.660   2.315  0.0567  0.1350 -0.2583
10242W        W27090   2.668  11.439  13.575  0.2112  0.0582 -0.0671
10243W        W27091  14.359  11.850  13.381 -0.0938 -0.1194  0.2025
10244W        W27092   6.908  13.203  15.317  0.0065 -0.1694  0.0622
10245W        W27093   4.138   7.862   4.638 -0.0747 -0.1654 -0.1320
10246W        W27094  17.087   4.797   2.187 -0.0357 -0.0448  0.0218
10247W        W27095   8.931   1.726  14.514 -0.1093  0.1167 -0.0829
10248W        W27096   3.996   8.130   3.983 -0.0409 -0.2933  0.0720
10249W        W27097  12.822   1.519  14.200  0.2233 -0.0337 -0.2563
10250W        W27098  16.991   4.671  16.337  0.1890 -0.1432 -0.2772
10251W        W27099  11.207   3.429  15.615  0.1180  0.0798  0.1014
10252W        W27100   1.448   0.985  16.597 -0.0208  0.0634 -0.2366
10253W        W27101   6.869  14.851   3.499  0.0077  0.0122  0.1391
10254W        W27102   5.347   2.901  14.974  0.0979  0.1357 -0.0724
10255W        W27103  16.054   8.483  11.756 -0.0043 -0.0659  0.3398
10256W        W27104  10.980   1.384  11.943 -0.0572  0.1711  0.1616
10257W        W27105   7.558   4.382   5.546  0.0177  0.1106 -0.0289
10258W        W27106   9.934   2.394  13.457 -0.1730  0.0672  0.4518
10259W        W27107  13.546  16.360  14.672  0.0999 -0.1293  0.2949
10260W        W27108   6.321   6.464   0.389 -0.2756  0.1334 -0.2173
10261W        W27109   0.714   3.888  17.676  0.0456 -0.4210  0.2532
10262W        W27110   1.722   6.942  17.177  0.0718  0.0502  0.0896
10263W        W27111  16.808  16.350   2.219  0.2586 -0.2228 -0.2792
10264W        W27112   9.428   8.762  11.163 -0.0491  0.0753  0.0697
10265W        W27113   4.226   3.541   5.410 -0.1338  0.0187  0.2065
10266W        W27114   4.160   7.770  13.602  0.0163 -0.2006 -0.2093
10267W        W27115   5.125  16.635   4.711 -0.0688 -0.0986  0.1229
10268W        W27116  13.971  10.091  17.288 -0.4293 -0.0041  0.1454
10269W        W27117   8.420  16.076   1.542 -0.0449 -0.1415 -0.3031
10270W        W27118   6.553   1.542   2.198  0.0170 -0.1761  0.0864
10271W        W27119   4.236  11.711   2.714 -0.1631 -0.0958 -0.0758
10272W        W27120   6.732   1.621  13.724  0.0074  0.0006  0.0895
10273W        W27121   3.794   6.088  13.914  0.1550  0.4482  0.2531
10274W        W27122   2.503   8.478   5.528 -0.0737 -0.0470  0.1612
10275W        W27123  16.060   3.298   0.022 -0.0202 -0.0234 -0.0219
10276W        W27124   6.522   5.384   2.480  0.0410 -0.0551 -0.0670
10277W        W27125   4.322   6.374  13.802 -0.0412  0.0280  0.3404
10278W        W27126   0.285   3.834  14.484 -0.2910  0.0675 -0.1150
10279W        W27127   5.835  15.199  15.298 -0.0711  0.1680  0.0126
10280W        W27128   6.755   1.738   4.455  0.2404 -0.1536  0.2033
10281W        W27129   0.489  11.347  15.702 -0.1866  0.2531 -0.0933
10282W        W27130  16.804   9.148   0.414 -0.2034  0.0647 -0.1901
10283W        W27131  14.727  12.772   1.628 -0.4354 -0.0847  0.0210
10284W        W27132  15.678   1.020  16.157  0.0585 -0.0241  0.0570
10285W        W27133  16.555  11.862  12.329 -0.0474  0.0371 -0.1928
10286W        W27134  16.134  14.998  16.517  0.1735 -0.2010  0.1188
10287W        W27135   5.053   4.940  17.198 -0.0467  0.0099  0.2311
10288W        W27136   8.262   2.807   5.677 -0.1856  0.0215 -0.2127
10289W        W27137   1.762   6.400  13.595 -0.1487 -0.0659  0.0081
10290W        W27138  10.069   0.134  16.899  0.3951 -0.1244 -0.1789
10291W        W27139  12.400   5.850  15.388 -0.3007 -0.2046 -0.2182
10292W        W27140   5.077   0.685  17.469 -0.0219 -0.0806 -0.1350
10293W        W27141  16.679  10.438   3.164  0.2883  0.2244  0.1487
10294W        W27142  14.768   4.663   3.379  0.1147 -0.0959  0.0774
10295W        W27143  13.265   2.497  15.020 -0.1059  0.1376 -0.2625
10296W        W27144   2.773  15.492   6.199 -0.5585 -0.1688 -0.1976
10297W        W27145   0.524   5.478   5.071 -0.1820 -0.1037  0.1238
10298W        W27146  17.060   0.438   2.502 -0.1152  0.0349  0.0072
10299W        W27147  12.439  13.264   2.898  0.2272 -0.0404 -0.1006
10300W        W27148   5.483   5.401  15.297 -0.0056  0.1202 -0.2018
10301W        W27149   4.325   0.754   3.169  0.0673  0.1865 -0.0688
10302W        W27150  14.384  11.121  15.284  0.0607 -0.0119  0.1819
10303W        W27151   8.596  16.633  16.964 -0.0186 -0.0612 -0.0407
10304W        W27152   3.626   9.729   0.028 -0.0037 -0.0166  0.3351
10305W        W27153   7.224  16.144   1.639 -0.2064 -0.0450 -0.2635
10306W        W27154  10.678  16.545   5.116  0.0863  0.0677  0.1225
10307W        W27155   2.925   5.733  13.648  0.0638 -0.1013  0.1790
10308W        W27156  12.512   2.695   2.741 -0.0476  0.4572  0.0952
10309W        W27157  16.588   1.646   5.203  0.1875  0.0282  0.1092
10310W        W27158   5.465  12.630  15.347 -0.0517  0.1062 -0.3864
10311W        W27159   2.504   0.798  12.459 -0.0054  0.1610 -0.0088
10312W        W27160  15.592   3.423   2.976  0.3338 -0.1909 -0.2234
10313W        W27161  17.157  14.164  15.680 -0.2744 -0.1083 -0.1226
10314W        W27162   3.513  14.168   3.216  0.0922 -0.2939 -0.2867
10315W        W27163   5.740  14.358  11.384  0.1436  0.1081  0.2116
10316W        W27164   3.740   1.574   3.744  0.0780  0.5113  0.0058
10317W        W27165   9.009  11.421  14.015 -0.0635 -0.1610 -0.0471
10318W        W27166  14.200   2.311   5.319  0.0494  0.3404 -0.0490
10319W        W27167   3.826   1.496   2.303  0.3258  0.0717 -0.0924
10320W        W27168   6.171   6.672   1.387  0.0191 -0.1053  0.1346
10321W        W27169  14.743  13.240   4.282 -0.2123 -0.1429 -0.0529
10322W        W27170  15.519   3.064   1.100 -0.0662 -0.1735  0.1646
10323W        W27171   6.287  16.763   2.908 -0.2624 -0.1404  0.0164
10324W        W27172   5.149  11.193   6.125  0.0765  0.2088 -0.0509
10325W        W27173   6.610  10.753  12.276  0.4988  0.1661 -0.0820
10326W        W27174   2.216   8.652   2.991  0.1433 -0.1831 -0.2727
10327W        W27175  13.175   3.576  11.878 -0.0842  0.1352 -0.1321
10328W        W27176   5.374   2.664  12.504 -0.1153 -0.3238  0.1092
10329W        W27177  12.463  12.195  11.433  0.1174  0.1522  0.0628
10330W        W27178   0.303   8.872   1.311  0.1396  0.0131 -0.1776
10331W        W27179  10.359  11.086   6.611  0.0794 -0.2669  0.0273
10332W        W27180   6.151   9.172  15.927 -0.3482  0.0780 -0.0938
10333W        W27181  11.721  10.222   3.565 -0.1111 -0.1580 -0.1749
10334W        W27182   9.397   1.657   5.022 -0.0814 -0.4147  0.3257
10335W        W27183   1.465  12.928   5.097  0.0557  0.1602 -0.1273
10336W        W27184  15.672   2.026  12.890 -0.1213 -0.0255 -0.0092
10337W        W27185   5.414  16.238   3.777 -0.2203  0.2030 -0.2684
10338W        W27186   3.363   1.439  16.646  0.0712  0.0324  0.1151
10339W        W27187  14.047   8.902  12.584  0.0857 -0.0243 -0.0055
10340W        W27188  12.284   8.853  13.382 -0.0876 -0.3152 -0.1055
10341W        W27189   9.289  12.746  14.919 -0.1916 -0.4638  0.1125
10342W        W27190   8.414  12.791  14.797  0.1630  0.0218  0.1059
10343W        W27191  11.234  12.350   2.969  0.1115 -0.2874 -0.1293
10344W        W27192   9.410   5.976  14.825  0.0925 -0.0480 -0.0562
10345W        W27193   9.305  16.579   5.118 -0.1664 -0.1041  0.1326
10346W        W27194  10.412   6.509  12.219 -0.0339  0.0349 -0.0641
10347W        W27195   1.698   5.606  12.343  0.0849 -0.0590 -0.2584
10348W        W27196   2.229  10.381   3.175 -0.0055 -0.0554 -0.3005
10349W        W27197   8.008  16.512  14.863 -0.2387  0.1454 -0.0079
10350W        W27198   0.410   9.765   0.037  0.0345  0.2646  0.1742
10351W        W27199   5.771  11.794   1.004 -0.1615 -0.2440  0.2205
10352W        W27200  11.038  16.658  13.857 -0.1573  0.1462 -0.3304
10353W        W27201   2.906  10.065   4.353  0.1035 -0.0561  0.1600
10354W        W27202  15.252   1.092   2.466  0.1086 -0.2633 -0.0424
10355W        W27203  11.543  16.801   3.648 -0.2333 -0.3285 -0.2113
10356W        W27204   0.536   4.734   1.739 -0.2170 -0.2481 -0.1453
10357W        W27205  14.270  10.240   6.457  0.0490  0.0746 -0.0383
10358W        W27206  10.873   3.819  13.564 -0.2800 -0.2803 -0.0947
10359W        W27207   1.868   7.603  13.510 -0.3005 -0.1217  0.0073
10360W        W27208   0.698  11.096  12.294 -0.0873  0.1322 -0.0929
10361W        W27209  10.415  14.514  16.672 -0.2410  0.4355  0.1279
10362W        W27210  17.129   4.361   3.772 -0.0630  0.0268  0.0441
10363W        W27211  14.035  12.359   0.806  0.0155  0.0513 -0.2526
10364W        W27212  12.964  12.767   3.577 -0.1560  0.1753  0.0074
10365W        W27213   5.374   5.539   5.281  0.0463 -0.0904  0.1128
10366W        W27214  11.299   3.627  13.729  0.0456  0.2401  0.1152
10367W        W27215   4.382   7.802   3.767  0.3256 -0.2005  0.0809
10368W        W27216   0.732   5.750  17.062 -0.0335  0.2211  0.0502
10369W        W27217   9.296   4.846   2.879  0.2581  0.2905 -0.2866
10370W        W27218   5.039  15.638  17.086 -0.0009  0.3755 -0.2764
10371W        W27219   2.401   0.263   0.762 -0.1135 -0.0404 -0.1570
10372W        W27220   6.419   1.308  14.016  0.0711  0.2004  0.1653
10373W        W27221  15.268  11.442  17.381  0.0998  0.2226 -0.0534
10374W        W27222  15.258   1.760  12.618 -0.1615  0.0385 -0.0557
10375W        W27223   2.775  16.811   1.980 -0.1892  0.0094 -0.1209
10376W        W27224   3.568   8.405  15.083  0.1236  0.0703  0.2389
10377W        W27225  13.825   4.084   1.854 -0.0808  0.0691  0.3606
10378W        W27226  11.501   6.678   1.823  0.2012  0.1347  0.3597
10379W        W27227   6.863  10.997   4.370 -0.2190  0.1442 -0.1328
10380W        W27228  12.890  10.699   0.961  0.6093  0.0646  0.0016
10381W        W27229   8.503   5.902  12.014  0.1534 -0.1730 -0.2230
10382W        W27230   2.674   0.236  11.784  0.1564  0.0784  0.2633
10383W        W27231   2.117  10.653  16.780 -0.3467 -0.3030 -0.0368
10384W        W27232  12.927  15.840  13.788  0.1246 -0.1116  0.1976
10385W        W27233   9.503  14.074   5.221  0.0255 -0.2555 -0.2113
10386W        W27234  12.926  14.712   3.743 -0.0812  0.0438  0.0461
10387W        W27235   0.407   8.925   4.094 -0.2819  0.1275 -0.0932
10388W        W27236   9.455   8.918  15.893  0.1126 -0.1122 -0.0125
10389W        W27237   8.910   5.254  11.808 -0.2247  0.0509 -0.0402
10390W        W27238   4.019   2.984  17.731  0.3649  0.0790 -0.1387
10391W        W27239   9.117  10.874  16.622  0.3655  0.1952  0.1056
10392W        W27240  11.681  12.599   1.629 -0.3417  0.0291  0.0418
10393W        W27241  11.439   1.888  14.432  0.1862 -0.1851  0.1762
10394W        W27242   0.825   2.854   3.631  0.1701 -0.0508 -0.3752
10395W        W27243   5.594   7.617  15.932 -0.2213 -0.1303 -0.2265
10396W        W27244  15.813  14.052  16.490 -0.0923  0.2511 -0.1283
10397W        W27245   8.064  17.036   1.976 -0.0408 -0.2725  0.3232
10398W        W27246  13.169  16.484   4.371  0.2034 -0.0846 -0.0432
10399W        W27247  13.962  14.193   4.542  0.1109 -0.0508  0.1811
10400W        W27248  15.268   7.035   3.492  0.1825  0.2125 -0.1894
10401W        W27249  13.138  17.068  13.220  0.0230  0.0184 -0.2397
10402W        W27250  12.332  13.218   0.360  0.1403  0.2169  0.2717
10403W        W27251   5.347   6.084   5.053 -0.2476 -0.0874  0.0305
10404W        W27252   5.821   7.423  13.258 -0.1948 -0.3013 -0.0901
10405W        W27253   5.851   6.875  15.638 -0.1936 -0.1602 -0.0742
10406W        W27254   8.308   8.114  15.444  0.0775  0.0558  0.3568
10407W        W27255  15.052  15.971  17.567 -0.0432  0.3685  0.0122
10408W        W27256   4.025   1.582  14.528  0.3274  0.1543 -0.1970
10409W        W27257   9.939   1.819  11.863 -0.0470  0.2756  0.0172
10410W        W27258   9.793  16.893  17.100  0.1581  0.0147 -0.0282
10411W        W27259   3.693   4.240   2.205  0.0278 -0.0636  0.1072
10412W        W27260   2.507  16.435  14.699 -0.1081 -0.2839  0.0388
10413W        W27261   0.897   8.549   0.695  0.1874  0.0316  0.0539
10414W        W27262   0.931  12.900  14.411  0.0275 -0.0265  0.2989
10415W        W27263   4.717   3.381   5.550  0.0562 -0.2449 -0.0848
10416W        W27264   1.149   1.842   0.740 -0.1885 -0.2442 -0.0452
10417W        W27265   3.551   0.605   3.833 -0.1034 -0.1201 -0.0425
10418W        W27266  14.431  10.622  13.192  0.3548 -0.0039  0.1893
10419W        W27267  14.182   2.979   2.028  0.0884 -0.2344 -0.1503
10420W        W27268  15.252   0.524   3.309 -0.0246  0.0066  0.2372
10421W        W27269   1.464   0.883  15.344 -0.1597  0.1900  0.0091
10422W        W27270   5.829  13.923   5.203 -0.2276 -0.4314  0.0900
10423W        W27271   9.051  14.475   0.806 -0.0608  0.0039 -0.1820
10424W        W27272   9.222  16.167  16.434 -0.0507  0.0937  0.0648
10425W        W27273   6.628  12.547   6.265 -0.0638 -0.1871  0.0994
10426W        W27274  13.819   9.287  13.835 -0.2116  0.1043  0.0024
10427W        W27275   2.316   5.719  16.693 -0.1471 -0.0482 -0.0899
10428W        W27276  15.806  11.142  14.151 -0.0817 -0.1936  0.3044
10429W        W27277   0.576  13.741   4.519 -0.1344  0.0962 -0.1399
10430W        W27278  16.937   2.205  15.416 -0.1321 -0.0076  0.0329
10431W        W27279  11.861   8.372  13.723 -0.0890  0.3808  0.4412
10432W        W27280   4.155  14.614  12.406 -0.1207  0.0240  0.2599
10433W        W27281  14.917   3.953  13.305 -0.0262 -0.0678 -0.2164
10434W        W27282   3.876  12.670   5.280 -0.0443 -0.2122  0.0108
10435W        W27283  14.993  12.812  16.284 -0.2081 -0.2549  0.0704
10436W        W27284   8.132  12.022   1.962  0.2109 -0.2876  0.1678
10437W        W27285  12.312   2.297   6.072 -0.2290  0.0159 -0.0542
10438W        W27286   9.957   9.491  13.179 -0.3355  0.2851  0.2860
10439W        W27287  10.675   9.100   4.005  0.0752 -0.2107 -0.1941
10440W        W27288   7.166  12.008   0.633 -0.4522 -0.1802 -0.4096
10441W        W27289   3.552   2.182   5.246 -0.3917  0.2023  0.0079
10442W        W27290  10.475   9.919   5.337 -0.0464  0.0127  0.2533
10443W        W27291  15.128  15.406  13.609 -0.0077  0.1279  0.0720
10444W        W27292   9.745   8.461   1.328  0.2245  0.4662  0.1073
10445W        W27293   4.114   1.573  13.118  0.0154  0.0154  0.1048
10446W        W27294   8.006   8.527   4.879 -0.0324  0.0419  0.0298
10447W        W27295  11.122  16.894  11.934 -0.0148  0.0036  0.2564
10448W        W27296  11.289  16.370  11.674 -0.2087  0.0213 -0.2466
10449W        W27297   4.596  14.658   1.972 -0.0716 -0.1771  0.3311
10450W        W27298  10.559   1.077   4.184  0.3396 -0.0270 -0.2167
10451W        W27299  10.988   0.001   0.694 -0.0144  0.1182 -0.1207
10452W        W27300   4.594  14.463  15.964 -0.0016 -0.0890 -0.0056
10453W        W27301  10.738  13.878   4.594  0.0440 -0.0690 -0.0485
10454W        W27302  16.930   6.126  16.959 -0.2621  0.4152 -0.0907
10455W        W27303  13.306   4.148  12.299  0.1061  0.2278  0.2348
10456W        W27304   4.192   2.915  13.933  0.0837  0.0988  0.0321
10457W        W27305   5.284   5.280  15.897 -0.2381  0.1576 -0.0730
10458W        W27306  10.743   5.924  14.781 -0.0305  0.5123 -0.2921
10459W        W27307  11.811   5.904  14.152  0.3634  0.1166  0.2320
10460W        W27308  15.154  12.699  13.573  0.1513 -0.0100  0.1796
10461W        W27309  13.819  16.455   4.996 -0.0567 -0.2175 -0.2260
10462W        W27310   7.949   4.976   3.405 -0.0254 -0.1732 -0.0191
10463W        W27311   3.548   3.195  17.169  0.0711  0.0423  0.4033
10464W        W27312  11.326   6.555   3.589  0.3195  0.0775  0.2927
10465W        W27313  15.240  10.722  13.114  0.1243 -0.1560 -0.1394
10466W        W27314   6.210  10.640   2.708 -0.0404  0.0162  0.0896
10467W        W27315  15.190   2.139   4.209 -0.2972  0.1798  0.3108
10468W        W27316  13.666  16.535  12.440  0.1166  0.3157 -0.1277
10469W        W27317   9.345   3.020   4.255  0.0344 -0.2382  0.0693
10470W        W27318  16.566  15.686   3.062 -0.1815 -0.2607  0.0441
10471W        W27319  11.455  14.754  15.810 -0.1812  0.0623  0.0303
10472W        W27320  13.522  15.258   4.890 -0.0289 -0.0675 -0.1280
10473W        W27321  16.619  15.946  16.879 -0.0901 -0.0232  0.0969
10474W        W27322   1.718   4.345   3.584  0.2165 -0.0747 -0.2206
10475W        W27323   6.750  10.219   0.892 -0.3441 -0.0466 -0.1726
10476W        W27324  16.166   1.628  13.536  0.2192 -0.3747 -0.0892
10477W        W27325  12.699   9.438   0.648 -0.5981  0.0496  0.1716
10478W        W27326   9.620  11.840  15.676 -0.1462 -0.1042  0.2614
10479W        W27327   9.097  12.705  16.890  0.2179 -0.0001 -0.1446
10480W        W27328   2.337  15.411   4.325 -0.1929 -0.0661 -0.1213
10481W        W27329   9.046  14.772  16.803 -0.2266 -0.1841  0.1382
10482W        W27330   2.812   7.431  14.224  0.2562 -0.0650  0.0653
10483W        W27331   5.157   5.934   0.462 -0.1947 -0.1711  0.0840
10484W        W27332  14.406   4.007   4.163  0.0663  0.2907  0.3522
10485W        W27333   2.215   2.795  13.355  0.0242  0.4006 -0.0928
10486W        W27334   9.984   2.960  14.247  0.1656 -0.1707  0.1533
10487W        W27335  16.565  11.070  16.183 -0.0709  0.0415 -0.3586
10488W        W27336   7.338   3.301  12.412 -0.1113 -0.0017  0.0577
10489W        W27337   5.730  15.167  12.174 -0.2852  0.1685 -0.0687
10490W        W27338   3.310   8.678  12.305 -0.0854 -0.1086  0.2003
10491W        W27339   8.375   3.280   4.471  0.2162  0.2528 -0.0103
10492W        W27340  12.992   3.356  15.880 -0.1356 -0.0133 -0.4598
10493W        W27341  13.551  13.117   2.471  0.1876  0.1177 -0.2798
10494W        W27342  12.144   4.509   2.200  0.3432  0.3732  0.1781
10495W        W27343  11.501   5.087   6.179 -0.3042  0.5442 -0.4713
10496W        W27344   8.878  15.349  15.983 -0.0088  0.2680  0.3239
10497W        W27345   0.684  12.027   5.111 -0.1297 -0.0723  0.0928
10498W        W27346   8.444  15.059  15.178  0.0379  0.2261  0.2153
10499W        W27347   1.817   7.078   2.355 -0.0200 -0.1671 -0.2246
10500W        W27348   0.475   6.116   1.410  0.2998 -0.0463  0.0399
10501W        W27349   5.677  15.942   3.473 -0.0082  0.2404  0.3040
10502W        W27350   0.698   1.057   4.207  0.4709 -0.1315 -0.0337
10503W        W27351   5.971  12.642   0.623 -0.0960  0.1836 -0.0433
10504W        W27352  13.328   8.490  12.212  0.0899  0.0994  0.2099
10505W        W27353  11.595  15.968  12.696 -0.0412 -0.1734  0.1586
10506W        W27354   1.464   2.551  15.320  0.0140  0.1031 -0.0866
10507W        W27355   1.120   0.637  15.089  0.0022  0.2260 -0.1120
10508W        W27356   1.695   5.343  13.765  0.0729 -0.2036  0.2710
10509W        W27357  10.698  15.886   1.226  0.0679 -0.4967  0.1478
10510W        W27358   3.029   1.046  12.818 -0.0957  0.0507  0.2007
10511W        W27359   8.148  17.034  12.270 -0.0031  0.1196 -0.3431
10512W        W27360  12.899   1.944  13.913 -0.0353  0.0891 -0.3508
10513W        W27361  11.907  16.772   4.119  0.1427 -0.2644 -0.2653
10514W        W27362   6.839   2.548  14.560 -0.0127  0.0540  0.0880
10515W        W27363  15.891   3.372   1.287 -0.0081  0.1331 -0.0357
10516W        W27364  14.761  11.390   5.194  0.0241  0.2972 -0.3814
10517W        W27365  11.175  16.897  16.033  0.0054 -0.2393  0.2243
10518W        W27366   7.517  10.969  12.327 -0.2131  0.2044  0.2394
10519W        W27367  15.825   0.689  12.387  0.0631 -0.3156 -0.0336
10520W        W27368   7.016   2.099  14.850 -0.0123 -0.3345 -0.3401
10521W        W27369  12.243  16.353  13.814  0.0238  0.0707 -0.0502
10522W        W27370   7.933   7.710  13.374  0.1700  0.1722 -0.0434
10523W        W27371   7.110  14.592  16.236 -0.0857  0.0941 -0.1584
10524W        W27372   7.296   8.789   2.755 -0.1073  0.4328 -0.3707
10525W        W27373   2.510   9.560   2.639 -0.0486 -0.0115  0.1277
10526W        W27374  15.063   8.298   1.556  0.0090 -0.3717  0.1558
10527W        W27375  12.719  17.166  16.740  0.1037 -0.0542 -0.2875
10528W        W27376   9.361  14.441   4.427 -0.1452 -0.3526  0.3281
10529W        W27377   8.151   5.033   2.894  0.0715  0.1472 -0.1986
10530W        W27378  12.605   2.920   0.295  0.2922 -0.2347  0.0862
10531W        W27379   7.220   9.285   4.215 -0.1774  0.0245  0.0458
10532W        W27380   1.651  14.190  15.557 -0.2050  0.3149  0.0318
10533W        W27381   2.526   0.593  14.705 -0.0334 -0.1245 -0.1543
10534W        W27382   9.960   0.436   4.653 -0.1403 -0.0688  0.0603
10535W        W27383   0.730  12.067   1.147 -0.4417  0.0877 -0.0979
10536W        W27384  12.185   0.268   2.249  0.1437 -0.1618  0.2391
10537W        W27385   1.424   1.558   2.353  0.1471  0.1826 -0.0729
10538W        W27386  14.738  17.050   2.013  0.4116 -0.0080 -0.2199
10539W        W27387   1.354  10.001   2.704 -0.4014 -0.3159  0.0047
10540W        W27388  12.401   5.792  13.274  0.2643  0.0056  0.3281
10541W        W27389   5.171  11.076   5.255  0.2313  0.0902  0.0019
10542W        W27390  13.577   6.754   0.178  0.1807  0.0035  0.1285
10543W        W27391   8.955   5.919   5.295  0.0730  0.0551  0.0853
10544W        W27392  11.850   6.177  10.642 -0.0734  0.1728  0.3527
10545W        W27393   2.635   2.630   3.825 -0.0957  0.2401 -0.0595
10546W        W27394   9.448  15.057  12.202  0.0286 -0.0905 -0.1724
10547W        W27395  12.785   8.501  14.053  0.0769  0.0957 -0.0575
10548W        W27396   3.578  16.267  16.590 -0.3246 -0.2452 -0.1175
10549W        W27397  12.308  12.335  14.062  0.1046 -0.2322  0.0550
10550W        W27398  15.344  12.934   4.824  0.1569  0.1227  0.1869
10551W        W27399   4.166  15.347   2.734 -0.3499 -0.0375  0.1413
10552W        W27400  12.153   5.295  14.786  0.2351 -0.2533  0.3590
10553W        W27401   9.752  11.246   2.175 -0.0720 -0.0778 -0.0303
10554W        W27402  10.744  16.886   3.186 -0.1563 -0.2697 -0.3812
10555W        W27403   0.500  15.282   2.213 -0.1174  0.2878 -0.0413
10556W        W27404   9.098   9.795  12.532 -0.1955 -0.0539 -0.1685
10557W        W27405   9.234  12.125   0.296 -0.0124 -0.0166  0.2325
10558W        W27406  14.710  16.635  14.817  0.0224  0.3107 -0.3831
10559W        W27407   2.853   9.194   2.770  0.3529 -0.0597 -0.1445
10560W        W27408  14.276  16.140  13.962  0.2622  0.4045  0.0131
10561W        W27409   2.092   5.191  17.494  0.0884 -0.0732 -0.1654
10562W        W27410  10.198  16.406  16.484  0.0015 -0.3502 -0.1895
10563W        W27411   0.378  13.424   0.680 -0.1178  0.3181  0.1537
10564W        W27412   0.197   1.618  13.213 -0.0314 -0.1702  0.3868
10565W        W27413  13.526  14.414  15.032 -0.1015  0.0808  0.0495
10566W        W27414  16.287   5.694  16.075  0.3515 -0.2267 -0.1737
10567W        W27415   7.550  13.889  12.942 -0.0801  0.1613 -0.0460
10568W        W27416   4.799   9.906  17.276  0.4759  0.3175  0.2042
10569W        W27417   6.146   5.317  12.957  0.0582 -0.0436 -0.1426
10570W        W27418   8.543  12.271   0.547  0.0350 -0.1008 -0.1440
10571W        W27419   7.179   0.603  15.150  0.0465 -0.1592  0.0015
10572W        W27420  11.829   2.878  12.429  0.2407  0.0689 -0.0161
10573W        W27421   7.597   2.655   4.270  0.3568  0.1888  0.0710
10574W        W27422  10.855   8.599   1.247  0.2080 -0.0475  0.0690
10575W        W27423  16.586   1.173  17.504 -0.3034  0.1718 -0.1354
10576W        W27424   4.720   0.365   5.163 -0.0062  0.3091  0.1392
10577W        W27425   7.325  11.917   4.066 -0.0528  0.1932  0.1344
10578W        W27426  10.421   7.509  13.778 -0.1617  0.2367 -0.0335
10579W        W27427   3.776   9.470   0.400 -0.1422 -0.2063  0.2219
10580W        W27428  11.366  11.454  14.848  0.1267 -0.1682 -0.3673
10581W        W27429   4.292  12.185   1.610 -0.2616  0.2106  0.0909
10582W        W27430  15.146  14.171   0.817  0.0145 -0.2219 -0.2287
10583W        W27431   3.124   7.803  13.236 -0.0946 -0.1271  0.1686
10584W        W27432   5.516  11.489   5.255  0.3244  0.1679  0.2854
10585W        W27433  16.119  11.843   0.709  0.0536 -0.0403 -0.1476
10586W        W27434   3.393  14.128   0.022 -0.0501 -0.0390 -0.0401
10587W        W27435   0.530  16.176   5.825  0.0606 -0.2254 -0.0111
10588W        W27436   3.511   9.839  15.612  0.0066 -0.2661 -0.1023
10589W        W27437  14.387   6.081  14.775  0.0209 -0.1167 -0.1914
10590W        W27438   6.560   9.792   4.761  0.1883 -0.0069 -0.0979
10591W        W27439  11.277   7.195  17.191  0.2311  0.0217  0.1612
10592W        W27440   8.915   2.136   1.268 -0.0991 -0.1274  0.1465
10593W        W27441   7.122  13.086   5.820  0.2418 -0.1535 -0.0531
10594W        W27442   3.722   9.717   2.539 -0.0150  0.0312 -0.2183
10595W        W27443   5.362  17.154   2.174 -0.1188  0.2342  0.0365
10596W        W27444   4.150  16.736   4.155 -0.0664 -0.0358  0.0736
10597W        W27445  13.768   4.892   4.423  0.1694 -0.0012  0.1079
10598W        W27446  11.257   9.384  17.735 -0.1200 -0.0423  0.0660
10599W        W27447  16.777  11.553  15.804  0.3156 -0.4443  0.2346
10600W        W27448  14.575   5.620  14.925  0.0111  0.0177 -0.1340
10601W        W27449  11.803   3.131   5.430  0.2582  0.0208  0.1565
10602W        W27450  11.746  10.762   2.927  0.0272 -0.1399  0.1247
10603W        W27451   0.519  16.139   4.041  0.0690  0.0647  0.1043
10604W        W27452   5.290  16.534  15.249  0.0196  0.0714  0.2588
10605W        W27453   1.302   6.588  13.707 -0.2495 -0.3882  0.0870
10606W        W27454   9.545  16.497  12.821  0.1561 -0.2537  0.0056
10607W        W27455   2.293   7.870  12.162 -0.1751 -0.2948  0.0875
10608W        W27456  16.774   0.470   3.655  0.1680  0.0361  0.1276
10609W        W27457   5.773  10.996  13.844  0.2200 -0.0385 -0.3406
10610W        W27458  11.626   8.621  15.895  0.0186  0.1519  0.0800
10611W        W27459   1.161   9.572  12.723 -0.1024 -0.0691 -0.0012
10612W        W27460   5.714  10.931   0.658  0.0254 -0.0631 -0.0089
10613W        W27461   2.798   5.230  15.026  0.0812 -0.1381  0.2072
10614W        W27462   6.489   1.483  12.428  0.0821  0.2426 -0.4434
10615W        W27463  10.694  12.415   2.974  0.4131 -0.3149 -0.0251
10616W        W27464   9.102   2.150  16.771 -0.0477  0.2684 -0.0626
10617W        W27465   4.281  13.339   4.868 -0.0863 -0.1116 -0.2717
10618W        W27466   0.694  10.446  16.540 -0.0390 -0.0329 -0.0552
10619W        W27467  11.270   7.386   0.555 -0.2633 -0.2622  0.0561
10620W        W27468  13.454  14.552   1.386 -0.1472  0.0717  0.0967
10621W        W27469   2.269  13.948   5.207 -0.1429 -0.0108  0.1848
10622W        W27470   7.694  12.767  15.088  0.0915  0.0906 -0.4218
10623W        W27471   1.013   5.688  17.486 -0.1738  0.2936  0.2013
10624W        W27472   8.735  15.487  16.653  0.3850 -0.0942 -0.3333
10625W        W27473   5.302   8.571  16.978 -0.2667  0.0732  0.1387
10626W        W27474  10.300   6.932   0.415  0.2673 -0.0481  0.1197
10627W        W27475   6.795  16.635   2.190 -0.0465  0.2155  0.1050
10628W        W27476   2.441  15.443   5.647 -0.2365  0.0300 -0.1832
10629W        W27477   0.443  13.512  15.105 -0.1605  0.1076 -0.1446
10630W        W27478   3.083   9.229  13.820 -0.0539 -0.4376 -0.2147
10631W        W27479   9.679   2.566  13.037 -0.4297 -0.1751  0.3137
10632W        W27480   9.227   5.145  12.163  0.1457  0.0420  0.2501
10633W        W27481   4.704   7.195   4.945  0.1506 -0.3301  0.0993
10634W        W27482  16.292  16.862  16.581  0.1756  0.1201  0.3939
10635W        W27483   1.695  13.833  15.198  0.0751  0.1554 -0.1587
10636W        W27484  16.588   8.725   1.121  0.2269 -0.0585  0.3202
10637W        W27485   6.798   3.129  14.150  0.1506  0.2984  0.2981
10638W        W27486   4.986   2.063  17.620 -0.1523 -0.1764 -0.3927
10639W        W27487   6.073  16.826   3.915 -0.1301 -0.0310  0.0182
10640W        W27488   1.373  13.220   2.202  0.0260 -0.2853  0.1075
10641W        W27489   1.815  11.291   3.128 -0.0724  0.0008 -0.0241
10642W        W27490  10.564  16.872   3.628  0.0492  0.2556  0.2561
10643W        W27491  13.840   9.544   0.799  0.0384  0.0850  0.0004
10644W        W27492   2.744   0.673  12.899 -0.1531  0.0640 -0.0483
10645W        W27493   0.409  11.726  16.549 -0.1334 -0.1795  0.1010
10646W        W27494  12.697  11.896   2.460  0.1847  0.1719  0.0518
10647W        W27495  13.771  11.515  17.305 -0.2934 -0.0586 -0.2578
10648W        W27496  13.323  16.951   5.174  0.1746 -0.0837  0.4879
10649W        W27497   6.099  13.497   4.607 -0.1445 -0.1160 -0.1495
10650W        W27498  16.934   1.563  14.733 -0.1830  0.2235  0.3274
10651W        W27499   2.342   9.899   0.564  0.1806  0.1974 -0.1861
10652W        W27500   0.055  12.193   4.162  0.1450 -0.0825  0.0950
10653W        W27501   5.881   5.068   0.557  0.0312 -0.1529  0.0429
10654W        W27502  15.206   5.650  14.396  0.2184  0.0102  0.0660
10655W        W27503   4.555   8.309  14.853 -0.1517  0.0445  0.0855
10656W        W27504   3.392   1.756   2.992  0.1110 -0.0156 -0.2021
10657W        W27505   5.538   5.996   2.290 -0.0672  0.1144  0.0871
10658W        W27506  11.989  10.068  14.533  0.2964 -0.4102 -0.0344
10659W        W27507  14.773  10.081  15.628 -0.1356 -0.0158 -0.2134
10660W        W27508   5.005   4.704  12.800  0.4570  0.0861  0.0582
10661W        W27509  11.932  15.077   4.212  0.2776 -0.0372 -0.0821
10662W        W27510   9.655   5.565  13.866  0.0728 -0.1687 -0.2380
10663W        W27511   5.757  11.677   5.710 -0.3795  0.3520  0.0794
10664W        W27512   0.218  10.296   3.360 -0.0064 -0.4004  0.1677
10665W        W27513   1.235   8.263  14.385  0.3179  0.0427 -0.0032
10666W        W27514   3.218   7.178   6.321 -0.1248  0.2678 -0.0511
10667W        W27515  13.732  15.716  14.153  0.2454 -0.0462 -0.2215
10668W        W27516  12.726   2.860   5.368 -0.1860 -0.0062 -0.0336
10669W        W27517   2.697   0.590   4.777 -0.1355 -0.0508  0.0004
10670W        W27518   2.641   2.123   4.028  0.0406  0.0074  0.4484
10671W        W27519   0.107   4.691   3.315 -0.0859  0.0633 -0.2230
10672W        W27520  10.149   5.215  10.672 -0.0397 -0.0787  0.1299
10673W        W27521  12.490  16.144   3.234  0.0442  0.2269 -0.0295
10674W        W27522   2.450   8.679   1.261 -0.0944 -0.2617  0.0129
10675W        W27523  10.234  10.778  12.483 -0.2115 -0.0251 -0.0157
10676W        W27524  10.258  13.022   3.475 -0.0802 -0.1435  0.0017
10677W        W27525   7.815   3.159   1.096 -0.1736  0.1718  0.1438
10678W        W27526  17.011  12.998   0.949 -0.2033  0.3510 -0.0501
10679W        W27527   3.761  13.243   6.759  0.1461  0.0619 -0.2364
10680W        W27528  15.341   1.280  16.398 -0.0385  0.1268  0.2363
10681W        W27529   5.892  16.071  14.543  0.2268  0.0671  0.0858
10682W        W27530   6.835   0.307   2.764  0.1161 -0.0366 -0.1708
10683W        W27531  12.217   3.434  12.806  0.2687 -0.0898 -0.1361
10684W        W27532  14.969   5.987  15.721 -0.1164  0.3026 -0.0771
10685W        W27533   4.200  16.789  12.164 -0.0495  0.2549  0.2862
10686W        W27534  15.509  12.599   1.398 -0.3418 -0.0557 -0.0328
10687W        W27535   7.887   4.537  14.288  0.2730  0.2098 -0.2547
10688W        W27536   5.804   7.182  17.552  0.0584  0.0763 -0.0697
10689W        W27537  12.969   6.602   2.280  0.0604  0.1451 -0.0677
10690W        W27538  14.499  14.405   3.173 -0.0102 -0.2427  0.1421
10691W        W27539   5.186  11.914   2.764  0.1365 -0.0257  0.1725
10692W        W27540  13.494   1.559  17.526 -0.1161  0.2259 -0.0375
10693W        W27541   4.672   6.908  13.928 -0.1202  0.0222  0.0249
10694W        W27542  10.519   2.743   4.936  0.0604 -0.0806  0.0592
10695W        W27543   9.380   4.330  13.721 -0.0440  0.0420  0.1212
10696W        W27544   7.533   1.745   1.997 -0.5047 -0.1315  0.0729
10697W        W27545   2.464  13.411   2.877  0.0330  0.0635  0.1401
10698W        W27546  16.085   5.239   0.547 -0.2077 -0.0987 -0.0946
10699W        W27547   7.724  11.273   1.894  0.0109  0.0174  0.3572
10700W        W27548  16.170  16.184  17.084  0.2051 -0.1456  0.2883
10701W        W27549  12.056   7.024  16.539  0.0751  0.2318 -0.2578
10702W        W27550  15.717   1.436  15.749  0.0853  0.0978  0.0986
10703W        W27551   6.644   6.763  14.672 -0.0750  0.0098  0.0565
10704W        W27552  14.166  13.853   4.927 -0.0979 -0.1047  0.6420
10705W        W27553  13.958  12.241  16.627  0.2465 -0.1105  0.3640
10706W        W27554   8.993  13.909  15.157 -0.0043 -0.2305 -0.2226
10707W        W27555  11.834   9.238  16.996  0.1247 -0.0017 -0.1011
10708W        W27556   6.691   5.368   2.958  0.0114 -0.2841  0.0805
10709W        W27557   9.350  14.160   2.446  0.0925 -0.2249  0.2060
10710W        W27558   5.257  14.447  14.447  0.1469 -0.1357 -0.1588
10711W        W27559   2.896   6.402   2.579  0.2489 -0.1125 -0.1755
10712W        W27560   0.785  16.234   1.052 -0.0549 -0.0237 -0.0775
10713W        W27561   9.227   8.353  12.461  0.1739  0.0423  0.0826
10714W        W27562   6.196  10.826   1.456 -0.1830  0.0001 -0.1173
10715W        W27563  11.123  16.262   4.385  0.3625 -0.0477 -0.1969
10716W        W27564   7.881   9.608  15.115  0.1733 -0.0256 -0.2572
10717W        W27565   6.612   1.788  16.122 -0.0357 -0.0335  0.0011
10718W        W27566   3.317  13.290   1.013  0.0810  0.0001  0.4464
10719W        W27567  12.931  16.185   4.680 -0.1269 -0.2414  0.1309
10720W        W27568   6.150  14.011   1.918  0.1290  0.0400  0.2222
10721W        W27569   4.253   3.755   2.026 -0.1028  0.2061 -0.0651
10722W        W27570   7.692   8.952  15.573  0.0862  0.1890  0.1844
10723W        W27571  10.082  16.580   2.792  0.0150 -0.0687 -0.1142
10724W        W27572  14.612   8.570  14.928 -0.1196 -0.0833 -0.0362
10725W        W27573   2.850  12.049   4.649  0.1240  0.1286  0.0928
10726W        W27574   7.438  10.990  12.821  0.0197 -0.1083  0.2486
10727W        W27575   2.910  12.762   0.424 -0.2977 -0.1828 -0.2545
10728W        W27576   6.210   9.325   2.636 -0.0311  0.0778 -0.0634
10729W        W27577   4.112  12.574   1.378  0.1721  0.0699  0.0634
10730W        W27578  11.720  13.540   2.551  0.2366  0.0774 -0.1948
10731W        W27579   3.891  15.384  17.518  0.2272  0.0370 -0.2226
10732W        W27580  14.061  10.627   1.658 -0.2114 -0.1188 -0.1298
10733W        W27581   6.648   1.523   5.775  0.1267  0.0714 -0.2841
10734W        W27582   2.415   6.341   1.546 -0.0033  0.2142  0.0793
10735W        W27583  11.589   7.647  12.474 -0.1537 -0.2246  0.2130
10736W        W27584   1.596   4.490  12.730  0.0522 -0.0900 -0.2368
10737W        W27585  12.543   8.860   0.582 -0.1224  0.2225 -0.0340
10738W        W27586   6.089  14.228   0.583  0.1209  0.2275  0.1140
10739W        W27587   4.864  13.492  14.368  0.1090 -0.0657  0.0599
10740W        W27588  10.773   7.171  14.635 -0.0220  0.0392 -0.1391
10741W        W27589   0.205  13.298   6.258  0.0172  0.1900  0.1102
10742W        W27590   3.029  16.253   1.644 -0.2451 -0.1606  0.2562
10743W        W27591  14.619  16.002   5.887 -0.1900 -0.0051  0.1729
10744W        W27592   7.205   7.907   1.630  0.2571  0.0272  0.2276
10745W        W27593   2.895   2.435   2.905 -0.3936 -0.5788 -0.3612
10746W        W27594   1.085  12.082   3.046  0.5163 -0.0955  0.0817
10747W        W27595   3.283   7.006   4.178  0.0449 -0.1000 -0.0111
10748W        W27596   1.533   4.566   2.530 -0.1159 -0.1574  0.0097
10749W        W27597   7.958  10.629  15.242 -0.0425 -0.0285  0.2112
10750W        W27598  16.865   6.106   3.769  0.0899 -0.0416 -0.1851
10751W        W27599  10.289   6.818  14.971 -0.0722  0.0349 -0.0791
10752W        W27600  12.905  14.722   2.917  0.0922 -0.0273  0.0169
10753W        W27601   9.601   4.595  14.514  0.1442  0.0876  0.4774
10754W        W27602  11.973   9.381  15.388  0.3387  0.1231  0.0529
10755W        W27603   9.664   2.030   4.419  0.0294 -0.2717  0.1968
10756W        W27604   3.710  12.466  14.668  0.0048 -0.1217 -0.1951
10757W        W27605  10.625  10.671   0.241  0.1502 -0.0457  0.0659
10758W        W27606  15.045  13.546   2.682 -0.0627 -0.3465  0.0450
10759W        W27607   6.531  17.072  16.274  0.1765  0.0738 -0.0849
10760W        W27608   5.464   8.375  12.985 -0.5367 -0.0783  0.2088
10761W        W27609  10.553   0.771  13.896 -0.0068  0.1157  0.1021
10762W        W27610  12.506   4.158  16.502  0.0475  0.2499 -0.1819
10763W        W27611   5.848  11.134   2.726  0.1298 -0.0951  0.1051
10764W        W27612  10.695   4.657  15.714 -0.0691  0.1489  0.1556
10765W        W27613  13.739  12.255  12.637 -0.3081  0.4721 -0.1537
10766W        W27614   4.033   8.733   4.942 -0.1983  0.0175 -0.0585
10767W        W27615   0.156   7.425   1.275  0.1691 -0.2240  0.2676
10768W        W27616   5.949  15.107  13.075 -0.2615 -0.0556 -0.0247
10769W        W27617  10.085  11.143  13.067 -0.3430 -0.1895  0.1548
10770W        W27618  13.473   7.775   1.922  0.1615  0.0047  0.0492
10771W        W27619  16.301   0.415   5.326  0.2500  0.0906 -0.1649
10772W        W27620  13.912   2.872  16.463 -0.2186  0.0944 -0.0971
10773W        W27621  12.794  16.392   1.412 -0.0051  0.0533 -0.1255
10774W        W27622   6.518  13.531   2.886  0.1289  0.0935 -0.2391
10775W        W27623  16.793  12.735  17.464 -0.2170  0.0417 -0.1780
10776W        W27624   7.423  15.586   1.567  0.0095 -0.2658 -0.0430
10777W        W27625   5.184  13.801   5.699 -0.1905  0.0266 -0.0872
10778W        W27626  14.514   5.978   3.553 -0.2410  0.1896 -0.0914
10779W        W27627   2.901  12.674  11.909 -0.1113 -0.0007 -0.0320
10780W        W27628   3.031  16.402   5.673 -0.1055  0.0391  0.0771
10781W        W27629  12.757   3.000   1.711  0.1870 -0.0523  0.1286
10782W        W27630   8.953   6.640   2.359  0.0405 -0.2531  0.1611
10783W        W27631   6.109  15.357  16.003  0.1705 -0.0027 -0.0251
10784W        W27632  16.346  12.762  11.976  0.1578  0.0460 -0.4665
10785W        W27633   5.035   5.804   1.962 -0.1189  0.0221  0.2362
10786W        W27634   3.806  15.680   2.912  0.2884  0.1541 -0.1178
10787W        W27635   9.302   8.260   4.988 -0.0167  0.2314  0.4063
10788W        W27636  10.491  16.149  12.126  0.2460 -0.0775  0.0895
10789W        W27637   1.311   0.034   4.199 -0.1455  0.1089  0.2056
10790W        W27638   8.961   9.295  14.708 -0.0230  0.0546  0.0489
10791W        W27639  15.541   5.868  17.028 -0.0700  0.2257  0.1278
10792W        W27640   8.879   7.358  16.275  0.1223 -0.1979  0.0550
10793W        W27641  11.795   9.602  12.858  0.1479  0.1730 -0.0404
10794W        W27642  15.155   3.460  15.999 -0.0099  0.2505 -0.0279
10795W        W27643   5.920   6.114   0.304 -0.1699 -0.0095  0.0361
10796W        W27644  12.494   7.280   5.754 -0.2102 -0.0066 -0.0647
10797W        W27645   1.755   2.263   5.834  0.0984 -0.2455 -0.1046
10798W        W27646   2.452  11.122  16.751  0.2992  0.0230 -0.4523
10799W        W27647   6.190  13.513  16.038  0.2952 -0.2104  0.0846
10800W        W27648   5.813  13.609   4.253  0.0779 -0.2721  0.0507
10801W        W27649   3.516  13.040   6.093 -0.1086  0.2864 -0.1468
10802W        W27650  13.369   3.692  15.991  0.1597 -0.2182 -0.0090
10803W        W27651   2.710  15.844  17.345 -0.0167  0.1133 -0.1828
10804W        W27652   1.927  14.244  16.991  0.4332  0.2697  0.1406
10805W        W27653  15.245  15.472   6.199 -0.1115 -0.1306 -0.1552
10806W        W27654  14.814   6.937   3.776 -0.0566  0.1289  0.0066
10807W        W27655   0.369  10.936   0.811  0.1778 -0.2048  0.1180
10808W        W27656  14.745   5.231   2.126  0.0894  0.0385 -0.0821
10809W        W27657  16.262   1.221  13.195  0.0453 -0.2858  0.0974
10810W        W27658   9.323   8.138  16.110  0.2256  0.1520  0.0164
10811W        W27659  15.620  10.580  12.321 -0.0043  0.2459 -0.3376
10812W        W27660   5.796   4.501   3.326  0.0287  0.1662  0.0136
10813W        W27661  14.360  15.806   4.442  0.1987  0.0412  0.0455
10814W        W27662   7.475   3.194  13.286 -0.0278 -0.1751  0.1267
10815W        W27663   4.951   6.435   6.592  0.2833 -0.2390 -0.1290
10816W        W27664  15.396   0.913   1.470 -0.0873  0.0039 -0.1457
10817W        W27665  14.776   6.972   2.675  0.0359  0.1515  0.0351
10818W        W27666   9.982   8.334  15.541  0.0344  0.0155  0.1204
10819W        W27667   0.707  15.552   0.826  0.3089  0.0044 -0.0350
10820W        W27668   7.779   3.768   3.997  0.3844  0.0001  0.4744
10821W        W27669  15.940  11.475   4.214  0.3256  0.0264  0.3204
10822W        W27670   6.874  10.052   5.067  0.0401 -0.1512  0.1080
10823W        W27671   6.468   2.559  16.439 -0.1517 -0.1090  0.3825
10824W        W27672  15.834   6.284   1.580  0.1746 -0.3775 -0.0419
10825W        W27673   8.389  12.233  12.892  0.3924  0.3700 -0.0881
10826W        W27674   9.841   0.727  11.498 -0.0505 -0.0621  0.0415
10827W        W27675   1.186  10.300  17.738 -0.1797  0.0440 -0.0925
10828W        W27676  16.507  14.807   1.606 -0.0713  0.0307  0.0661
10829W        W27677   3.811   3.203   4.316 -0.3161  0.3236 -0.0513
10830W        W27678  14.867   6.614  11.859  0.1622 -0.0885  0.0119
10831W        W27679   1.475  14.232   0.357  0.1797 -0.1725 -0.0132
10832W        W27680  16.172  15.446   5.118 -0.0997 -0.0804 -0.0474
10833W        W27681   1.391  15.837  12.705 -0.0422 -0.0189 -0.2684
10834W        W27682   6.245   8.618  13.845  0.2305 -0.0382 -0.0893
10835W        W27683  16.613   4.648   3.103  0.3228  0.1078 -0.0043
10836W        W27684  11.975   5.667  10.747 -0.0389 -0.2509 -0.2567
10837W        W27685  14.381   1.297   1.206  0.1083 -0.1366  0.0876
10838W        W27686   8.502   9.451   3.745 -0.0643  0.3097  0.3767
10839W        W27687   8.315  13.731  14.130 -0.2702  0.1969  0.2645
10840W        W27688   9.327  13.559  16.382  0.0162  0.0911  0.0919
10841W        W27689   0.949   9.240  13.048  0.3443  0.2332 -0.0940
10842W        W27690  11.003  14.767  17.302 -0.2909 -0.3288  0.0633
10843W        W27691   7.455   4.251  16.514  0.1925  0.0983 -0.0621
10844W        W27692  11.200  15.481   1.688 -0.3224 -0.2185 -0.0020
10845W        W27693  15.829  12.128   1.374  0.0480  0.3081 -0.1297
10846W        W27694   6.684   6.753   1.399 -0.0160  0.0347 -0.0013
10847W        W27695   6.698  10.479  13.017 -0.1365  0.1718 -0.2257
10848W        W27696   7.672   3.386  15.974  0.2477 -0.2578  0.1138
10849W        W27697  14.552   4.605  11.050  0.0125  0.2276  0.1357
10850W        W27698   0.703   9.149   4.504  0.0010  0.1790 -0.3173
10851W        W27699  14.608   5.026   3.799 -0.3764  0.1053  0.1597
10852W        W27700  13.039   2.454  14.508  0.3304  0.1490 -0.1486
10853W        W27701  13.716  12.038  17.258 -0.1044 -0.0828  0.1361
10854W        W27702  13.449  15.704  16.838 -0.2271  0.0010  0.1321
10855W        W27703   7.934  12.135   4.348 -0.0244  0.0591  0.2764
10856W        W27704  13.708  11.791   0.019 -0.2214  0.1880  0.0360
10857W        W27705   9.880  16.075  14.974 -0.1506 -0.0117  0.0980
10858W        W27706  11.503   1.572   3.118  0.0583  0.1375  0.0950
10859W        W27707   9.435  14.197   3.956  0.0352 -0.1124 -0.1287
10860W        W27708   8.372  10.758  12.610 -0.1605  0.1394  0.1392
10861W        W27709   4.600   8.557   2.647  0.0187 -0.0707  0.3941
10862W        W27710  11.787  16.657  17.455  0.2816 -0.1037 -0.2397
10863W        W27711  15.183   1.267   3.804  0.1404 -0.0378  0.1245
10864W        W27712  12.720   6.368  14.272 -0.0032 -0.0832  0.0213
10865W        W27713   8.784   2.801   4.502  0.2496  0.0468  0.1359
10866W        W27714   6.714   8.521  16.749 -0.0456 -0.2051  0.0242
10867W        W27715   3.961   8.431   4.410  0.1125  0.1920 -0.2433
10868W        W27716   3.069  15.811   3.401  0.1050 -0.4413  0.1942
10869W        W27717  10.846  13.324  15.631 -0.0785  0.0352 -0.0684
10870W        W27718  16.516   2.141   1.727 -0.1250 -0.1393  0.2086
10871W        W27719   6.151   2.182   3.013 -0.1723 -0.1286 -0.2869
10872W        W27720   7.567   5.366  16.920  0.2540  0.3350 -0.3392
10873W        W27721  12.993   6.514  15.702 -0.0459 -0.1976  0.1700
10874W        W27722   9.591   2.980  16.766  0.1594  0.1860  0.1964
10875W        W27723  15.971  12.649   2.136 -0.0313 -0.0786 -0.0975
10876W        W27724   2.026  12.494   5.666  0.1616 -0.3785  0.1604
10877W        W27725   1.997   9.556  16.039  0.0206 -0.1091  0.3317
10878W        W27726  14.553  11.408  16.995 -0.0913  0.2706  0.0517
10879W        W27727  12.575   9.034   1.462 -0.1012  0.1297 -0.0269
10880W        W27728   6.837  13.382  17.309  0.3605 -0.2795 -0.0589
10881W        W27729   8.275  13.182  13.172 -0.3787 -0.2645  0.4272
10882W        W27730   1.193   1.709   1.211 -0.0369  0.0077 -0.1651
10883W        W27731   7.605   9.300   5.239  0.1414 -0.1100  0.0069
10884W        W27732   4.867  13.779   3.159 -0.1661  0.3197 -0.0748
10885W        W27733   5.970   4.789  14.690 -0.2225  0.0357 -0.0866
10886W        W27734  12.576  14.393   3.378 -0.0066  0.2911  0.0826
10887W        W27735   8.698  10.427  14.729 -0.2325  0.0889  0.2795
10888W        W27736   4.220  13.381  15.133  0.3098  0.0844  0.0017
10889W        W27737   4.502  16.646  14.886 -0.1383 -0.0842  0.3243
10890W        W27738  13.873   1.041  16.585  0.5280  0.0303 -0.1321
10891W        W27739   6.270   0.175   4.582  0.3244  0.1742  0.1019
10892W        W27740  14.526  13.679  17.241 -0.1040 -0.3237 -0.0904
10893W        W27741   6.908  14.137  15.272  0.0349  0.1734  0.0090
10894W        W27742  13.882  15.848  12.478  0.0699 -0.0819 -0.2689
10895W        W27743  14.870   4.091  16.761 -0.0107 -0.1861 -0.1141
10896W        W27744  10.140  14.216  14.278 -0.0381  0.0729  0.0770
10897W        W27745   4.969  11.609   3.151  0.1528  0.4695 -0.1607
10898W        W27746   4.416   9.455   1.110  0.0502 -0.0235 -0.2716
10899W        W27747   9.834   3.227   4.251  0.1035  0.0431  0.1127
10900W        W27748   3.868  12.833   3.400 -0.3476  0.0003  0.2956
10901W        W27749   0.041   8.885  17.775 -0.2893 -0.0059 -0.1261
10902W        W27750  15.163   9.477   3.793 -0.1055 -0.1050 -0.1010
10903W        W27751  13.324   9.880  11.738 -0.1462 -0.0555  0.1547
10904W        W27752   4.506  12.939   2.168  0.0160  0.0786 -0.1074
10905W        W27753   9.940   2.493  16.823 -0.0894  0.2409  0.1352
10906W        W27754  10.193   6.994   2.601  0.1958 -0.2044 -0.0398
10907W        W27755   5.747  13.726   2.114 -0.1406 -0.1701 -0.2198
10908W        W27756   2.292   0.962  16.500 -0.0647 -0.0739  0.0292
10909W        W27757  13.589   5.417   2.707 -0.0402 -0.2164  0.2849
10910W        W27758   9.399  13.747   6.110  0.3300 -0.1218 -0.2149
10911W        W27759  10.118   4.222   4.633 -0.1914  0.2804  0.0618
10912W        W27760   5.378  10.038   2.106  0.1826 -0.0058 -0.0142
10913W        W27761   1.037   0.115  13.669  0.3924 -0.0309 -0.0868
10914W        W27762   2.295  12.382  12.983  0.1248  0.3493  0.0057
10915W        W27763  10.903   4.025  15.053  0.0885 -0.2657 -0.1179
10916W        W27764   2.669   2.729  15.188  0.1021  0.3047  0.1494
10917W        W27765   5.099   2.346   0.550  0.0725 -0.2026  0.2387
10918W        W27766  12.821   6.467  16.165 -0.0669 -0.1421 -0.2214
10919W        W27767   2.421   9.148  14.630 -0.0759 -0.2495  0.0440
10920W        W27768   6.238   8.603   5.314 -0.2025  0.1792  0.1019
10921W        W27769   5.769   2.038  13.063  0.3224 -0.0587  0.1511
10922W        W27770   1.240   8.847  13.325  0.0635 -0.2961 -0.1712
10923W        W27771  14.745  17.088   5.694 -0.0615 -0.0991  0.0593
10924W        W27772   3.415   9.408   0.849  0.1948  0.1151  0.0981
10925W        W27773   3.224   3.320   2.054  0.0485  0.3498 -0.3333
10926W        W27774   1.951   2.255   3.359 -0.1856 -0.4335 -0.1436
10927W        W27775   9.798  13.455  14.827 -0.0748  0.0763 -0.4433
10928W        W27776  15.828  11.907   5.521  0.2325 -0.2662  0.1060
10929W        W27777   6.119  11.684   2.589 -0.1020 -0.0310  0.0732
10930W        W27778   2.477  12.051   2.114  0.1260 -0.0894 -0.0894
10931W        W27779   0.843   4.483  16.210 -0.0953 -0.1228  0.1524
10932W        W27780  10.990   5.141  15.568 -0.0072  0.1470  0.2073
10933W        W27781   5.350  15.854   4.723 -0.0292  0.1611 -0.0745
10934W        W27782   6.713   8.919   3.443 -0.0372  0.0214 -0.0528
10935W        W27783   6.589  15.340  15.841 -0.0200  0.1171 -0.1622
10936W        W27784  10.835  16.200  11.559  0.1202 -0.2442 -0.1166
10937W        W27785  14.469  15.208  17.339 -0.0741  0.1720 -0.0150
10938W        W27786   2.433   5.827  14.954 -0.0496  0.0520 -0.0372
10939W        W27787   5.209   7.179   4.659  0.2707 -0.0484  0.0900
10940W        W27788   6.769   0.324   1.331  0.2324  0.3096  0.0041
10941W        W27789   9.749   3.686  17.142 -0.2399 -0.1244  0.0570
10942W        W27790   2.805   6.171  14.989 -0.1352  0.2253  0.1190
10943W        W27791  15.812   5.629  11.796  0.1160  0.1984 -0.0468
10944W        W27792   7.465  16.568  14.698  0.1012  0.0504 -0.3875
10945W        W27793  16.259   6.922   1.095 -0.1526  0.1405 -0.4384
10946W        W27794   4.485   4.765  12.844  0.0038 -0.1372 -0.0041
10947W        W27795  10.554   0.874   1.611  0.2039  0.1312 -0.2232
10948W        W27796  10.783  15.531   2.490 -0.2675  0.0897  0.1177
10949W        W27797   3.426   9.184   4.335  0.1820  0.3905 -0.3098
10950W        W27798   5.738  14.048  14.412 -0.2371 -0.0469 -0.0147
10951W        W27799  13.567  14.208   3.663 -0.0135 -0.0741  0.1094
10952W        W27800   4.535  16.166  17.476  0.2212  0.0601  0.3326
10953W        W27801  15.310   7.986   3.066 -0.1349  0.2995  0.1023
10954W        W27802  13.007   4.063  14.650 -0.4275 -0.0164  0.0795
10955W        W27803  14.478   7.909  17.019 -0.2718  0.1607  0.0285
10956W        W27804  12.143   2.444   4.858  0.0911 -0.0335 -0.3583
10957W        W27805  11.204  16.485   2.850 -0.2299  0.0960 -0.0261
10958W        W27806   2.394  16.557   3.558 -0.0217  0.2748  0.1142
10959W        W27807   1.112   7.296   4.639 -0.2154  0.4195 -0.2309
10960W        W27808  16.921  12.366  13.711 -0.3327  0.1068 -0.4079
10961W        W27809   4.106   5.670  12.671  0.0031 -0.3318 -0.1869
10962W        W27810   6.525  16.007  17.057 -0.0426 -0.0969  0.2800
10963W        W27811  11.921   5.701  12.445 -0.1739 -0.1817 -0.0486
10964W        W27812  14.477  12.840   4.142  0.0042  0.0104 -0.0629
10965W        W27813   0.721  11.006  12.790 -0.0829  0.1105  0.1066
10966W        W27814  10.150   2.889  16.566 -0.4076 -0.0338  0.3642
10967W        W27815  11.397  11.556   4.130  0.0070  0.2152  0.0528
10968W        W27816   7.206   4.053   5.379  0.1558 -0.1661  0.0311
10969W        W27817  16.714   8.548  15.795 -0.0291  0.0334 -0.2931
10970W        W27818   2.123   5.435   3.264  0.0863  0.1660  0.2700
10971W        W27819  15.270  11.345   1.628 -0.1648 -0.1514  0.0224
10972W        W27820   5.344  16.639   3.002  0.0714 -0.0333 -0.1815
10973W        W27821   3.534   9.144   2.531 -0.1185  0.0825 -0.3325
10974W        W27822   7.668   8.733  12.461 -0.1402  0.1725 -0.4844
10975W        W27823  12.578  14.268  15.691  0.1620 -0.0162 -0.2584
10976W        W27824  16.862   2.142  15.971 -0.0081  0.1624  0.4430
10977W        W27825   0.477   2.205   3.988 -0.2108  0.2972 -0.1047
10978W        W27826  13.651   7.449   0.797  0.0677  0.0333  0.1426
10979W        W27827  11.753   7.896   1.616  0.0273  0.3491  0.1330
10980W        W27828   2.237   9.322  12.560 -0.1801  0.4146  0.1746
10981W        W27829  10.303   0.558  16.609  0.2130  0.1098  0.0447
10982W        W27830  14.816   9.839   2.124  0.2105  0.0787  0.0387
10983W        W27831   5.307  14.941  14.396 -0.0014  0.0148 -0.1362
10984W        W27832  16.868  13.409   4.470  0.1681  0.0505 -0.0830
10985W        W27833   1.730  10.498   3.078  0.1933 -0.2554  0.1845
10986W        W27834  10.909   7.038   5.296  0.2220 -0.1198 -0.0385
10987W        W27835  13.015   7.738   1.782 -0.0480  0.1556  0.1328
10988W        W27836   1.375  16.907  17.648 -0.1332  0.0566  0.0660
10989W        W27837  13.131  15.071  14.458  0.0578 -0.0684  0.0845
10990W        W27838   8.773   5.600   4.893 -0.3150  0.0137 -0.1887
10991W        W27839   4.083   5.585   0.074 -0.0207  0.0703 -0.3054
10992W        W27840  17.136  15.071  15.300 -0.1168  0.2841 -0.1209
10993W        W27841  13.043  10.618  15.381  0.0873 -0.1967  0.2093
10994W        W27842   5.435   0.198  15.749  0.1144  0.3571 -0.2889
10995W        W27843  12.112  13.527  14.251  0.0136  0.0300 -0.4093
10996W        W27844  15.250  10.526   5.777 -0.2487  0.0946 -0.0019
10997W        W27845   9.697   8.047  14.493  0.2767  0.1270  0.0742
10998W        W27846   5.003  11.546  14.476  0.1643 -0.0312 -0.0171
10999W        W27847   2.851   6.286  16.457  0.2928 -0.1449  0.0851
11000W        W27848   5.229  13.701  16.898  0.2160  0.1139  0.0407
11001W        W27849   5.544  11.251  14.679  0.0499 -0.2880 -0.0707
11002W        W27850   2.031  13.819   4.775 -0.0791  0.3079 -0.1208
11003W        W27851  12.861   8.334  12.110 -0.0162 -0.1625  0.2582
11004W        W27852   8.849   1.831   0.828  0.0796 -0.0546  0.1407
11005W        W27853  11.264   1.870   0.632  0.3065 -0.0662  0.0086
11006W        W27854   0.954  15.878   5.967 -0.1462  0.1216  0.1308
11007W        W27855  11.381  12.643   6.221  0.1971 -0.0487 -0.2347
11008W        W27856   4.620   5.374  14.748  0.2654  0.5010 -0.3067
11009W        W27857  14.889   9.156   1.771  0.2526 -0.1272  0.0515
11010W        W27858   8.888   8.748   0.102  0.0848  0.2058 -0.1089
11011W        W27859  14.603  11.193   2.213 -0.3958  0.3533 -0.0126
11012W        W27860   8.032  11.147  12.315 -0.0286 -0.0691 -0.4528
11013W        W27861   0.843   1.358  13.657  0.2617 -0.1879 -0.3194
11014W        W27862  10.253   0.832   3.893 -0.0635 -0.1218 -0.1642
11015W        W27863   4.833   2.567  13.796  0.1519 -0.0656  0.3330
11016W        W27864  12.836   1.383  13.079 -0.2096  0.2288 -0.0838
11017W        W27865   5.885  10.641   1.854  0.1805 -0.0291 -0.1159
11018W        W27866  12.223   6.654   3.531  0.0669  0.0115  0.0824
11019W        W27867   0.115   9.774  13.561  0.2212 -0.1555  0.1855
11020W        W27868   2.575  13.627   6.103  0.0974 -0.1648 -0.2127
11021W        W27869   9.841   9.756  15.431 -0.3772 -0.5496  0.0713
11022W        W27870   7.159  12.845  14.957  0.0419  0.2626  0.1598
11023W        W27871  14.008   0.420   5.771 -0.3170  0.1439  0.1509
11024W        W27872   5.313   4.327   4.516 -0.0353 -0.2789 -0.1396
11025W        W27873  11.583   3.889  14.426  0.0407  0.0818 -0.0892
11026W        W27874   2.508   5.019   1.432 -0.0794 -0.0151  0.0840
11027W        W27875   4.048  10.941   0.726  0.1052  0.1398  0.0802
11028W        W27876   3.980   4.051   2.827  0.1307  0.2560 -0.1582
11029W        W27877  11.912  11.843   4.877  0.1664 -0.0345  0.0462
11030W        W27878   9.843  11.040  11.717  0.0035 -0.0350  0.0292
11031W        W27879  12.648   4.631  17.431 -0.0539  0.2926 -0.0656
11032W        W27880   5.713   5.069  12.921 -0.2162 -0.0101  0.1956
11033W        W27881  15.771  11.739  15.424 -0.0677 -0.0454  0.2467
11034W        W27882   1.228  14.404  15.372  0.1079 -0.1614  0.0904
11035W        W27883  10.531  11.244   6.125  0.3414  0.0508 -0.3773
11036W        W27884   9.553  10.509  15.882 -0.0113 -0.0223 -0.2626
11037W        W27885  15.416   7.408   4.383 -0.0860 -0.1046 -0.1303
11038W        W27886  12.639   5.584  12.875 -0.0361  0.0690 -0.2323
11039W        W27887   7.556   8.475  13.786 -0.1311  0.1834  0.1946
11040W        W27888   2.888   6.158  11.990 -0.0017  0.2276 -0.0752
11041W        W27889  15.028   1.847  13.493  0.2335  0.3527  0.0040
11042W        W27890   2.321   3.712  15.076 -0.2677  0.2183 -0.0795
11043W        W27891  12.959   7.024   0.900 -0.0938 -0.1106  0.0567
11044W        W27892  10.677   5.919   0.927  0.1848  0.2229  0.1520
11045W        W27893  10.998  15.120   3.495 -0.0683 -0.0223  0.1794
11046W        W27894   0.405  10.093  16.920  0.1459 -0.2529 -0.0786
11047W        W27895   5.077  14.646   5.312  0.2324  0.2543  0.1424
11048W        W27896  13.335  14.029   2.704 -0.0685  0.1858  0.0734
11049W        W27897  15.875  14.162   5.757  0.1619 -0.0415  0.0312
11050W        W27898  14.026  11.378   2.251 -0.2469  0.1350  0.0261
11051W        W27899  14.485   5.883  13.783  0.0250  0.1719  0.1158
11052W        W27900   7.045   5.390   1.557 -0.2208 -0.0892  0.0177
11053W        W27901  11.213   4.985   3.975  0.0074 -0.0002 -0.2209
11054W        W27902   0.907  16.502  15.338 -0.2673  0.0553 -0.2756
11055W        W27903   5.601   5.882  15.207  0.3915  0.1908  0.0519
11056W        W27904  13.332   7.244  16.900 -0.1769 -0.1926  0.0153
11057W        W27905   5.569  16.034  16.942 -0.3760 -0.0817  0.0554
11058W        W27906   1.672  17.076  13.007 -0.0792  0.0562  0.0867
11059W        W27907   2.161   2.642   5.900 -0.0200  0.1376 -0.0967
11060W        W27908  13.782  14.091  13.195 -0.1025  0.0284 -0.4664
11061W        W27909   1.794   5.718   4.714 -0.2050  0.1032  0.2485
11062W        W27910   7.574   2.359   0.017  0.2676 -0.3235 -0.1848
11063W        W27911  14.656  10.582  15.804  0.0231  0.1634 -0.1669
11064W        W27912   7.191   4.958  12.878  0.0986  0.1140  0.0987
11065W        W27913  11.002  12.834   2.791  0.2826  0.0541 -0.0288
11066W        W27914   6.035  13.596  17.069  0.0014  0.0885  0.1589
11067W        W27915  16.463   9.505   2.368  0.0302  0.3072  0.0465
11068W        W27916   0.541  11.219   2.845  0.1080 -0.0153 -0.0706
11069W        W27917   6.349  16.254  14.499  0.2819 -0.0606 -0.1922
11070W        W27918  11.649   4.440  13.654 -0.2384  0.3553  0.3241
11071W        W27919  15.677   4.993  13.100  0.1620 -0.0993 -0.0050
11072W        W27920  16.520  14.181   1.091 -0.0036 -0.1486 -0.1783
11073W        W27921   6.298   3.462  15.368 -0.0009 -0.1781  0.1991
11074W        W27922   4.330  14.647  12.867 -0.1215 -0.1425  0.2117
11075W        W27923  13.228   2.503   2.909 -0.2408 -0.0749  0.1428
11076W        W27924   5.876   4.164   5.705  0.1896 -0.0643 -0.1598
11077W        W27925   4.218   1.945  14.831  0.1075 -0.2400  0.1657
11078W        W27926  10.267  10.300   0.999  0.0693 -0.0496 -0.1048
11079W        W27927  11.963   0.445   2.686  0.1425 -0.0363  0.3108
11080W        W27928  10.117  13.112  14.859  0.1013  0.3082  0.2041
11081W        W27929  10.516   9.328   3.413 -0.0106  0.3443  0.0305
11082W        W27930  13.772   3.523  15.704  0.2621 -0.2627 -0.1589
11083W        W27931   0.612   4.616   3.244 -0.0779  0.2060 -0.2910
11084W        W27932   4.227   6.709  16.974 -0.2289  0.0028  0.3060
11085W        W27933   4.482  14.949   5.097 -0.0669  0.1063  0.0700
11086W        W27934  14.705  14.124   6.517 -0.0762  0.0470  0.1895
11087W        W27935  16.359   5.519   2.714 -0.0528  0.1835  0.1170
11088W        W27936   6.409  10.070   1.305  0.1824  0.1711 -0.2255
11089W        W27937  10.826   4.995   1.062  0.1371  0.1651 -0.1922
11090W        W27938  15.763   3.018  13.142 -0.4020  0.2481  0.2188
11091W        W27939  16.870   9.685  13.257  0.1644 -0.0516 -0.2338
11092W        W27940   7.435  14.694   4.809  0.4027 -0.2056  0.1089
11093W        W27941   7.945   2.997   4.461  0.0544  0.0094  0.0703
11094W        W27942  11.214   1.858   3.417  0.3084 -0.1987  0.0501
11095W        W27943   0.170  16.815  14.378  0.1203  0.1501 -0.1907
11096W        W27944   5.695   8.436  13.392  0.0112  0.2753 -0.0236
11097W        W27945  11.661  13.892   1.863  0.1224 -0.3557  0.0404
11098W        W27946   4.220   7.976  14.479  0.1333 -0.1276  0.2388
11099W        W27947   7.395  10.042  15.691 -0.2274  0.0152 -0.0599
11100W        W27948  16.383   4.828   1.410 -0.0726 -0.0199 -0.0438
11101W        W27949  15.407   5.466   3.067 -0.0604 -0.3882 -0.1641
11102W        W27950  12.942   1.244  12.204 -0.0832  0.0716 -0.0223
11103W        W27951  10.135  14.243   2.880 -0.1706  0.0673  0.0276
11104W        W27952   3.590   0.914   3.120  0.1478  0.0386  0.1749
11105W        W27953  16.218   4.876  13.586  0.0355 -0.2130  0.1226
11106W        W27954  16.583  11.921   3.136 -0.2492 -0.1363  0.1570
11107W        W27955   6.061   1.056   3.797 -0.1824  0.1609  0.0517
11108W        W27956   9.868   6.066   0.562 -0.0298  0.2085  0.0435
11109W        W27957  11.308   2.873  14.277 -0.1386  0.0474 -0.2270
11110W        W27958   0.314   0.972   3.550 -0.0130  0.2131 -0.2918
11111W        W27959  10.854   7.057  12.073 -0.0789  0.0745 -0.0402
11112W        W27960   3.822  16.088   3.728 -0.2036 -0.3097  0.1188
11113W        W27961   7.516  15.632  15.746 -0.0825  0.2420 -0.5063
11114W        W27962   1.548   5.660  17.362  0.2149 -0.2301 -0.0030
11115W        W27963  16.125   9.125  15.218 -0.3158 -0.0956  0.1542
11116W        W27964  13.081   4.390   2.522 -0.1192 -0.2710 -0.2470
11117W        W27965  16.651  11.580  14.943  0.3522 -0.2469  0.1162
11118W        W27966  11.864   3.058   1.286  0.1191 -0.0639  0.2990
11119W        W27967  13.953   0.157   0.146 -0.2197 -0.3302  0.1827
11120W        W27968   4.611   9.582   6.316 -0.2548 -0.2143 -0.2788
11121W        W27969  11.244   4.035  14.726  0.1113  0.0305  0.1562
11122W        W27970  13.274   8.132  13.297  0.0998  0.1418  0.1772
11123W        W27971   4.280   3.487   0.669 -0.4107  0.2471 -0.2763
11124W        W27972   2.743  13.191   0.124  0.3079 -0.0616 -0.2067
11125W        W27973   9.341   0.370   4.866  0.0182 -0.0348 -0.2470
11126W        W27974  12.290   0.296  13.735  0.0870  0.3883 -0.0907
11127W        W27975   9.997  17.002  14.749 -0.0349  0.0719 -0.1363
11128W        W27976  15.188  11.949  17.436 -0.0538 -0.0456 -0.0838
11129W        W27977  15.042   9.620  14.989  0.2774  0.1829 -0.1635
11130W        W27978   5.881  11.572  13.890 -0.0986  0.2676 -0.0554
11131W        W27979  10.754  14.820  12.573  0.0155  0.0639  0.0711
11132W        W27980  12.488   1.756   0.024  0.4572 -0.2595  0.1734
11133W        W27981   7.000   3.786   4.681  0.0416 -0.0094 -0.3423
11134W        W27982   5.977  10.971  17.079  0.0194 -0.3195 -0.0775
11135W        W27983  12.844  16.167   0.921  0.0746 -0.1738 -0.1542
11136W        W27984   3.587   2.428   1.461  0.1073  0.0401  0.3061
11137W        W27985  16.432   1.036   4.447  0.0750  0.3146  0.0493
11138W        W27986   5.326  15.612  16.632  0.0927 -0.1322  0.0898
11139W        W27987   8.894   6.070   1.452 -0.2058  0.2269 -0.3294
11140W        W27988  14.172  15.653   1.165  0.0895 -0.0440 -0.0736
11141W        W27989  10.711  12.958   3.653  0.1653  0.1672 -0.0140
11142W        W27990   8.390  10.236   3.254 -0.3494  0.2628  0.2985
11143W        W27991   0.915   8.325  14.728 -0.0509  0.1452 -0.1951
11144W        W27992   6.547  15.536   0.418 -0.0326  0.2284 -0.1385
11145W        W27993  16.153   4.536   1.055  0.0220  0.2205 -0.2416
11146W        W27994  16.226   8.267  13.797 -0.2920  0.0218  0.0902
11147W        W27995   7.677  11.513   1.335 -0.4897 -0.1214  0.0558
11148W        W27996   6.357   7.567  14.031 -0.0132  0.1018  0.1005
11149W        W27997  12.226  14.355   4.533  0.0567 -0.0246 -0.2820
11150W        W27998   4.602   3.243   2.363  0.1052  0.2587 -0.1098
11151W        W27999  12.837   3.563  17.137 -0.2068  0.0909 -0.3309
11152W        W28000   6.573  16.019  13.173  0.1608  0.1479  0.1254
11153W        W28001   5.674   0.821  17.554  0.1391  0.2093 -0.1467
11154W        W28002   4.750   9.090  14.255 -0.2460 -0.1460  0.0023
11155W        W28003  13.514   9.579  15.903 -0.2685 -0.2054 -0.3056
11156W        W28004   2.079   3.695  14.647  0.1371 -0.1788 -0.1143
11157W        W28005  13.231   7.155  16.320 -0.0782  0.0570  0.1002
11158W        W28006   0.032  13.377   5.767 -0.1829 -0.3512  0.0735
11159W        W28007   3.232  12.736  11.565  0.3029 -0.1608  0.0242
11160W        W28008  13.963   7.742  16.655 -0.0549  0.0582 -0.0093
11161W        W28009   8.753   4.524  11.712  0.0965  0.1897 -0.0470
11162W        W28010  13.824   7.073   5.038 -0.1508  0.3044  0.0504
11163W        W28011  15.970  12.600   0.057  0.0229 -0.0010 -0.0839
11164W        W28012  14.349   3.754   2.399 -0.2437 -0.1316  0.0681
11165W        W28013  12.184   7.119   3.927 -0.3728 -0.2160 -0.2057
11166W        W28014  15.017   8.014   1.108  0.0544  0.0588  0.0896
11167W        W28015  15.120   3.553   1.696  0.0076 -0.0032 -0.0485
11168W        W28016   6.591   6.024   4.794  0.0637  0.1850  0.2638
11169W        W28017  13.836   0.419  15.130  0.0601  0.1300  0.0646
11170W        W28018  13.175   2.140   5.198 -0.1145  0.1216 -0.0065
11171W        W28019  12.888  14.098  14.260  0.1549  0.0227 -0.0407
11172W        W28020  12.090  14.210  15.447  0.0593  0.1790  0.3249
11173W        W28021   7.018  15.213   1.778  0.0179 -0.3918  0.0564
11174W        W28022  17.137   5.314  13.423 -0.1681  0.0339 -0.1614
11175W        W28023  13.111   9.635  11.102 -0.1743 -0.0276  0.1324
11176W        W28024   1.547  15.164  17.633 -0.0973  0.0528  0.4062
11177W        W28025   5.901  13.601  14.170 -0.1796  0.1925 -0.1070
11178W        W28026   3.507   8.164   3.896 -0.2146 -0.0512  0.1057
11179W        W28027   7.155  16.359   4.446  0.2240 -0.1606  0.3347
11180W        W28028   7.379  14.531   3.529 -0.0217 -0.0996  0.1979
11181W        W28029   0.892   1.467  15.529  0.1294 -0.0871  0.2040
11182W        W28030   3.371  16.976   0.613 -0.1853 -0.0027  0.1586
11183W        W28031   4.805  14.854  14.210  0.2402  0.0299  0.0078
11184W        W28032  14.475   8.581   2.564 -0.0202  0.0297  0.3493
11185W        W28033  10.346   8.764   4.310 -0.2424  0.0620 -0.2927
11186W        W28034   1.373  12.578   6.940  0.2870  0.0586 -0.0598
11187W        W28035  12.311   0.873  14.291  0.0748  0.0969 -0.0995
11188W        W28036  10.244   9.738  14.987  0.1344 -0.4495  0.0812
11189W        W28037   6.589  16.220  11.184  0.2749  0.1178 -0.0243
11190W        W28038  15.166   9.946  15.891 -0.0789 -0.0721 -0.0590
11191W        W28039   0.407  14.282  15.365  0.0888  0.1952 -0.1037
11192W        W28040   3.939  13.501  17.066 -0.0178 -0.2401  0.2079
11193W        W28041  14.714   9.000   2.722 -0.2552  0.0942 -0.0556
11194W        W28042  11.228  16.962  12.862  0.2503  0.0838 -0.2899
11195W        W28043   6.172   6.946  16.127 -0.1456 -0.0412 -0.2932
11196W        W28044   3.197   9.515   2.705  0.1086 -0.0614  0.1053
11197W        W28045   1.150   3.239   3.549 -0.2302  0.1009  0.1517
11198W        W28046   0.920  12.414  12.697 -0.1765 -0.0776  0.1890
11199W        W28047   1.642  12.868   1.824 -0.1877  0.1100 -0.0370
11200W        W28048   9.819   7.733  11.840 -0.4024  0.2526 -0.0266
11201W        W28049  16.683   0.968   1.062  0.1827  0.0056 -0.2494
11202W        W28050   4.551  17.125   2.627 -0.1393  0.0631  0.0249
11203W        W28051  12.043   5.573  15.230  0.1642  0.0794  0.1006
11204W        W28052  13.734   6.848  17.394  0.1270  0.2449  0.1532
11205W        W28053   5.821  13.052   5.341 -0.2676  0.1405 -0.0557
11206W        W28054   4.921   7.746   3.778 -0.2079  0.4362  0.0896
11207W        W28055   6.770   0.742   0.519  0.0418 -0.2790  0.0836
11208W        W28056   7.894   2.099   2.076 -0.0221 -0.1300 -0.1065
11209W        W28057  15.716   6.927  14.169  0.0444 -0.3549 -0.1653
11210W        W28058   2.156  11.692  14.952 -0.1277  0.1844 -0.1675
11211W        W28059   7.305  11.190   1.085  0.4665 -0.0541  0.2497
11212W        W28060   2.480   7.358   3.575 -0.0925 -0.1380 -0.3857
11213W        W28061  12.416   9.743  14.392 -0.0771  0.0401 -0.0107
11214W        W28062   3.192  12.792   5.518  0.2034 -0.1259  0.1478
11215W        W28063   6.721   1.072   0.028  0.1076 -0.1803 -0.0999
11216W        W28064   5.717  11.652  15.219  0.2846 -0.3243  0.2611
11217W        W28065   8.329   5.211   1.648  0.0501  0.2096  0.3013
11218W        W28066  14.624   8.872  15.664  0.1165 -0.2185 -0.0074
11219W        W28067   2.947   3.923   2.741  0.0522  0.5355 -0.0505
11220W        W28068   0.301   3.277   0.574  0.1832  0.2216  0.0880
11221W        W28069   2.689   6.158   6.114  0.3935 -0.1272  0.0400
11222W        W28070   0.952   5.880   3.787 -0.1701  0.1665  0.0601
11223W        W28071   7.611   1.144  14.537 -0.0996  0.1466 -0.0312
11224W        W28072  17.018   3.119  17.504 -0.1793 -0.1480 -0.0162
11225W        W28073   3.574   1.116   3.735  0.1910 -0.3546  0.0092
11226W        W28074   7.108  16.580   1.347  0.0560 -0.1629 -0.1263
11227W        W28075   6.941  12.087   5.469 -0.0354  0.1971 -0.1202
11228W        W28076   2.118   4.327  16.615 -0.1548  0.1468 -0.4373
11229W        W28077   6.874  15.826  16.487 -0.3699 -0.2356  0.1964
11230W        W28078   5.635  14.063  15.010  0.1470 -0.1650 -0.0808
11231W        W28079   0.678  14.394   0.586 -0.0716  0.0483  0.0847
11232W        W28080   3.425   2.428   3.788 -0.2787 -0.2492  0.0828
11233W        W28081   0.485   0.598   5.551 -0.0998 -0.2358 -0.0931
11234W        W28082   1.688  16.939   3.994  0.1346 -0.2242  0.2406
11235W        W28083  11.260  11.071  12.621 -0.1464 -0.2669  0.1722
11236W        W28084  13.466   0.832  14.787  0.0392  0.0773 -0.0272
11237W        W28085  16.960  14.437   7.028 -0.0202  0.0355  0.3077
11238W        W28086   6.397  10.825  15.937  0.3610  0.0461 -0.1381
11239W        W28087  12.026   7.208  13.178  0.1476  0.7368  0.0630
11240W        W28088   3.133   2.988  16.857 -0.0045 -0.0192 -0.2347
11241W        W28089   7.126   0.750   2.727 -0.0267  0.3400 -0.2370
11242W        W28090   7.014   4.050   2.821 -0.0977 -0.2164 -0.1271
11243W        W28091   9.716   0.064   3.529  0.0975 -0.1950 -0.2873
11244W        W28092   3.852  14.586   3.661 -0.1958 -0.0190 -0.2080
11245W        W28093  16.815  10.476  12.306  0.0634 -0.2339 -0.1383
11246W        W28094  15.461  13.783   0.902  0.0123 -0.1076  0.0682
11247W        W28095   9.928   0.889  16.495  0.1605  0.0510  0.1003
11248W        W28096  12.312   6.998   1.716 -0.1495  0.2280 -0.1963
11249W        W28097   5.302   1.747  17.355 -0.1005  0.0725 -0.0546
11250W        W28098  14.122   7.752  15.233  0.0683  0.3288 -0.1872
11251W        W28099   8.565   7.725   4.118  0.0319 -0.3497  0.1685
11252W        W28100  12.406  13.593  11.736 -0.0357 -0.0504 -0.1550
11253W        W28101  15.069   1.556  14.306  0.1098  0.1746  0.1087
11254W        W28102   3.260  11.315   3.023 -0.0664 -0.2912  0.0058
11255W        W28103  14.478   6.501   0.433  0.0589 -0.0776  0.2609
11256W        W28104  16.301  15.794   5.432 -0.0055  0.0628  0.3139
11257W        W28105   8.641  13.786   1.576  0.1225 -0.2615 -0.2534
11258W        W28106  11.583  16.096   2.804  0.0097  0.2259  0.0973
11259W        W28107   1.997   2.022   2.859 -0.2241 -0.0934 -0.0256
11260W        W28108   0.003  12.126   2.514 -0.2401 -0.2007  0.0947
11261W        W28109   8.479   8.219  13.963  0.3048  0.1127 -0.4107
11262W        W28110   5.419  10.516  13.342  0.0130  0.4417  0.0117
11263W        W28111  16.620   3.872   3.330  0.1970 -0.3844 -0.1947
11264W        W28112   9.730   8.628   5.030 -0.2710  0.0916  0.0125
11265W        W28113   5.429   1.398  14.852  0.1759 -0.1395  0.3073
11266W        W28114  11.926  13.630  17.421  0.1486  0.1921  0.1476
11267W        W28115   5.401  13.776   3.433  0.0008 -0.2685  0.2450
11268W        W28116   4.885  11.803   0.487 -0.4062  0.1023  0.0774
11269W        W28117   1.191  16.321   4.531 -0.1618  0.2550 -0.1753
11270W        W28118  12.546   6.100   0.907 -0.1169  0.0886 -0.2048
11271W        W28119   4.836   4.935   2.279  0.0190  0.1433 -0.1869
11272W        W28120  17.053   2.721   3.803 -0.2406 -0.2662 -0.1093
11273W        W28121  14.430   0.004  17.226 -0.2774 -0.1364 -0.1619
11274W        W28122   3.633   8.896  16.640 -0.1250 -0.2039  0.2026
11275W        W28123   0.419   6.439   0.409 -0.0396  0.0747 -0.0846
11276W        W28124   6.321   1.453   6.215  0.0054  0.0996 -0.0591
11277W        W28125   2.495   3.966   5.211 -0.3247 -0.0435 -0.1647
11278W        W28126   6.168   0.237  13.893 -0.0050  0.0498 -0.1674
11279W        W28127   0.258   2.121  13.990 -0.0939 -0.1092  0.0798
11280W        W28128   1.443   0.715   0.422 -0.0377 -0.1462 -0.3481
11281W        W28129   5.940  16.430   0.022 -0.0044 -0.0298 -0.4197
11282W        W28130   4.154  13.395  13.653 -0.0015 -0.2953  0.2834
11283W        W28131  11.467  16.949  14.265  0.3037 -0.0648 -0.0106
11284W        W28132  14.964   7.098   0.911 -0.1604  0.0113  0.2848
11285W        W28133   9.519   5.940  17.061  0.1432 -0.1190  0.0230
11286W        W28134  11.230   2.223   2.995  0.1146 -0.2126 -0.0695
11287W        W28135  16.831   2.210   3.578 -0.3499 -0.0701 -0.3359
11288W        W28136  10.901   9.873  17.017 -0.1807  0.0272 -0.0650
11289W        W28137  15.871  11.573   5.147  0.0931  0.3717  0.4169
11290W        W28138  16.243   4.695   0.587  0.4383 -0.1551 -0.0019
11291W        W28139   4.063   3.697   4.858 -0.0710  0.0446  0.0618
11292W        W28140   0.890   2.763   1.254  0.1147  0.1620  0.1119
11293W        W28141   8.432   6.913   3.170 -0.1819 -0.0348  0.4986
11294W        W28142  16.222  13.346  13.863  0.2255 -0.1146 -0.0626
11295W        W28143   2.287  14.012   5.888 -0.0705  0.1003 -0.0127
11296W        W28144  11.753  14.452   0.966 -0.0782  0.1461 -0.0001
11297W        W28145   2.213   6.786   0.617 -0.1111 -0.0082 -0.2735
11298W        W28146  15.967   0.840   5.241 -0.0193  0.1232  0.1065
11299W        W28147  11.621  13.666  14.256  0.0965 -0.1029 -0.4259
11300W        W28148   6.207   9.284   5.549 -0.0541  0.3153  0.0872
11301W        W28149  15.535   0.204   3.034  0.0072  0.0280 -0.0919
11302W        W28150  10.369  13.926  16.584 -0.0596  0.1468 -0.1532
11303W        W28151  14.913   6.017  13.023 -0.3396  0.1573 -0.0321
11304W        W28152   0.836  15.184  13.227 -0.0982  0.0205 -0.2772
11305W        W28153   6.321  10.660   5.537  0.3489  0.0443 -0.2780
11306W        W28154   7.745  15.182   0.288  0.0704  0.1345  0.0895
11307W        W28155   3.529  14.114   6.356 -0.0536  0.1215 -0.1058
11308W        W28156  14.398   2.155   4.233  0.1056  0.0556  0.2501
11309W        W28157  16.077   0.803   6.163  0.0167  0.0101  0.2677
11310W        W28158   1.320  13.564   2.552 -0.0170  0.0518 -0.1375
11311W        W28159  12.691   4.977   0.082 -0.3529 -0.0637  0.2891
11312W        W28160  16.184   8.755  14.894  0.0838 -0.0116 -0.0850
11313W        W28161  13.270   8.638  13.293 -0.0965  0.0595 -0.2028
11314W        W28162   9.660   1.921  12.307 -0.1669  0.0751  0.0428
11315W        W28163   4.471   5.986   1.770  0.2645  0.0231 -0.0423
11316W        W28164   3.121  13.757  16.789 -0.0006 -0.0007  0.0483
11317W        W28165   8.211  14.274   4.711 -0.1524  0.1655  0.0139
11318W        W28166  14.152  10.095  13.403  0.0574 -0.4423  0.0559
11319W        W28167  15.605   3.588  15.572 -0.1514 -0.0297  0.0770
11320W        W28168   7.058  12.502   0.537 -0.1957  0.3634 -0.2601
11321W        W28169   0.108   6.169   5.204  0.2358  0.0487 -0.0596
11322W        W28170   2.580   3.374  14.742 -0.1583  0.3489 -0.0028
11323W        W28171   3.634   0.395   4.262  0.1699 -0.2513  0.1072
11324W        W28172  15.215   6.869  11.158 -0.0521  0.1163  0.0167
11325W        W28173  11.678  15.467  12.528  0.0010 -0.2134 -0.3951
11326W        W28174   8.063   1.089   5.002 -0.1578 -0.1358  0.1801
11327W        W28175   1.625   7.500   4.763  0.0272  0.1865 -0.2041
11328W        W28176  12.698   8.530   2.593  0.2218  0.2064  0.1333
11329W        W28177  17.112  11.659   0.986 -0.3092  0.1366  0.4612
11330W        W28178   6.726  16.651   1.656 -0.1518  0.1778 -0.0960
11331W        W28179   5.565  14.548  13.032  0.2474 -0.0241 -0.1318
11332W        W28180  10.203   7.475  13.293 -0.3355 -0.0112 -0.0939
11333W        W28181  11.711  12.788  12.026 -0.0520 -0.1469 -0.1350
11334W        W28182  16.317  13.699   2.651  0.0178  0.1913 -0.2117
11335W        W28183  14.817  16.847  16.973 -0.3419  0.2394 -0.2397
11336W        W28184   4.597  15.701  14.456  0.0552 -0.1093  0.3423
11337W        W28185  14.448   2.225  14.088 -0.0888 -0.0583 -0.0283
11338W        W28186   0.299  14.684  15.651  0.1303 -0.1132 -0.0836
11339W        W28187   3.808  12.237  15.088 -0.0455 -0.2471 -0.2008
11340W        W28188  11.519   7.796  15.067  0.0646 -0.0515  0.0048
11341W        W28189  15.973  12.514   1.628 -0.3040  0.1831 -0.0743
11342W        W28190   6.867  14.312   2.691 -0.0901  0.2684 -0.1084
11343W        W28191   8.436  13.824   2.977 -0.3164 -0.1511 -0.1869
11344W        W28192  10.464   4.908  16.883 -0.0020  0.4310  0.1963
11345W        W28193   6.602   9.766   0.664  0.2324  0.4427 -0.2202
11346W        W28194  12.793   8.951   2.909  0.2713 -0.2463 -0.1076
11347W        W28195   1.151   6.382  12.508 -0.0284 -0.0142  0.1894
11348W        W28196   6.570   2.996  13.679 -0.1653 -0.3821 -0.1474
11349W        W28197   8.495   4.633   2.489  0.0483 -0.3709 -0.1348
11350W        W28198  14.910   7.797   2.404  0.1061 -0.2256  0.0698
11351W        W28199   2.362   5.677   5.308 -0.2537 -0.0807 -0.0070
11352W        W28200   5.285   7.835   2.360 -0.0187 -0.0210 -0.1888
11353W        W28201   2.751   1.738   2.303 -0.0229  0.1921 -0.0190
11354W        W28202   1.150  13.409   5.610  0.0694  0.0247  0.1814
11355W        W28203   3.213   3.277   5.478 -0.0152 -0.1176 -0.2766
11356W        W28204   6.449  13.430   4.207  0.1286  0.1853  0.0660
11357W        W28205   5.642  11.143   2.087  0.0055  0.2444 -0.4990
11358W        W28206   4.606  10.253  14.640  0.4746 -0.2400  0.1241
11359W        W28207   3.152  10.565   4.424  0.1861  0.4101 -0.0501
11360W        W28208  15.479  12.813  16.094  0.1605  0.2853 -0.0346
11361W        W28209   8.832   3.824   3.625  0.2280 -0.2145  0.4753
11362W        W28210  13.524   7.038   3.339 -0.0725 -0.1851 -0.3346
11363W        W28211  11.613  15.695   4.335 -0.0730  0.1566 -0.1914
11364W        W28212  10.350  16.824  15.095  0.1823 -0.0752 -0.1713
11365W        W28213   4.244   2.715   5.836  0.1760 -0.2665  0.0332
11366W        W28214  14.216   0.837   4.344  0.0976  0.0264 -0.1633
11367W        W28215   7.974   7.829  12.393 -0.5935  0.0993 -0.2036
11368W        W28216   7.991   5.759  13.407  0.2930  0.2118  0.3401
11369W        W28217  16.659  15.634  13.802  0.2321 -0.2179  0.4073
11370W        W28218  16.297   8.733   1.823 -0.2286 -0.0841  0.0324
11371W        W28219   7.934   3.558  14.244  0.1293  0.3998 -0.3474
11372W        W28220  11.258   3.044  15.233  0.0258  0.2336 -0.1722
11373W        W28221  13.867   1.271   3.906  0.1993 -0.1209 -0.3602
11374W        W28222  11.357   0.942  15.975  0.1930  0.0099 -0.1512
11375W        W28223   2.113  16.330   1.797 -0.1563 -0.2667  0.2263
11376W        W28224   8.626  11.383  14.882 -0.1480  0.1971 -0.0376
11377W        W28225   2.671   9.218   0.096 -0.0116  0.1077 -0.0711
11378W        W28226   6.316   0.835   1.713 -0.1060 -0.1536  0.1767
11379W        W28227   8.941   9.372   3.038  0.2360 -0.0294  0.1583
11380W        W28228   6.868   6.652  13.227  0.2149 -0.2763 -0.0577
11381W        W28229   5.176   9.231   2.696  0.0143  0.0982  0.0387
11382W        W28230   8.093  12.243   2.399  0.1125 -0.2072 -0.1967
11383W        W28231  16.280   1.599   0.476  0.3457 -0.0302 -0.0463
11384W        W28232   4.434  10.198  13.068  0.1603 -0.2481 -0.2737
11385W        W28233   1.360   3.517   6.053 -0.0066  0.1302 -0.1233
11386W        W28234   0.282  10.586  13.597 -0.1346 -0.1524  0.0789
11387W        W28235   2.627  14.128   0.937 -0.0347  0.2507  0.0703
11388W        W28236  11.124   7.218  14.264  0.1394 -0.0027  0.0342
11389W        W28237   3.653   0.736  15.347  0.1505 -0.0437 -0.0799
11390W        W28238   2.491  15.935  14.507 -0.3377  0.2515 -0.0427
11391W        W28239   9.618   1.289  13.570 -0.0450  0.0506  0.0782
11392W        W28240  11.604   4.387  16.700  0.0006  0.1203  0.1684
11393W        W28241  14.742   8.485  17.586 -0.0744 -0.1008 -0.1130
11394W        W28242   7.662  14.857  17.131  0.1914 -0.1103 -0.0181
11395W        W28243  15.427  11.164   2.112  0.0395  0.0505  0.1460
11396W        W28244   4.488   2.587   4.307  0.1931 -0.2808 -0.3218
11397W        W28245   5.388   0.506   2.544 -0.4311 -0.1393  0.0335
11398W        W28246  13.067  12.867  12.582  0.3573 -0.1387 -0.1397
11399W        W28247   4.692   8.771   0.688  0.2112 -0.3029 -0.0307
11400W        W28248  16.515  16.361  16.626  0.0141  0.1668  0.1941
11401W        W28249   4.971  13.888  12.538  0.1381  0.3095  0.0474
11402W        W28250  11.778   7.966  17.226  0.0268  0.1284 -0.1487
11403W        W28251   5.875   0.420  13.525  0.0248 -0.2009 -0.3836
11404W        W28252  14.854   8.144  16.803 -0.0376 -0.1350  0.1647
11405W        W28253   9.667  13.611   5.115 -0.5069  0.0966 -0.0780
11406W        W28254   9.379  11.747  12.029  0.2143  0.0737 -0.0811
11407W        W28255  12.335   6.972   5.412 -0.1722 -0.0398  0.0775
11408W        W28256  16.941  12.795   1.886  0.0906  0.1508 -0.0274
11409W        W28257  13.190  11.555   1.047 -0.0531  0.2736  0.1285
11410W        W28258  13.891  14.906   0.731  0.1464 -0.2219  0.0662
11411W        W28259   2.420  10.730  13.069 -0.2434  0.2170  0.1056
11412W        W28260   5.608  13.023  14.932 -0.0066  0.0182 -0.0007
11413W        W28261   2.729  12.800  14.825  0.0311  0.0431  0.0454
11414W        W28262   0.179  16.140   4.403 -0.3553 -0.1987 -0.1705
11415W        W28263  12.127  14.443  14.103  0.1865 -0.4769 -0.0601
11416W        W28264  10.041  10.461   2.400  0.0203 -0.2325 -0.2711
11417W        W28265   1.256  10.715   2.323  0.0681  0.1918 -0.2040
11418W        W28266  10.664  15.512   4.754 -0.0484  0.1179  0.0523
11419W        W28267  11.051   2.717   1.534 -0.0740  0.1249  0.0670
11420W        W28268  16.561  12.135  15.109  0.0718 -0.0423  0.1783
11421W        W28269   3.297   7.499  15.713 -0.2719  0.0298  0.1841
11422W        W28270  17.095  16.393  14.600 -0.2376  0.2486 -0.2203
11423W        W28271   3.906   8.907  17.350  0.2203  0.0406 -0.0413
11424W        W28272  15.143  14.329   5.257 -0.2161 -0.0016  0.0943
11425W        W28273   7.857  14.958  12.020 -0.1732 -0.1609  0.1237
11426W        W28274   2.786   7.111  14.642 -0.0254  0.0163 -0.0322
11427W        W28275  11.173   1.891   3.988 -0.2122 -0.2457  0.0016
11428W        W28276   7.263   8.788   4.088 -0.0521 -0.1695 -0.1466
11429W        W28277   6.963   6.750  17.191  0.0649  0.1063 -0.1087
11430W        W28278  11.566  13.548   4.375 -0.2547  0.2635 -0.0952
11431W        W28279   3.752  10.767   1.675  0.2001 -0.2146  0.1024
11432W        W28280   3.607  13.783   1.266  0.3827 -0.3057 -0.2191
11433W        W28281   6.603   8.989   2.638 -0.3405 -0.1142 -0.0437
11434W        W28282   1.088  16.034  17.763 -0.1127  0.2137  0.0945
11435W        W28283   3.414   8.575   5.620  0.1112  0.4388 -0.1033
11436W        W28284   2.763   1.444  14.082 -0.0532  0.2667  0.1307
11437W        W28285  10.456   7.297   1.069 -0.1198 -0.3262  0.0056
11438W        W28286   3.547  14.954   3.571 -0.1363  0.3171  0.1729
11439W        W28287   4.543  11.538  14.200 -0.2118 -0.2864 -0.1270
11440W        W28288  14.382   4.561   5.267 -0.0084 -0.1916 -0.3220
11441W        W28289   0.511  14.416  17.166  0.3259 -0.2533 -0.3669
11442W        W28290  16.529  10.891  12.691  0.1070  0.2045 -0.0273
11443W        W28291  16.824   6.417  16.318 -0.1397  0.1111 -0.1069
11444W        W28292   4.143   1.846  17.309  0.0865  0.1427 -0.3648
11445W        W28293  15.968   7.021  12.957  0.0008 -0.3838  0.1223
11446W        W28294  15.195  14.964   1.158 -0.0188  0.1464  0.0602
11447W        W28295   4.915  12.456   4.774 -0.0085 -0.1211 -0.2880
11448W        W28296   8.166   3.053  15.977 -0.3988 -0.0793  0.0469
11449W        W28297   2.946   1.908  13.683 -0.0211  0.1997 -0.3163
11450W        W28298   9.506   4.783   3.339  0.3165  0.0054  0.1166
11451W        W28299   7.629   0.868   5.254  0.1363  0.0592  0.2009
11452W        W28300  12.564   0.736  16.616  0.2443  0.0233 -0.2053
11453W        W28301   9.933   4.914   0.589  0.0186 -0.0497 -0.1967
11454W        W28302   1.164   4.388  15.249  0.2202  0.2264  0.0937
11455W        W28303  15.664  15.683  17.732 -0.1331 -0.2296 -0.0366
11456W        W28304  12.066   6.620  17.042 -0.4423  0.2106  0.1518
11457W        W28305   3.246   7.007  14.514 -0.1584 -0.1091  0.2281
11458W        W28306  15.849  17.068   0.881 -0.0288 -0.0268  0.2178
11459W        W28307   7.139   6.364  16.426  0.1902 -0.2371 -0.1680
11460W        W28308  14.478  14.342  16.217  0.1902  0.2433 -0.1208
11461W        W28309   0.539   1.232  14.626  0.0135 -0.2183  0.0147
11462W        W28310  13.740   6.645   1.867 -0.0636 -0.2928 -0.0124
11463W        W28311  11.711   1.413  17.673 -0.0335 -0.0049  0.2060
11464W        W28312   8.398  13.750  16.430  0.0919 -0.0932  0.0548
11465W        W28313   6.753   0.855  15.289  0.1930  0.2556  0.4716
11466W        W28314   1.487   9.696   4.590  0.0544  0.1616  0.1474
11467W        W28315  10.208   2.803   4.149 -0.0082 -0.0050  0.2082
11468W        W28316   9.742  16.213   1.865  0.0751  0.2107 -0.2305
11469W        W28317  13.080   7.929   0.490  0.0922 -0.1147 -0.1428
11470W        W28318   1.958   7.073   3.826  0.0516  0.1417 -0.0138
11471W        W28319  12.594  10.485   3.160 -0.0121 -0.0528 -0.2007
11472W        W28320  12.371   7.614   0.073 -0.1136  0.0528  0.2033
11473W        W28321   0.047   2.913  12.158  0.0451 -0.1358  0.1659
11474W        W28322  11.951   1.106  16.778  0.1181 -0.2944 -0.0863
11475W        W28323  14.398   2.681   0.201  0.1954  0.0083 -0.2089
11476W        W28324  14.410   5.282  16.022  0.1297  0.0544 -0.0963
11477W        W28325  13.594   2.366  11.266 -0.1915 -0.0925 -0.2442
11478W        W28326  14.500  12.747  13.416 -0.0017 -0.0154 -0.0372
11479W        W28327   0.784   9.777  13.327 -0.2193 -0.2052  0.0691
11480W        W28328  15.838   6.788  16.048 -0.1691 -0.0426  0.2431
11481W        W28329  14.118   7.573   4.914  0.2232  0.1195  0.3454
11482W        W28330   6.531  11.253  12.201  0.1612  0.1824  0.0244
11483W        W28331  16.727  13.802  14.050  0.1610  0.0478  0.2527
11484W        W28332   5.326  11.930   0.063 -0.1626 -0.1275  0.0826
11485W        W28333   0.959   2.282   3.800  0.1554  0.0685  0.1354
11486W        W28334   2.012   9.791   0.025  0.1393  0.2493  0.0203
11487W        W28335   3.352  10.746   1.302 -0.2310  0.2557  0.2017
11488W        W28336  15.616   2.199  12.230  0.3039  0.1649 -0.1190
11489W        W28337   8.614   0.586  11.757  0.1307  0.3024 -0.1958
11490W        W28338  17.015  12.158   0.965  0.1580  0.2025 -0.2286
11491W        W28339  17.068  10.245   1.255 -0.5374 -0.1443  0.2299
11492W        W28340  12.683  15.516   1.601  0.2086 -0.1622 -0.2657
11493W        W28341   1.232  15.746   1.638 -0.1983 -0.1537  0.2030
11494W        W28342   6.554   6.449   3.800 -0.1173  0.1137 -0.1440
11495W        W28343  10.005  11.305   0.638  0.1705 -0.0685 -0.3196
11496W        W28344   3.164  13.811  13.128 -0.1917 -0.0480 -0.1287
11497W        W28345   0.960   0.805   1.147  0.0703  0.0711 -0.1951
11498W        W28346   9.764   2.163   0.838 -0.0230  0.1408  0.1859
11499W        W28347  16.681   0.460   2.184 -0.0784 -0.3563  0.3334
11500W        W28348   7.251  13.181  17.029  0.0980 -0.0852 -0.1916
11501W        W28349   3.033   5.045   5.076 -0.0142  0.1406  0.2166
11502W        W28350   9.049   0.087  14.860 -0.2174 -0.0299 -0.0959
11503W        W28351  14.621   6.100  11.774  0.2290  0.2346 -0.1689
11504W        W28352   0.877   6.113  15.168  0.4787  0.0506 -0.2063
11505W        W28353   0.316   6.514   1.664 -0.1182 -0.0590 -0.1251
11506W        W28354  14.081   9.787   1.821 -0.1371  0.3465 -0.0525
11507W        W28355  12.849   0.892   4.515 -0.2090  0.1288  0.1117
11508W        W28356  15.422   8.132  14.681  0.0018 -0.3747 -0.2171
11509W        W28357  12.320  11.682   2.128 -0.1164  0.1929  0.0409
11510W        W28358  14.073   5.203  11.681 -0.2635 -0.1411 -0.1806
11511W        W28359  13.890  12.719   3.433  0.1114 -0.3829 -0.3028
11512W        W28360  16.773  12.991   2.298 -0.2853 -0.2667  0.1776
11513W        W28361  10.515   9.671   4.851 -0.0356  0.1157 -0.0215
11514W        W28362   4.725  16.833   3.339 -0.0115  0.2141 -0.1286
11515W        W28363   4.915   1.784  12.548  0.0472  0.1068  0.2325
11516W        W28364  14.528   7.599  17.476  0.2075  0.1163  0.0984
11517W        W28365   4.533   3.230  12.171  0.0990 -0.1675  0.0455
11518W        W28366  15.009  13.662  13.946  0.3234  0.0209 -0.1919
11519W        W28367  13.386  13.460  16.625 -0.1348 -0.0880  0.1364
11520W        W28368   7.193  13.861  13.306 -0.0230 -0.0459 -0.0552
11521W        W28369  16.004  11.678   0.140 -0.2246 -0.1405  0.2915
11522W        W28370   5.322  10.896   0.929  0.3511 -0.1443 -0.2499
11523W        W28371   0.146   8.449  14.065 -0.0737 -0.1230 -0.0110
11524W        W28372  15.572  16.627   2.279 -0.1855 -0.0193 -0.0820
11525W        W28373   9.932   0.405   0.873 -0.1270 -0.0817 -0.1620
11526W        W28374  15.456  13.690   2.393 -0.2847  0.2071 -0.0686
11527W        W28375  12.049   3.435   0.966  0.0659 -0.1272 -0.0848
11528W        W28376   7.472   1.270  12.121  0.0600 -0.0256 -0.0699
11529W        W28377   9.998  16.165  14.454 -0.1196 -0.4273 -0.1464
11530W        W28378   6.103   6.696  11.962  0.0101  0.0948 -0.5589
11531W        W28379  15.074   7.750  16.968  0.0466 -0.3241  0.2808
11532W        W28380   4.530   8.876   4.971 -0.1442 -0.1993 -0.1220
11533W        W28381  11.376  16.021  16.800 -0.1311 -0.2500  0.1860
11534W        W28382  17.082   0.581  16.506  0.1329  0.3313 -0.2745
11535W        W28383   5.908   2.277  14.596  0.0200  0.0297 -0.2952
11536W        W28384  15.087  11.093  13.434 -0.0157 -0.1804 -0.1314
11537W        W28385   1.216   7.763  14.310  0.1872  0.0411  0.1350
11538W        W28386  10.071  11.861   5.493  0.2080  0.0551 -0.1774
11539W        W28387   6.212  16.642   5.681  0.2824  0.0032 -0.1816
11540W        W28388   8.680   1.917  15.292 -0.0472 -0.2366 -0.1451
11541W        W28389  12.551  16.125   0.484  0.0739  0.2232 -0.4561
11542W        W28390  15.230   6.988  16.383  0.2658 -0.1654  0.0811
11543W        W28391  12.572  11.127  15.977  0.1009  0.0939 -0.4189
11544W        W28392   7.303   6.987  16.913  0.0852  0.2457 -0.0446
11545W        W28393  14.658   9.138   1.296 -0.0042  0.4165  0.1012
11546W        W28394  11.798  13.008   2.396 -0.0610  0.2663  0.2850
11547W        W28395  15.458   7.117  14.615  0.0712  0.0034  0.1517
11548W        W28396   8.959  10.467   4.198 -0.0545 -0.0683 -0.2166
11549W        W28397   1.781  13.030   4.471  0.2916  0.1579  0.0144
11550W        W28398   8.515  15.692  16.114  0.1264 -0.0856  0.1776
11551W        W28399   4.202   5.391   4.949 -0.0055  0.1597  0.1521
11552W        W28400   8.884   6.144  15.869 -0.2255 -0.2251 -0.1510
11553W        W28401   7.353   3.202   4.579  0.1583  0.0723 -0.0589
11554W        W28402   5.940  13.121   3.252 -0.0395 -0.2471  0.0559
11555W        W28403   1.449  16.106  15.654  0.1348 -0.0215 -0.0409
11556W        W28404   4.312   9.466  14.294 -0.0499 -0.2062 -0.4113
11557W        W28405  12.219   4.214  14.978 -0.1909  0.1661 -0.3051
11558W        W28406   5.067  14.984   2.174 -0.1540 -0.2121  0.0801
11559W        W28407   0.718   1.798  17.558  0.0153  0.1281  0.2001
11560W        W28408   7.393  11.385  15.283  0.1303 -0.1161 -0.0371
11561W        W28409   6.817  16.217   0.910 -0.2224 -0.0983  0.1098
11562W        W28410   5.925   7.951  15.001 -0.1342  0.2116  0.1868
11563W        W28411   6.029   2.637  12.065 -0.1677 -0.0222  0.1206
11564W        W28412   4.937  10.047  14.322  0.1610  0.2936 -0.1647
11565W        W28413   3.411  14.966  14.289  0.1178 -0.0404  0.1465
11566W        W28414   0.594   3.893   5.470 -0.0914  0.2092  0.0122
11567W        W28415   6.433  14.593  13.923 -0.2508 -0.3544  0.0961
11568W        W28416  12.420   5.197  13.127  0.1964 -0.2551  0.2872
11569W        W28417  16.973  12.675   5.535 -0.0005 -0.0469  0.1998
11570W        W28418   5.838  15.687  16.658  0.1321  0.0290  0.0490
11571W        W28419  10.142  13.748  14.477 -0.0574 -0.4102  0.1607
11572W        W28420   5.059   2.569   2.042  0.0227 -0.0840 -0.1551
11573W        W28421  16.679   4.887  14.875  0.3354 -0.5142  0.0103
11574W        W28422   3.705   0.799  16.097 -0.4217  0.2990  0.0789
11575W        W28423   7.600  11.983   2.613  0.0185 -0.0351  0.0054
11576W        W28424  14.622   7.404   4.659  0.2066 -0.1138 -0.4070
11577W        W28425   2.155   8.662   3.579  0.0231 -0.0170  0.2024
11578W        W28426   5.289  11.825  12.830 -0.2052  0.3447  0.0684
11579W        W28427  16.228   4.199   2.206  0.1614 -0.1360  0.2051
11580W        W28428   5.595   4.696   0.510 -0.1717  0.3075 -0.1672
11581W        W28429  12.036   4.314   4.479  0.2367  0.0340 -0.0022
11582W        W28430  13.126   0.638  13.493 -0.0283 -0.1563  0.1731
11583W        W28431  11.316   4.694   4.368  0.1941  0.0446 -0.3237
11584W        W28432   4.954   0.536  16.568  0.0636  0.1611  0.2355
11585W        W28433   4.371  14.427   5.906  0.0035  0.3901 -0.1256
11586W        W28434   9.461   9.429  13.331  0.2643  0.0941 -0.1432
11587W        W28435  12.463   0.335  17.028  0.2294  0.0575 -0.1384
11588W        W28436  10.481   8.319  17.430 -0.0735  0.2023 -0.1013
11589W        W28437   9.678   3.799  13.970 -0.0258  0.0247  0.0013
11590W        W28438   8.337  17.061   3.106 -0.0337  0.2483 -0.1617
11591W        W28439   0.915   1.383  14.174 -0.1695 -0.2007 -0.0237
11592W        W28440   8.351  10.852   2.579  0.2199  0.0574 -0.0769
11593W        W28441   9.813  12.565   4.873  0.1233  0.0849  0.0115
11594W        W28442   0.584  15.376   5.595 -0.0455 -0.0348 -0.1491
11595W        W28443   4.817   5.853  12.344 -0.0651 -0.1978  0.1066
11596W        W28444   6.323   5.312  14.133 -0.0161  0.1347 -0.2973
11597W        W28445   5.757  14.866  12.676  0.3869 -0.0621 -0.2322
11598W        W28446   8.029   1.744   4.992 -0.3938  0.1264  0.3633
11599W        W28447   0.328   6.096  17.239 -0.2685 -0.2444  0.1647
11600W        W28448  15.806  14.828  17.743 -0.0463 -0.0709 -0.0564
11601W        W28449   1.380  15.663  17.031  0.1393  0.0805 -0.0133
11602W        W28450   3.743   9.947   0.480  0.0513 -0.0158 -0.2333
11603W        W28451   7.593  15.151   2.451  0.2335 -0.2589 -0.2006
11604W        W28452   4.080  16.700  15.767 -0.2898 -0.1629 -0.0567
11605W        W28453  10.750  15.605   3.823  0.2591  0.0092 -0.0146
11606W        W28454   0.328  10.533   0.441  0.2007 -0.0264  0.3140
11607W        W28455   2.723  12.657  13.726  0.1163  0.2235 -0.0923
11608W        W28456  16.540  10.367   2.192  0.0190  0.1413 -0.2582
11609W        W28457  14.800   5.038   0.267 -0.1016 -0.0947  0.1361
11610W        W28458   5.545  16.347   4.852 -0.1756 -0.0496  0.0936
11611W        W28459  16.930   1.944   1.038 -0.0145 -0.1492  0.0528
11612W        W28460   0.051   8.597  16.609  0.0369 -0.0030 -0.3705
11613W        W28461   3.707  12.294   1.353 -0.0347  0.2645  0.3734
11614W        W28462   0.627   1.951   5.341 -0.0976  0.1972  0.2472
11615W        W28463   3.569  13.255   1.427  0.3571  0.0269  0.0519
11616W        W28464   1.182   8.384  11.977 -0.0550 -0.0739  0.1758
11617W        W28465   3.312   7.238  12.760 -0.3691 -0.0434 -0.0464
11618W        W28466   3.087   8.740   2.079 -0.1439 -0.1280 -0.0159
11619W        W28467   8.030   0.070   0.045 -0.1290  0.1395 -0.3441
11620W        W28468  12.535   1.400  15.887  0.0386  0.0079 -0.1417
11621W        W28469  16.436   3.539  17.515 -0.0364  0.2937  0.0206
11622W        W28470  14.703   7.281  15.599  0.0002 -0.0539 -0.1058
11623W        W28471   9.997  11.130  14.779 -0.0503 -0.0786  0.1033
11624W        W28472  10.893   7.086  11.576 -0.0118 -0.1568  0.1706
11625W        W28473   5.383   3.013   2.021 -0.0577  0.2669  0.0822
11626W        W28474  12.116   4.581  17.379 -0.0512  0.0458 -0.1798
11627W        W28475  14.703   0.830  15.059  0.3007 -0.0949 -0.1356
11628W        W28476  13.754   6.843  13.645 -0.2144  0.3544 -0.0582
11629W        W28477   6.342  12.727  13.391  0.0738  0.0821 -0.0973
11630W        W28478   7.260  11.721   2.891 -0.2099 -0.0809 -0.1673
11631W        W28479  15.239   4.675   5.018  0.0912 -0.4130 -0.0118
11632W        W28480  10.707  12.255  14.250 -0.1227 -0.0674 -0.2452
11633W        W28481   5.811  13.801   0.453  0.0906  0.0944 -0.0089
11634W        W28482  10.183  13.905  13.274 -0.2349  0.0799  0.0727
11635W        W28483  11.139   3.262  14.019  0.1203  0.1441 -0.1098
11636W        W28484  14.541   0.834   1.905  0.0717  0.1714 -0.1486
11637W        W28485  10.368   5.762  12.651  0.0291  0.0215 -0.1806
11638W        W28486   8.198  15.760  17.283  0.3386  0.0908 -0.1163
11639W        W28487  13.925  11.716   1.922  0.0331  0.0286 -0.1102
11640W        W28488   3.373   6.179   3.831 -0.0233 -0.0126 -0.0305
11641W        W28489  13.104   7.429   5.236 -0.0842  0.0903 -0.1678
11642W        W28490  16.833   1.689   3.450 -0.0479 -0.2033 -0.0128
11643W        W28491   4.037   8.383   0.338  0.0255  0.0172 -0.1192
11644W        W28492   1.805   9.328  16.477 -0.1866 -0.0485 -0.1162
11645W        W28493   7.903  15.453  12.958 -0.0685  0.4373  0.1544
11646W        W28494  16.637  15.782  13.260  0.1653 -0.0820  0.2073
11647W        W28495  11.030  14.309  17.471  0.1890 -0.1020 -0.4020
11648W        W28496   8.193   6.518   1.700  0.1127 -0.2944  0.0893
11649W        W28497  14.783  13.260  13.605 -0.1305 -0.1661  0.1678
11650W        W28498   7.399   9.952  13.667 -0.0640  0.3472  0.0199
11651W        W28499  12.216  13.582   5.236 -0.1398  0.0059 -0.0005
11652W        W28500  13.211   4.101  16.473  0.2869 -0.0276 -0.0695
11653W        W28501  13.395   5.293  16.667 -0.0100 -0.3156 -0.0336
11654W        W28502  14.103  14.116  16.476 -0.1404  0.2359  0.0831
11655W        W28503  12.082   9.079   5.361  0.0898  0.0071  0.1276
11656W        W28504  15.908  12.358   2.511  0.1449  0.0886 -0.0359
11657W        W28505  16.476   3.911   0.209  0.0916 -0.0052 -0.0755
11658W        W28506   8.835  13.547  14.794 -0.1207 -0.4050  0.0527
11659W        W28507  13.371   5.744  16.442  0.1340  0.1322 -0.0170
11660W        W28508   2.381  13.621   5.549  0.2143 -0.2815 -0.0561
11661W        W28509   2.093   0.353  11.839 -0.2506 -0.0558 -0.0710
11662W        W28510   4.440  11.021   2.316  0.0219 -0.3542  0.1440
11663W        W28511   8.162   1.900   4.509 -0.2373  0.2766 -0.1086
11664W        W28512   1.487   6.537   0.788  0.0055  0.1403  0.0163
11665W        W28513  11.722   8.757  17.102 -0.0917 -0.3860 -0.1008
11666W        W28514   5.066   9.827   4.596 -0.1398  0.1487  0.0238
11667W        W28515  11.876   4.136  17.094 -0.1041 -0.1085  0.1285
11668W        W28516  17.047  15.414   2.874  0.1827  0.1965  0.0913
11669W        W28517   1.841   4.809   3.806  0.0237 -0.0933 -0.1205
11670W        W28518  13.796   0.043   1.945 -0.3643  0.1107  0.1439
11671W        W28519  12.444  11.351   1.673 -0.1295  0.1057  0.0021
11672W        W28520   7.595   9.272  12.689  0.1369  0.0373  0.0139
11673W        W28521  12.209  11.117  14.488 -0.1418  0.0668 -0.0428
11674W        W28522   7.493  15.742  16.671  0.0867  0.0791  0.0023
11675W        W28523   8.737  16.996  12.745  0.0272  0.1136 -0.1009
11676W        W28524   8.810   5.547   3.478 -0.0394  0.0937  0.0326
11677W        W28525  11.284   8.018   5.274  0.0219 -0.0701 -0.2165
11678W        W28526   7.210  13.944  11.959  0.1002  0.0499 -0.0458
11679W        W28527   8.474   2.635  15.893 -0.0539 -0.2898 -0.2306
11680W        W28528   9.545   5.737  16.047  0.2887  0.0129  0.2414
11681W        W28529  12.712   3.737  12.679 -0.1557 -0.1371  0.2181
11682W        W28530  15.260   0.165   4.014  0.0334 -0.4675  0.0383
11683W        W28531   5.694   2.542   2.004 -0.2830  0.1126  0.0016
11684W        W28532  16.003   6.481   5.205  0.1895  0.2207  0.1628
11685W        W28533  11.953  13.819  11.191  0.0977 -0.1173 -0.0845
11686W        W28534  16.812  14.060   0.270 -0.0532  0.2414  0.1046
11687W        W28535  10.143   4.129   3.816 -0.2068  0.0322  0.0317
11688W        W28536   0.638  16.062  12.986 -0.1865  0.0955  0.1262
11689W        W28537   1.428   0.447   2.232  0.0519  0.0684  0.2630
11690W        W28538  10.523   6.934  15.576 -0.1958 -0.3082  0.0410
11691W        W28539  15.330  10.810   3.442  0.2090  0.0305 -0.0096
11692W        W28540   0.171   6.058  14.726  0.1836  0.1593 -0.0096
11693W        W28541   3.822   3.556   2.810  0.0137  0.0227 -0.2229
11694W        W28542  13.005   8.046   2.750 -0.1258  0.0994  0.0328
11695W        W28543   0.288   5.001   0.820  0.2763  0.1983 -0.0002
11696W        W28544  14.805  16.967   5.193  0.0123 -0.2806 -0.2349
11697W        W28545   6.515   9.252  16.280  0.2989 -0.1077  0.1955
11698W        W28546  15.633   6.554   4.862 -0.1615  0.0606  0.0916
11699W        W28547  16.897  12.441  16.128  0.1109 -0.0863 -0.0513
11700W        W28548   2.847  15.688  13.389  0.1485 -0.0991 -0.1253
11701W        W28549  14.653  14.681  14.120 -0.1651 -0.1221 -0.1706
11702W        W28550   9.988  12.443   2.316  0.1493  0.3869  0.2250
11703W        W28551   0.797   6.977  16.868 -0.3017 -0.0641  0.0244
11704W        W28552   6.762   4.255   0.658  0.0579  0.2830 -0.1772
11705W        W28553   5.416  14.852  13.926 -0.1978 -0.3860 -0.1319
11706W        W28554   3.090   0.858   4.571 -0.1195  0.0088  0.1730
11707W        W28555  11.156   7.940  11.438  0.0993 -0.1093 -0.0742
11708W        W28556  13.530   5.858  12.068 -0.0331  0.1787  0.0246
11709W        W28557  10.930   5.917  10.681 -0.0245 -0.0232 -0.0020
11710W        W28558  11.865   2.536   3.438 -0.0631  0.0117  0.1954
11711W        W28559   7.002  16.989   6.911  0.3189  0.0113 -0.0499
11712W        W28560   4.758   6.628   3.204 -0.1194  0.0751 -0.3669
11713W        W28561   1.233   9.918  16.563  0.3067  0.0108  0.0963
11714W        W28562   7.901  10.895  12.753  0.0306  0.1776 -0.1528
11715W        W28563  11.619  15.678  15.515 -0.0383  0.0508  0.0563
11716W        W28564   7.214  16.512   2.992  0.1381  0.0358  0.1653
11717W        W28565   6.391   2.488  13.887  0.0267  0.0077  0.1727
11718W        W28566  13.436  13.506  13.533  0.0218  0.2029 -0.1248
11719W        W28567  11.463  13.280   5.939 -0.0903  0.3213 -0.0043
11720W        W28568   6.075  11.811  15.579 -0.2624  0.0173 -0.0709
11721W        W28569  10.789  13.026  14.749 -0.4198 -0.0064  0.0924
11722W        W28570   5.484  14.373   4.465  0.1138  0.1400  0.1783
11723W        W28571  12.081   1.193   1.952  0.0295  0.0666  0.0697
11724W        W28572  10.933  12.267   0.958 -0.0254  0.0642  0.2596
11725W        W28573   0.587   2.510  15.152 -0.1947  0.1882 -0.3298
11726W        W28574   9.980  12.995   1.226 -0.0458  0.0578  0.2193
11727W        W28575  10.198  15.866  12.484  0.2279 -0.0312  0.1755
11728W        W28576  11.846   5.117   1.004 -0.0508  0.1948  0.2328
11729W        W28577   4.812  15.195  12.315  0.2702 -0.2023  0.0159
11730W        W28578  16.674   5.536   3.608  0.0391 -0.1554 -0.1374
11731W        W28579  16.647  12.044  14.565 -0.0852 -0.0520  0.0959
11732W        W28580  14.297   5.901  12.852  0.4011 -0.1070  0.0125
11733W        W28581   6.039   2.353  16.629  0.3197 -0.1330  0.0324
11734W        W28582   7.923   5.845   5.429 -0.1605  0.1285 -0.1721
11735W        W28583  16.563  12.895   5.228 -0.0392 -0.0721 -0.0481
11736W        W28584   1.249   1.070  17.367  0.2119 -0.0247  0.0678
11737W        W28585   3.251  16.378   2.587 -0.0703 -0.3009 -0.3350
11738W        W28586  11.394   9.645  14.208 -0.2649  0.0031 -0.0124
11739W        W28587   4.026  11.555  14.217  0.0812 -0.0891  0.1487
11740W        W28588   3.897   7.052  17.766  0.0851 -0.3198 -0.1170
11741W        W28589   0.901   8.474  15.645 -0.1029  0.2089 -0.1546
11742W        W28590  14.627   4.792  11.854 -0.1534  0.0461  0.0061
11743W        W28591  11.445   0.107   0.797 -0.0472 -0.0343 -0.0040
11744W        W28592   7.460   8.933   2.244  0.0989  0.1607 -0.0206
11745W        W28593  14.105   9.542   5.294  0.0288 -0.1211 -0.0079
11746W        W28594   8.134   1.621  12.639  0.0053  0.0018  0.0564
11747W        W28595   6.780   2.420   1.320  0.0830 -0.2598 -0.1766
11748W        W28596   0.037   2.371  13.188  0.3363 -0.0703  0.1536
11749W        W28597  13.771   3.146   0.811 -0.0487 -0.1941  0.2588
11750W        W28598  13.718   3.920  13.793  0.1357 -0.0679 -0.1107
11751W        W28599  12.728   9.421   2.957  0.0321 -0.2912  0.0252
11752W        W28600   9.943  16.421  15.956 -0.2743 -0.2498 -0.0461
11753W        W28601  12.863  13.823   4.733 -0.0888 -0.2080  0.0531
11754W        W28602   2.033  11.078   5.110  0.1022  0.1393  0.0151
11755W        W28603  15.308   0.515  16.857  0.3174 -0.3172 -0.0283
11756W        W28604   8.043  15.493  15.308  0.1556  0.2467 -0.2578
11757W        W28605   1.993   2.572  15.730 -0.2826 -0.1515 -0.1537
11758W        W28606  10.631   0.920  16.633 -0.0281  0.0192  0.1963
11759W        W28607   5.691   6.671  17.748 -0.2149 -0.1290 -0.3497
11760W        W28608   6.246  13.457  13.135  0.0197  0.1577  0.1635
11761W        W28609  10.231   8.291   4.309  0.0635 -0.0950 -0.0553
11762W        W28610   6.857  10.708  16.015  0.0213  0.1347 -0.0078
11763W        W28611  12.345  12.684   0.257  0.2052 -0.1241  0.2977
11764W        W28612   4.815   5.151  14.318 -0.1636  0.3393  0.1052
11765W        W28613   3.438   6.190  14.194  0.0721 -0.1043  0.0520
11766W        W28614   5.128   3.959   0.927  0.0306 -0.0302  0.0916
11767W        W28615   9.315  13.635   4.158  0.0132  0.1561  0.1006
11768W        W28616  14.103  10.201  16.450  0.0784  0.2983  0.2964
11769W        W28617   5.314   9.190  11.968  0.1594 -0.0498 -0.0002
11770W        W28618   0.387   3.983  16.901 -0.2118 -0.4027 -0.1115
11771W        W28619  12.801   1.314   3.658 -0.1549  0.0282 -0.1717
11772W        W28620  11.031   9.142  15.345 -0.3648  0.3522 -0.3017
11773W        W28621   2.660  15.426   3.351 -0.1780  0.2581 -0.1644
11774W        W28622  16.715   9.270   3.774 -0.1567 -0.1878 -0.0935
11775W        W28623  16.267  12.840   1.408  0.0810 -0.1349 -0.3978
11776W        W28624   4.134  11.777   5.772  0.3105  0.0852 -0.0894
11777W        W28625  17.101   8.064  11.985 -0.1782 -0.0871 -0.1852
11778W        W28626  14.388   8.605  16.408 -0.0650  0.0774 -0.1009
11779W        W28627   8.530   7.248   0.744 -0.1055 -0.2640  0.3657
11780W        W28628   9.426  10.719   5.647  0.0525  0.0738  0.1998
11781W        W28629   1.665  15.561   4.017  0.1789 -0.0420 -0.2629
11782W        W28630  11.249  11.728  15.806 -0.2053 -0.1347  0.2949
11783W        W28631   0.025   9.453   3.880 -0.1887  0.1754 -0.1354
11784W        W28632   7.696  10.134  15.071 -0.0578  0.1498  0.0104
11785W        W28633   0.552   6.527  14.847  0.2149  0.2250  0.1210
11786W        W28634  13.689  13.258   0.161  0.0687  0.1981  0.2223
11787W        W28635   1.831   1.172  15.636  0.1704  0.1211 -0.0079
11788W        W28636  11.087   5.690  13.980  0.2487 -0.0070  0.1565
11789W        W28637   7.751   1.409   1.076  0.1124  0.0111  0.0923
11790W        W28638   0.046  13.360  16.404 -0.1635 -0.1978 -0.3495
11791W        W28639   3.534   2.471   4.397  0.1706  0.0253 -0.2462
11792W        W28640   2.421   8.722  15.063 -0.2681  0.0795 -0.1732
11793W        W28641   7.522   8.024  13.505  0.0805  0.2678 -0.3776
11794W        W28642   3.905   8.598   3.149  0.1945 -0.1975  0.0359
11795W        W28643   7.532   3.561   1.951  0.0825 -0.1097  0.1793
11796W        W28644  14.373   5.985   0.341  0.2286  0.1356 -0.1751
11797W        W28645   2.521   6.549  17.170 -0.3347  0.1409  0.1260
11798W        W28646  10.996   4.909   2.344  0.1066 -0.4977  0.1554
11799W        W28647   0.281   7.624   5.352 -0.1611  0.1323  0.0369
11800W        W28648   9.478   0.305  12.735 -0.1245 -0.1429  0.0666
11801W        W28649  16.200  14.236  17.198  0.1192 -0.3643  0.0293
11802W        W28650   8.245   5.395  15.280  0.0671  0.1337 -0.1401
11803W        W28651  17.043  13.654   2.835 -0.1013  0.1659 -0.2484
11804W        W28652   7.039   4.513   2.683 -0.0745 -0.1214  0.1762
11805W        W28653   5.473   1.178  15.836  0.0388  0.3757  0.0427
11806W        W28654   8.473  11.495   2.738 -0.2555 -0.0485  0.2686
11807W        W28655  14.711   7.140   5.554 -0.1916 -0.1369 -0.2929
11808W        W28656  16.149   6.309  13.818  0.1578  0.1010  0.0062
11809W        W28657   7.018  16.383   4.944  0.0920  0.3023  0.0572
11810W        W28658  11.444  12.947   4.256 -0.2312  0.0270 -0.1707
11811W        W28659  16.489  14.861  13.969 -0.1223  0.1097  0.0488
11812W        W28660  10.087   6.640  14.504  0.2223 -0.0140 -0.0369
11813W        W28661  10.491   5.291   3.986 -0.4757 -0.0737  0.0212
11814W        W28662  13.673  11.071  14.042 -0.0079  0.0828 -0.2439
11815W        W28663   2.945  15.745  14.368  0.0327  0.1305  0.1049
11816W        W28664   6.967   4.419   3.228 -0.1731 -0.0339 -0.0975
11817W        W28665  12.582   2.133  15.250  0.4482 -0.0111 -0.1522
11818W        W28666  12.805   8.412   5.125 -0.0060 -0.4316 -0.3906
11819W        W28667   7.689   0.905   3.862 -0.0313 -0.2062  0.0554
11820W        W28668  12.210   1.448   6.001 -0.0484 -0.0677  0.3590
11821W        W28669   4.161   0.768  12.798  0.0976 -0.1545  0.2483
11822W        W28670  13.567   6.350   0.538  0.5247 -0.0955  0.0215
11823W        W28671  11.030   6.182   2.323  0.2921 -0.0417 -0.1419
11824W        W28672   5.196  11.661  15.188  0.0694  0.0560 -0.0449
11825W        W28673   2.092  14.031   3.487 -0.1266 -0.1071  0.1255
11826W        W28674   1.599  13.338  15.442  0.2188 -0.0799  0.2015
11827W        W28675  13.969   7.494   5.436  0.1056  0.1671 -0.0987
11828W        W28676   4.761  10.109   6.286 -0.0470  0.2233  0.1839
11829W        W28677   3.617  10.338   5.537 -0.3043 -0.0301 -0.4123
11830W        W28678   8.437  11.005   3.889  0.0001 -0.0876  0.0169
11831W        W28679  15.570   3.756   1.123  0.1456  0.2777 -0.0505
11832W        W28680   1.510  10.089   0.775  0.1430  0.1305  0.1908
11833W        W28681   8.022   3.026   1.978 -0.0188 -0.1701 -0.0766
11834W        W28682  15.057   5.195  14.173  0.1131 -0.0506 -0.1281
11835W        W28683   8.704   1.291  17.758  0.0261 -0.1536 -0.1616
11836W        W28684  16.296  10.087   5.137 -0.0969  0.3297  0.2021
11837W        W28685   3.583  15.640  15.089 -0.0913 -0.1310 -0.0255
11838W        W28686   7.104   0.117  12.974 -0.1332 -0.1404 -0.0425
11839W        W28687  12.776   4.339  16.127  0.0280  0.0641  0.2362
11840W        W28688   0.106  13.676  14.693 -0.3044  0.1200  0.2235
11841W        W28689   0.323  10.752   5.289 -0.1237 -0.2801  0.2977
11842W        W28690   5.699   5.967  12.941  0.0403  0.1025  0.0859
11843W        W28691  15.710   7.410   0.385  0.0599  0.2495  0.2480
11844W        W28692  13.640   5.138   0.963  0.0103 -0.1856  0.0710
11845W        W28693   9.654  15.293   3.749  0.0971  0.1958 -0.0507
11846W        W28694  17.013  16.167  16.631 -0.1191 -0.1746  0.0338
11847W        W28695  11.734   6.772   1.038 -0.3287 -0.1256  0.0575
11848W        W28696   9.144   9.906   5.369  0.4616 -0.1288 -0.2451
11849W        W28697   4.318   6.846  17.456 -0.0291 -0.3942  0.1624
11850W        W28698  16.937  17.160  15.295 -0.1746  0.1774  0.0232
11851W        W28699   7.388   8.271  15.123 -0.1057  0.0895  0.1116
11852W        W28700  16.826   1.946  13.992  0.3589  0.0138 -0.2009
11853W        W28701   0.421   1.565   4.223 -0.2560 -0.2515 -0.1011
11854W        W28702   9.371  12.583   2.273  0.1802 -0.0223  0.1047
11855W        W28703  16.260  16.432   3.716 -0.4022 -0.2890 -0.2357
11856W        W28704   6.919  10.207  13.925 -0.0217 -0.0152  0.2416
11857W        W28705   0.812   5.188   3.855 -0.0533  0.2876 -0.0079
11858W        W28706   6.742   8.081  14.701 -0.0023 -0.1761  0.0797
11859W        W28707   1.971   7.796   2.939  0.1015  0.0429  0.0430
11860W        W28708  13.266   9.718   5.063 -0.1421 -0.2307  0.1038
11861W        W28709   7.085  10.510   4.742 -0.1180  0.1333 -0.0522
11862W        W28710   9.329  13.787  12.267  0.0582 -0.0345  0.0662
11863W        W28711  14.970   6.366   1.302 -0.2792 -0.0672 -0.0519
11864W        W28712   3.254   8.010   5.621  0.0073 -0.1403 -0.2031
11865W        W28713   2.011   9.271  13.706 -0.2527 -0.0308 -0.1896
11866W        W28714   8.218   1.238   0.873  0.0594  0.1852  0.0464
11867W        W28715  12.825   3.617  14.711  0.0310 -0.1151  0.0773
11868W        W28716  13.130   7.609   3.135  0.0036 -0.1558  0.0318
11869W        W28717  12.422   2.022  13.964  0.3136 -0.1535  0.2853
11870W        W28718  14.979   7.610   2.930 -0.0866  0.0379  0.0543
11871W        W28719   3.289  16.694  17.009 -0.2195  0.0175  0.1743
11872W        W28720  16.699   6.769  15.087 -0.0451  0.0785 -0.1363
11873W        W28721  14.929   1.981  13.981 -0.0180 -0.1814 -0.0469
11874W        W28722  10.344  12.835   2.029  0.1009  0.1931 -0.0265
11875W        W28723   6.087   6.538  16.364  0.0843 -0.1032 -0.0508
11876W        W28724  13.444   7.014   5.346  0.0682 -0.2332 -0.2182
11877W        W28725   7.447  16.819   4.972  0.1298 -0.1442 -0.0367
11878W        W28726  17.017   5.547   3.940 -0.0240  0.1342  0.0431
11879W        W28727   0.869  15.418  15.850  0.1259  0.0416 -0.1937
11880W        W28728  16.211  11.152   3.725 -0.1107  0.1215 -0.1484
11881W        W28729   8.154   4.827  13.602  0.2152  0.1237 -0.0694
11882W        W28730  16.291  16.105  13.542  0.0301  0.2685 -0.3077
11883W        W28731  16.860   1.285   2.167  0.1710 -0.1048 -0.2065
11884W        W28732   6.651   0.532   4.258  0.1015 -0.1984  0.0217
11885W        W28733  12.242   2.864  15.483 -0.0073 -0.2005 -0.0176
11886W        W28734   2.860  16.048  14.814 -0.2009 -0.1236 -0.0131
11887W        W28735  13.794   6.884  15.316  0.0710  0.1754 -0.3050
11888W        W28736   4.439   4.318   1.425  0.3185  0.2682 -0.1145
11889W        W28737   2.309  16.728   0.330 -0.2662  0.1220 -0.2198
11890W        W28738  14.181   3.003  16.879  0.1521  0.0441  0.2633
11891W        W28739   4.468  12.032   3.299 -0.1574  0.1845  0.0461
11892W        W28740  14.229   5.660  16.310  0.2175 -0.0777 -0.2808
11893W        W28741  10.475   2.194   5.380 -0.0025  0.0572 -0.1435
11894W        W28742  14.711   3.108  16.638  0.0088 -0.0164 -0.0795
11895W        W28743   1.018   8.003  16.044 -0.2206  0.0426 -0.3706
11896W        W28744  16.992   6.504   4.344 -0.4341 -0.0148 -0.0940
11897W        W28745  13.179   0.800  15.226 -0.4258 -0.0699  0.1196
11898W        W28746   7.951   4.650  12.671  0.0071 -0.0411 -0.0336
11899W        W28747  13.096   5.281  13.522  0.1936 -0.1954  0.0747
11900W        W28748   0.406   6.073   0.029 -0.1789 -0.0005  0.0707
11901W        W28749  14.848   7.955  14.632 -0.0912  0.2647  0.2265
11902W        W28750  10.724  10.885  12.644  0.4705 -0.0660  0.3305
11903W        W28751  15.600   6.023   3.109  0.0555  0.3527 -0.1851
11904W        W28752   6.667   3.506   1.418  0.0395  0.1792  0.0602
11905W        W28753   3.398   4.596  12.595 -0.2270 -0.2118 -0.1026
11906W        W28754   8.272   9.101  13.043 -0.2134  0.3577 -0.1590
11907W        W28755   8.833   2.923   2.760  0.2097  0.0783 -0.0149
11908W        W28756  10.470   8.784   3.042  0.1333  0.0335  0.1540
11909W        W28757   3.829   2.473   3.472 -0.2649 -0.0006  0.2348
11910W        W28758   8.253  15.814  13.094  0.0676  0.1163 -0.2136
11911W        W28759   4.619  10.644  12.908 -0.2630  0.2323  0.4428
11912W        W28760  17.082  10.899  13.291 -0.3407  0.2611  0.0065
11913W        W28761  16.099   3.860   1.092 -0.3476 -0.0550 -0.1531
11914W        W28762   3.283   7.514  13.621  0.2339 -0.1452  0.0485
11915W        W28763   7.627   6.745  14.889  0.0407  0.2968  0.0294
11916W        W28764  10.192  11.292   3.408  0.1227  0.2643  0.0270
11917W        W28765   0.754  16.905  17.014  0.0075 -0.2066 -0.2197
11918W        W28766   0.832   4.852   2.108 -0.0234  0.0291  0.0264
11919W        W28767   8.583  13.198   5.388  0.0261  0.1270  0.0565
11920W        W28768   6.783   8.171  17.560  0.3641  0.0827 -0.0360
11921W        W28769  12.082   0.709  17.021  0.0853 -0.2853 -0.1525
11922W        W28770   7.970  14.673   4.456 -0.0572 -0.2732 -0.0881
11923W        W28771  16.617   9.693   5.302  0.0999 -0.1005 -0.2770
11924W        W28772  11.994   0.834   2.279  0.0577 -0.2197  0.2655
11925W        W28773  13.343   7.158  11.850  0.0168  0.3524 -0.0900
11926W        W28774   3.617   0.708   2.030  0.0645  0.2045 -0.2112
11927W        W28775  17.157   6.102   1.400  0.0456  0.3993  0.1360
11928W        W28776  15.966  14.313  16.030  0.2886 -0.2882 -0.1747
11929W        W28777  17.022   3.335   2.538  0.1612 -0.1092 -0.0594
11930W        W28778   0.239  16.261   2.188  0.2952  0.0346  0.1615
11931W        W28779   9.058   2.791   1.780  0.1994  0.0307 -0.0440
11932W        W28780   8.835   3.497   2.431  0.2718  0.0933  0.2972
11933W        W28781   8.552   7.292   4.979 -0.3384 -0.1382  0.1798
11934W        W28782  15.534  14.971   5.661 -0.1166  0.1920  0.2793
11935W        W28783   6.064  16.217  16.869 -0.2798  0.1589 -0.2740
11936W        W28784   6.183   1.721  12.053 -0.1433 -0.1087 -0.0178
11937W        W28785   2.894   0.116   4.936 -0.1063 -0.0549  0.0664
11938W        W28786  10.580   6.389  13.118  0.2757  0.0257  0.0953
11939W        W28787  12.409   7.204  16.173 -0.2373  0.0307 -0.1524
11940W        W28788  12.917   9.843   3.551  0.1771 -0.2164 -0.0968
11941W        W28789  14.747   5.592   0.474 -0.0559  0.2204 -0.3805
11942W        W28790   1.061   2.069   5.295 -0.5551 -0.0617 -0.2297
11943W        W28791   6.455   2.820   3.583  0.1253 -0.3630 -0.1175
11944W        W28792  17.137   1.307   3.296 -0.0258  0.2424  0.2536
11945W        W28793  12.085   6.168  13.122  0.0522 -0.0475  0.0420
11946W        W28794   7.888   6.733  14.451  0.0225 -0.0481  0.3904
11947W        W28795  13.259  10.909  13.221 -0.1640 -0.0045 -0.3210
11948W        W28796   2.696   2.484   0.379 -0.0036 -0.0211 -0.2025
11949W        W28797  10.380   9.451   0.307  0.1949 -0.3601  0.1404
11950W        W28798   8.900   1.171  14.160 -0.2371  0.1197 -0.1965
11951W        W28799   4.375   8.752  16.804  0.0003  0.1661  0.0833
11952W        W28800  10.138   3.276  15.763  0.2768  0.1767  0.1184
11953W        W28801   0.492   6.571  17.538 -0.1101  0.2784 -0.1569
11954W        W28802   9.681  10.694   2.194 -0.3171 -0.2392 -0.4730
11955W        W28803  13.849  15.248   2.028  0.0026 -0.0913 -0.2760
11956W        W28804  11.178   6.699  17.636  0.2231 -0.1725 -0.0830
11957W        W28805  16.502   0.715   0.646 -0.1360 -0.0481  0.1448
11958W        W28806   6.457   4.328  16.655 -0.2788 -0.3001 -0.1069
11959W        W28807  16.606   9.082   2.615 -0.2992  0.2454  0.2329
11960W        W28808   4.148   6.676  13.032  0.2115  0.0827 -0.0316
11961W        W28809  14.452  13.108  13.070  0.1714 -0.1434 -0.1339
11962W        W28810  11.080  11.998  16.927 -0.0985 -0.0636  0.2972
11963W        W28811   1.627  12.478  16.328 -0.1812 -0.3090 -0.2115
11964W        W28812  15.568   3.157   1.599  0.1645  0.0145 -0.2279
11965W        W28813   5.374  11.316  12.795 -0.4684 -0.2905 -0.1463
11966W        W28814   7.370   1.805  17.209  0.2555 -0.0183 -0.2343
11967W        W28815  10.199   1.350  15.722  0.3526  0.2196 -0.0923
11968W        W28816  13.610   4.849  13.819 -0.3769 -0.0714 -0.1501
11969W        W28817   3.686  11.619   4.398 -0.1042  0.0307  0.1315
11970W        W28818   0.089  10.433   4.758  0.0806  0.0809 -0.2644
11971W        W28819   2.230   1.122  13.537  0.1018  0.2403 -0.0440
11972W        W28820  10.013   8.657   5.849 -0.2695  0.0193  0.1303
11973W        W28821  13.660  12.720  12.925 -0.2816  0.0781  0.0877
11974W        W28822  15.610  12.177   4.613  0.1557  0.0805 -0.1850
11975W        W28823   1.236  13.529   5.115 -0.0517  0.0729 -0.0726
11976W        W28824  16.080  14.146  14.338  0.4221  0.1021  0.1095
11977W        W28825   4.782  16.020   3.703  0.1719  0.0878 -0.1487
11978W        W28826  11.484   3.546   1.062 -0.0967  0.0085  0.0841
11979W        W28827   3.204  12.671  14.530  0.2532 -0.1116  0.0705
11980W        W28828  14.408  11.007  17.770  0.3586 -0.0278  0.1482
11981W        W28829   3.097  11.568  14.012 -0.4359 -0.3604  0.2808
11982W        W28830  17.033   7.926   3.811 -0.1771 -0.3323  0.0052
11983W        W28831   0.531   1.080   1.384  0.1054  0.4865  0.2675
11984W        W28832  13.145  16.467  13.881 -0.0746 -0.5596 -0.0352
11985W        W28833   2.259   9.999  15.475  0.1193  0.0234  0.0809
11986W        W28834  11.307   9.698   5.245  0.1397  0.1658 -0.1603
11987W        W28835   9.577  12.217   2.592 -0.0293 -0.0047  0.0859
11988W        W28836  12.586  12.249   3.918  0.2044 -0.1255  0.0033
11989W        W28837   8.682  14.579   4.955  0.2392 -0.2278 -0.1422
11990W        W28838   6.942  10.375  16.340  0.1137 -0.0139  0.3549
11991W        W28839   8.600  15.255   2.749 -0.1785  0.2788 -0.1940
11992W        W28840   9.872   8.715   0.860  0.0628  0.0919  0.2496
11993W        W28841  11.177   0.496  16.091 -0.2006 -0.2390  0.3267
11994W        W28842  12.334   7.192  14.739  0.1478  0.2699  0.1243
11995W        W28843   3.619   5.801  16.450 -0.2437  0.0558 -0.0237
11996W        W28844  13.928  16.834  15.437 -0.0319  0.1209  0.0341
11997W        W28845   5.545  13.528   2.952 -0.3314 -0.0513  0.0895
11998W        W28846  11.707  11.174  17.715 -0.0686 -0.2031  0.0352
11999W        W28847  12.104   1.152   4.929 -0.0393  0.0402  0.0231
12000W        W28848  13.901  13.550   3.160 -0.3546 -0.0390 -0.1429
12001W        W28849   0.220   6.290   2.650 -0.1506  0.1103  0.2270
12002W        W28850  11.864   1.741   0.892 -0.1819  0.1650 -0.0038
12003W        W28851   2.710   1.463   0.365 -0.0883 -0.0090 -0.0625
12004W        W28852   5.776   1.650   3.107 -0.0856 -0.3747 -0.0032
12005W        W28853  15.873  12.114  13.008  0.1264 -0.3457  0.0395
12006W        W28854   0.698  11.484  12.738 -0.1072  0.1177 -0.2059
12007W        W28855  14.605  13.822  14.779  0.2425 -0.0655 -0.0221
12008W        W28856   7.006  12.322  15.125 -0.0727 -0.1777 -0.0429
12009W        W28857   4.900   7.328   3.528  0.4771 -0.2156  0.1906
12010W        W28858  17.038  15.931  13.528 -0.1958  0.0195  0.1298
12011W        W28859  13.528   0.475   5.878  0.4613 -0.1685  0.2496
12012W        W28860  13.891   9.859  15.411 -0.0199 -0.0826 -0.1061
12013W        W28861   5.504  16.133   1.492  0.1329  0.0573 -0.0279
12014W        W28862   3.033  13.421   6.081 -0.1462 -0.1292  0.0414
12015W        W28863  16.452  16.189  15.110 -0.2400  0.0887  0.0050
12016W        W28864   8.873  11.110   1.900 -0.2704 -0.4332 -0.1906
12017W        W28865   2.592   6.617   1.895 -0.1040  0.0896  0.0543
12018W        W28866   7.717   2.774   2.955 -0.0651  0.1885 -0.0916
12019W        W28867   1.740   1.153   1.719 -0.1295  0.1368  0.0582
12020W        W28868   6.203  12.154  14.360  0.0387  0.0070  0.2319
12021W        W28869   1.618   4.748   4.537 -0.1559  0.2289  0.2821
12022W        W28870   8.645  13.447  14.354 -0.2268 -0.1613 -0.1041
12023W        W28871  11.464  12.107  16.632  0.0779 -0.0403 -0.1649
12024W        W28872  13.719   2.093   5.298 -0.1045 -0.3993  0.2102
12025W        W28873  11.711   0.369   2.154  0.2930 -0.0137  0.0820
12026W        W28874  13.662   9.308  13.331  0.2289  0.2109  0.1118
12027W        W28875  13.812   1.482  16.412 -0.2860  0.1821 -0.0280
12028W        W28876  15.750  14.242   5.184 -0.0228 -0.0612  0.2502
12029W        W28877   3.863  14.481   6.391  0.1720  0.1012  0.1373
12030W        W28878   5.212   3.181  16.926  0.1329 -0.0570 -0.0906
12031W        W28879   8.420  14.422   4.204 -0.0029  0.2615 -0.1918
12032W        W28880  16.759  14.516   5.247 -0.3272 -0.1511  0.0734
12033W        W28881   2.579  15.621   1.040 -0.0032  0.0974 -0.2155
12034W        W28882   1.573   4.777  14.529  0.3645  0.0901  0.2582
12035W        W28883   4.516  12.930   3.921  0.1882 -0.3381  0.1309
12036W        W28884   0.276  10.852   3.055  0.2064 -0.1000 -0.2010
12037W        W28885  13.454   0.046   1.538  0.0380 -0.1689  0.0917
12038W        W28886   9.789  14.844  16.459 -0.0753 -0.2590 -0.3509
12039W        W28887   5.938  14.646   3.246  0.1440  0.1004  0.0332
12040W        W28888   4.756  14.637  13.461  0.0400  0.2950  0.0443
12041W        W28889  15.583  13.737   4.958  0.0622 -0.3765  0.0429
12042W        W28890  14.801  16.196   3.366  0.0981  0.2502  0.0334
12043W        W28891  13.840   9.033   3.221  0.1424 -0.0287 -0.1279
12044W        W28892   7.767   4.092   2.219  0.2158 -0.0350 -0.5828
12045W        W28893  14.019  16.447   5.441  0.0061  0.0151  0.2417
12046W        W28894  14.893   8.625  13.938 -0.2687 -0.1189 -0.0158
12047W        W28895   5.125   2.405   3.987 -0.2686 -0.0801 -0.0649
12048W        W28896   6.336  16.252   0.990  0.1890  0.3089  0.0929
12049W        W28897  15.798  15.853  16.945 -0.2273  0.0110  0.2030
12050W        W28898   6.127  10.436   0.110  0.0290 -0.0789  0.3944
12051W        W28899   3.632  16.721   4.360  0.1039 -0.0781  0.1387
12052W        W28900  12.306  13.078   5.441 -0.1171  0.2292  0.0273
12053W        W28901   6.379   3.988   5.729  0.0384 -0.1109  0.0605
12054W        W28902  17.123   9.638   0.054  0.2375 -0.1039 -0.3402
12055W        W28903   9.654  11.479  14.111 -0.1081 -0.0287  0.0197
12056W        W28904   8.072   0.668   2.783  0.3737 -0.4711 -0.0755
12057W        W28905  14.030   6.116  16.891  0.1213  0.1277 -0.2752
12058W        W28906   3.439   9.657  15.173  0.0116 -0.2209 -0.0521
12059W        W28907   9.586   6.446   0.295  0.1152 -0.0508 -0.2330
12060W        W28908   3.813   7.248   0.471  0.2126  0.0528  0.1615
12061W        W28909  15.311  15.452   5.682 -0.0369  0.0227 -0.3253
12062W        W28910   4.241  11.076  14.353  0.2549 -0.0445 -0.1171
12063W        W28911  16.450   7.122  13.001  0.0466  0.2856  0.2250
12064W        W28912  13.038   5.000  11.814 -0.2013 -0.3753 -0.0603
12065W        W28913  16.439   5.266   4.522  0.2689 -0.3180  0.1080
12066W        W28914   6.847  11.772   5.859 -0.0771 -0.2648 -0.0990
12067W        W28915   1.137   5.495  14.270 -0.0674  0.0106 -0.2882
12068W        W28916  12.971  16.153  15.379  0.0617 -0.2044 -0.1428
12069W        W28917   2.764   9.864   5.291 -0.2443  0.0785 -0.0830
12070W        W28918   5.720   4.276  17.140  0.1831 -0.0169 -0.0778
12071W        W28919   4.825   1.675  13.110  0.1250  0.3676  0.2006
12072W        W28920   1.093   3.353   2.957  0.1400  0.2204 -0.0872
12073W        W28921  13.237  15.895   3.094 -0.0391  0.3152  0.1198
12074W        W28922  16.488   1.323  14.589 -0.0106  0.0075 -0.0476
12075W        W28923  11.014  16.667  11.339  0.1589 -0.0825 -0.1499
12076W        W28924  16.541   7.236   5.132  0.1009  0.0497  0.1634
12077W        W28925  14.433  13.916  12.914 -0.0628 -0.0249  0.2844
12078W        W28926  12.385  16.830  13.617  0.0293 -0.0180 -0.0423
12079W        W28927   6.258  14.701  12.670  0.3652  0.1863 -0.1714
12080W        W28928   6.407  13.427  14.996  0.1358  0.1363  0.0755
12081W        W28929   6.118   9.608  12.855  0.1637  0.2046 -0.3810
12082W        W28930  15.260   3.030   2.866  0.2120  0.0527  0.2641
12083W        W28931   1.263  14.066  16.029 -0.0258 -0.0869  0.2044
12084W        W28932  16.241   9.142   1.254 -0.1695 -0.0588  0.1311
12085W        W28933   2.967  13.563   5.235  0.3181 -0.1330 -0.1922
12086W        W28934  13.448   7.933  14.540  0.1471  0.2234 -0.2492
12087W        W28935  14.747   0.690   4.617  0.1783 -0.2578  0.0444
12088W        W28936   4.451   5.901  11.419  0.0447  0.2267  0.2425
12089W        W28937  11.928   4.100  12.107  0.2676  0.1652  0.1171
12090W        W28938   0.647  15.806  14.478  0.0874 -0.3033 -0.1758
12091W        W28939  11.520  16.701   5.412 -0.0411  0.1856 -0.1389
12092W        W28940  15.726  11.078   4.506 -0.0768 -0.1987 -0.0513
12093W        W28941  15.012   0.813   0.524  0.1231 -0.0692 -0.1384
12094W        W28942  12.149   8.940  12.612 -0.0178 -0.4213 -0.2945
12095W        W28943  14.485  10.657  16.288  0.1134 -0.2238  0.3723
12096W        W28944  13.478  11.330   0.122  0.0884  0.0450  0.0623
12097W        W28945   9.566  15.821  16.402  0.1618 -0.1369 -0.3447
12098W        W28946   2.234   3.809  12.504  0.3203  0.1520  0.0548
12099W        W28947   7.676   6.166  17.281  0.1696 -0.0343 -0.0894
12100W        W28948  12.815   7.036   2.024 -0.1495  0.0203 -0.1155
12101W        W28949   9.408   2.675   2.814  0.2274 -0.2258  0.0365
12102W        W28950   5.912  15.366   1.046 -0.2429 -0.1623  0.0249
12103W        W28951  15.272  12.530  12.397  0.1318 -0.0093  0.0165
12104W        W28952   0.830   1.078   0.407  0.3452 -0.1810  0.2429
12105W        W28953   3.584  11.558  13.755 -0.3312  0.1059 -0.1123
12106W        W28954   8.337   9.437   2.201  0.1217  0.0037 -0.0655
12107W        W28955  14.314   3.068  10.818 -0.0344 -0.1614 -0.3138
12108W        W28956   5.051   3.769   0.419  0.0235 -0.0259  0.0357
12109W        W28957  10.640  10.523   1.864 -0.0488 -0.0604  0.1477
12110W        W28958  12.179  14.031  12.053  0.1133  0.0062 -0.5310
12111W        W28959   2.248   8.964   1.946  0.1263  0.0449 -0.0496
12112W        W28960  15.022   7.385   4.995 -0.1162  0.0513 -0.0929
12113W        W28961  14.742   3.198  15.863 -0.1257 -0.2963 -0.0508
12114W        W28962   3.092   6.465  12.407 -0.2776  0.0306  0.0669
12115W        W28963  16.096  12.010  16.165  0.2123  0.1128 -0.0139
12116W        W28964  10.968  14.551  16.675  0.1308  0.1587 -0.0569
12117W        W28965   5.593   3.167   3.626  0.2684 -0.1730  0.1034
12118W        W28966   2.869   4.555   2.121 -0.1019  0.1163  0.0404
12119W        W28967  11.038  11.822  16.333  0.0619 -0.0134 -0.2472
12120W        W28968   9.263  15.250   0.964 -0.0757 -0.0472  0.0323
12121W        W28969   9.202   5.497   5.149 -0.0243  0.0169  0.0033
12122W        W28970   8.301  14.260   5.188 -0.2645 -0.0511 -0.2655
12123W        W28971  10.160   8.590  12.902  0.1949  0.1263  0.3926
12124W        W28972   0.045  15.890  17.422 -0.0304  0.1545 -0.0423
12125W        W28973  11.002  12.730   0.724  0.0147 -0.0369 -0.1134
12126W        W28974   2.727   3.604  17.481 -0.2227  0.0026 -0.2601
12127W        W28975   0.469  14.761   5.443 -0.1413  0.1396 -0.1098
12128W        W28976   8.027   8.937  16.928 -0.2473  0.1099 -0.1758
12129W        W28977  13.116   8.322   2.341  0.3055 -0.0089 -0.0136
12130W        W28978  10.583  11.854   3.966  0.0157  0.0209  0.0563
12131W        W28979  16.330   7.745   4.697 -0.1569  0.1680 -0.2846
12132W        W28980  12.023  14.142  16.584 -0.3212 -0.0812 -0.1008
12133W        W28981   0.691   8.492   2.678 -0.0034 -0.2113  0.0473
12134W        W28982   2.045  14.393   4.374 -0.3730 -0.1415  0.0350
12135W        W28983  15.569  16.300   4.409 -0.2761  0.0337  0.0912
12136W        W28984   3.194   3.208   4.975  0.0437  0.1956  0.0532
12137W        W28985   7.825  16.788   4.065 -0.0237  0.2231  0.0063
12138W        W28986  16.127  16.509  15.295  0.0323 -0.1516  0.1403
12139W        W28987   9.254   6.767  16.586 -0.0701  0.1477 -0.5790
12140W        W28988   7.087   9.198   2.754 -0.1791 -0.2482 -0.2811
12141W        W28989  12.184   3.313  15.253 -0.1399  0.2020 -0.2865
12142W        W28990  15.212  10.492   1.830  0.1567  0.0023 -0.1999
12143W        W28991  11.846  16.696   1.642  0.2801 -0.0761 -0.1618
12144W        W28992   8.735  15.127  13.986  0.0519  0.0317 -0.0634
12145W        W28993   8.906   2.433  17.246  0.2478  0.1083  0.0761
12146W        W28994   9.035  13.373  15.282  0.0254 -0.0908 -0.0536
12147W        W28995   1.515  12.237  17.684 -0.0750  0.0425 -0.2111
12148W        W28996  16.573   1.981  13.551 -0.1535 -0.1980 -0.0840
12149W        W28997   9.552   6.401   4.134 -0.0075  0.2886 -0.0602
12150W        W28998   1.242  14.581  17.589 -0.0310  0.0255 -0.0802
12151W        W28999   5.047   8.191   3.067  0.0491  0.1850 -0.1651
12152W        W29000   2.214   2.307   0.395 -0.0078 -0.1612 -0.1316
12153W        W29001   6.102   8.712  15.165 -0.2380  0.0628  0.2316
12154W        W29002   8.773  13.569  17.160 -0.1093  0.3003  0.0736
12155W        W29003   2.719   9.147  11.652 -0.0723  0.0375  0.1161
12156W        W29004  10.266   0.293   1.917 -0.0937  0.1886  0.0680
12157W        W29005   2.816   4.084  14.427 -0.0578 -0.0678  0.3024
12158W        W29006  13.960   4.247  12.901  0.0594 -0.3316  0.1728
12159W        W29007  11.871  15.813  14.519 -0.0120 -0.1161  0.1791
12160W        W29008   5.909  11.222   4.964  0.0172 -0.2555 -0.1998
12161W        W29009   4.148   1.664  16.352  0.2865  0.0325 -0.1660
12162W        W29010  14.597  15.610  14.789 -0.4002 -0.0648  0.2824
12163W        W29011  12.619   2.669  17.696 -0.0144  0.1619  0.0891
12164W        W29012  10.764  10.093  16.590  0.1076 -0.1174  0.0538
12165W        W29013   3.666   5.794  14.441 -0.0951 -0.1286 -0.1027
12166W        W29014   7.867   5.493   2.651 -0.3732  0.4448 -0.2540
12167W        W29015  14.406  11.453   1.257  0.1220  0.0091  0.1652
12168W        W29016   4.684  11.054   4.839 -0.1493 -0.0275 -0.1947
12169W        W29017  13.041  13.252  13.309 -0.2912 -0.0253 -0.1087
12170W        W29018   2.811   3.465   2.897  0.4129 -0.4804 -0.0208
12171W        W29019   5.809  15.169   4.377  0.0417 -0.0734 -0.1887
12172W        W29020  13.954   9.174  12.182 -0.0216 -0.1603  0.3447
12173W        W29021   5.480  12.800  14.421 -0.1622 -0.0210  0.0345
12174W        W29022  11.893   4.868  12.614  0.0611 -0.1738 -0.1138
12175W        W29023  11.684   6.666  16.724  0.2236 -0.0198  0.0869
12176W        W29024   8.115  13.146   5.400  0.2025  0.2859 -0.2552
12177W        W29025  13.715   9.110   4.251  0.2034 -0.2192  0.3895
12178W        W29026  10.719   1.838  16.954  0.0725 -0.2226 -0.1769
12179W        W29027   0.863   8.719   5.706 -0.1207 -0.1294  0.1646
12180W        W29028   3.589   7.120  15.957  0.0581 -0.0909  0.0127
12181W        W29029  16.145   7.679   3.341  0.1055  0.0197  0.0025
12182W        W29030  11.132   5.087  16.616  0.3009  0.1130 -0.3048
12183W        W29031   4.493   9.719  13.790  0.0524 -0.0506  0.1286
12184W        W29032   2.305   9.224   3.680 -0.0331  0.0341 -0.2112
12185W        W29033   0.989   5.486   0.678  0.1778 -0.0124 -0.0036
12186W        W29034   9.510  12.891  13.338 -0.2920  0.1071 -0.1331
12187W        W29035   1.556  16.393  14.470 -0.0698  0.1085  0.2463
12188W        W29036   3.737   9.501   5.164 -0.1401 -0.2001  0.0659
12189W        W29037  15.394   5.001  11.968 -0.2566 -0.0492  0.0979
12190W        W29038   9.533  11.263   4.570 -0.0888 -0.0379 -0.0907
12191W        W29039  11.561  14.763   2.831  0.1210  0.2929  0.4269
12192W        W29040  13.327  17.147  12.708 -0.0995  0.1097  0.0898
12193W        W29041   8.704   3.550   5.292  0.0512 -0.0282  0.1472
12194W        W29042  12.891   9.861   0.030 -0.1424 -0.1601  0.2100
12195W        W29043  11.305   0.240  13.772 -0.4148 -0.3243 -0.1088
12196W        W29044   6.012  13.407  17.658 -0.1034  0.1697  0.0800
12197W        W29045   2.250   6.372   5.890  0.1209 -0.2079  0.0491
12198W        W29046   1.918   1.995   1.697 -0.5462 -0.0740  0.3233
12199W        W29047  14.231  11.667  14.495 -0.0566  0.2887  0.2866
12200W        W29048   6.915   7.912  11.677 -0.3044  0.0253  0.2525
12201W        W29049   0.009   8.100  16.591 -0.0784 -0.0774 -0.0253
12202W        W29050  11.298  16.846  16.527  0.2413 -0.0789  0.1496
12203W        W29051  10.431   2.052  11.602 -0.1141 -0.0031 -0.0940
12204W        W29052  12.268   0.147   3.206 -0.0925  0.3838 -0.3071
12205W        W29053  14.330   1.517   4.816 -0.1175  0.1056  0.4982
12206W        W29054   1.066   3.104   4.055 -0.0934  0.1013 -0.2533
12207W        W29055  10.675   3.632   2.337 -0.0054  0.2111 -0.0229
12208W        W29056  11.284  16.826   0.535  0.2635 -0.0418 -0.2366
12209W        W29057   2.133  13.718  15.045  0.1183  0.3749 -0.0946
12210W        W29058   2.472   5.649  13.501  0.1051 -0.1594 -0.0974
12211W        W29059   8.416  11.186  15.353 -0.1308 -0.1226 -0.0466
12212W        W29060   0.364  12.187  15.540  0.1465 -0.0239 -0.1430
12213W        W29061  12.113   6.937  12.714  0.0407  0.2347  0.0975
12214W        W29062  11.974  15.261   1.203 -0.0245 -0.0653  0.1995
12215W        W29063  11.473   3.745   4.871  0.1429 -0.3516  0.0112
12216W        W29064  13.109  11.352   4.234 -0.2190 -0.2881  0.4006
12217W        W29065   6.333  14.469   1.877  0.1702 -0.4805 -0.0254
12218W        W29066  15.929   9.703   0.315  0.2957  0.0962  0.0533
12219W        W29067   8.800   8.494  14.230  0.1002 -0.0214  0.1427
12220W        W29068  16.298  15.550  15.549 -0.4560 -0.3030  0.2940
12221W        W29069  13.266   8.785  14.955 -0.0550 -0.2332 -0.2076
12222W        W29070   9.195   4.843  10.783 -0.2340 -0.1036  0.2615
12223W        W29071   2.135  11.522  14.247 -0.1334 -0.2298  0.1092
12224W        W29072   9.508   1.065  16.081  0.2668 -0.0060 -0.0612
12225W        W29073   0.792   8.556   4.435 -0.1824  0.0341  0.4200
12226W        W29074   9.716  11.538  12.749  0.0278 -0.1623 -0.0504
12227W        W29075   9.837  14.576  14.275 -0.2075 -0.1640  0.1230
12228W        W29076   2.963  13.468  17.178  0.0404  0.1881 -0.2569
12229W        W29077   8.947   4.423   5.210 -0.0325  0.1080 -0.0039
12230W        W29078  10.432   6.467   5.386  0.0283 -0.1810 -0.0654
12231W        W29079   5.891   3.664   4.940  0.0525  0.1333  0.0237
12232W        W29080   9.443   9.160   4.274  0.3217 -0.3204  0.2421
12233W        W29081  12.880   1.517  14.702 -0.0744  0.2941 -0.2029
12234W        W29082   9.650   6.143   4.912 -0.3191  0.1684  0.0274
12235W        W29083   9.004   9.137  15.895  0.2252 -0.0649  0.0983
12236W        W29084  15.733   5.073   5.693 -0.2839  0.1041  0.0466
12237W        W29085  15.039   4.953  17.170 -0.1571 -0.2334 -0.0775
12238W        W29086   7.586   7.299  16.563 -0.3484  0.3551  0.0370
12239W        W29087   9.219  16.498   2.897 -0.4034 -0.0312 -0.1320
12240W        W29088   4.096  14.337   1.211  0.0657 -0.1385 -0.0122
12241W        W29089  13.432   1.353   4.377 -0.1115  0.3538  0.0159
12242W        W29090   8.893   9.338  13.622 -0.2935 -0.1413 -0.0026
12243W        W29091  12.979   4.546   4.613  0.2076  0.1029 -0.2297
12244W        W29092   2.908  11.189  16.894  0.3507 -0.2456  0.3101
12245W        W29093  11.758   9.501   5.139 -0.0566  0.3163 -0.2028
12246W        W29094  15.937  15.488   1.412  0.2452 -0.0258 -0.1621
12247W        W29095  11.987  16.668   0.129 -0.1219 -0.0553 -0.2174
12248W        W29096   8.069   9.028  17.763 -0.1901 -0.0691 -0.0713
12249W        W29097  13.760   0.408  14.259 -0.1629  0.1209 -0.1131
12250W        W29098   4.469   0.570   4.190  0.2027 -0.2250  0.1173
12251W        W29099   9.374   8.668   4.187  0.0443 -0.2532  0.2486
12252W        W29100   5.539   8.273   0.691 -0.1801 -0.2128 -0.0701
12253W        W29101   3.863   4.020  16.373  0.1299  0.0163  0.1183
12254W        W29102   7.944   2.901   3.857 -0.1516  0.0211  0.0155
12255W        W29103  10.142   6.986   2.131  0.1980 -0.0044  0.1378
12256W        W29104   2.126   1.931  13.631  0.0927 -0.0376 -0.3084
12257W        W29105  14.051   9.303   4.713 -0.0858 -0.0332  0.1813
12258W        W29106  11.528  15.790  14.126 -0.1118  0.0498  0.0542
12259W        W29107   5.770   1.834   4.358 -0.0101 -0.0648  0.0528
12260W        W29108  16.802  15.236  14.823 -0.2255 -0.1410  0.0167
12261W        W29109  15.370   8.466  14.301 -0.0789  0.0552  0.0625
12262W        W29110   6.390  10.843   6.005  0.1280  0.0973  0.1140
12263W        W29111  12.329   9.372  17.225  0.0235 -0.0094 -0.0751
12264W        W29112   0.981   9.133  12.536  0.1119  0.0670  0.0716
12265W        W29113  10.032   3.860  17.547  0.0584 -0.2351  0.2288
12266W        W29114  14.168   3.838   1.148  0.2380 -0.4250  0.0112
12267W        W29115  11.038   2.336   4.286 -0.2526  0.0039 -0.0090
12268W        W29116  13.787   4.444  12.121  0.2692  0.2604 -0.0419
12269W        W29117  13.154   0.832  17.137 -0.1354 -0.0805 -0.0389
12270W        W29118   6.029   3.193  17.453  0.4159  0.0321  0.1382
12271W        W29119  12.550   1.747   1.205 -0.0834  0.1777 -0.0047
12272W        W29120  13.995   7.500  16.203 -0.0051 -0.1029  0.2717
12273W        W29121  10.919   3.437  17.677  0.0632 -0.2308 -0.1835
12274W        W29122   1.244  14.328  13.074  0.0376 -0.0341 -0.1828
12275W        W29123   2.145  15.761   5.954 -0.0341  0.0706  0.2118
12276W        W29124  11.585   8.947   2.973  0.1006 -0.2220  0.4213
12277W        W29125   6.648   8.393  13.865  0.1911  0.2919  0.1651
12278W        W29126   3.856   0.816  16.791 -0.1435 -0.0728  0.2180
12279W        W29127  15.047  10.286   1.015 -0.1261 -0.0587 -0.0881
12280W        W29128  11.067   1.105   4.326 -0.1494  0.0089 -0.2663
12281W        W29129   6.379  10.503  12.628  0.1406 -0.2569  0.1226
12282W        W29130   2.175  14.201  14.401 -0.0800 -0.0512 -0.1418
12283W        W29131   3.547   1.236  15.217  0.0449  0.0154 -0.0890
12284W        W29132   6.424  11.054  14.001 -0.1503  0.2855 -0.1055
12285W        W29133   9.905   8.193   0.356 -0.0748 -0.2588  0.1191
12286W        W29134  13.886  16.868  14.576 -0.0224  0.0477 -0.1721
12287W        W29135   3.452  16.758   2.870  0.1359 -0.2908 -0.0096
12288W        W29136   7.772   9.510   4.263  0.4251  0.0950  0.1072
12289W        W29137   3.363  14.773   4.832  0.1558  0.1898 -0.0468
12290W        W29138   3.309   7.580   4.114  0.1611 -0.0051  0.1180
12291W        W29139  15.829  12.776   0.619  0.0973  0.1963 -0.2240
12292W        W29140   7.539  15.205   5.890  0.1623  0.1866 -0.0628
12293W        W29141   7.464  12.525   2.668  0.1864  0.0089 -0.2815
12294W        W29142  13.324  16.858  12.312 -0.1641 -0.0863 -0.0149
12295W        W29143   9.719  16.905   5.234 -0.0465  0.1846  0.1230
12296W        W29144   9.733   3.967  16.354 -0.0543  0.0269  0.3348
12297W        W29145   7.898  13.472  16.610  0.0282 -0.2374  0.3457
12298W        W29146   9.586   6.771  13.749 -0.3093 -0.0895  0.2890
12299W        W29147  11.487   9.620  16.185 -0.0877 -0.0362 -0.0268
12300W        W29148  12.347  15.824   4.178 -0.0649 -0.1295  0.0018
12301W        W29149   7.225   2.350   3.760 -0.1314 -0.4154 -0.1110
12302W        W29150  10.585   6.707   0.048  0.0508 -0.0480  0.0589
12303W        W29151   5.317   1.063   4.290  0.1899  0.0019  0.1256
12304W        W29152   5.411   8.273   2.638 -0.2536  0.4403 -0.0688
12305W        W29153   4.231   4.483  14.188 -0.3542  0.1113  0.1914
12306W        W29154   4.209   7.812  12.466  0.0926  0.1581  0.0985
12307W        W29155  13.974  17.161  13.876 -0.0280 -0.1989  0.1018
12308W        W29156  16.887  17.011   1.054 -0.0382 -0.3139  0.3856
12309W        W29157   2.261   8.497  16.738  0.1804  0.3370 -0.0019
12310W        W29158  14.335   4.741   2.506  0.0774  0.1884 -0.2069
12311W        W29159  10.342  11.439  16.157  0.0547  0.0907 -0.2104
12312W        W29160   3.571   0.278   4.717 -0.0388 -0.1270 -0.0681
12313W        W29161   2.710   3.120  16.315 -0.2594  0.0943  0.1396
12314W        W29162  13.633  11.054  16.519  0.2495 -0.1788 -0.0282
12315W        W29163  11.552   3.388  16.079  0.0881 -0.1776  0.2007
12316W        W29164   9.514  11.092  14.640  0.1631  0.0908 -0.4212
12317W        W29165   6.777   4.969   0.130  0.3479 -0.2471 -0.0765
12318W        W29166  10.763   7.128  12.553  0.0318 -0.0082 -0.1634
12319W        W29167  15.636   5.769   4.369 -0.0858  0.0921 -0.2369
12320W        W29168   7.559   9.002   1.269 -0.0231 -0.3822 -0.0665
12321W        W29169   1.642   2.711  16.790  0.1545  0.0643  0.0622
12322W        W29170  15.938   6.689   1.914  0.0800  0.0395  0.1436
12323W        W29171  11.358  14.006   5.508 -0.0883 -0.0924 -0.2087
12324W        W29172  12.172  10.999   0.058  0.1667 -0.0252 -0.1537
12325W        W29173   2.097   7.099   1.900  0.1271  0.2957  0.0131
12326W        W29174  16.788  13.974   2.568 -0.0194 -0.0888  0.1187
12327W        W29175  16.765   4.644  14.461 -0.0123 -0.0364 -0.0547
12328W        W29176  12.136   0.756  11.553 -0.0974  0.2014  0.3925
12329W        W29177   7.955  12.513  12.820  0.0187 -0.1537  0.1809
12330W        W29178  10.957   7.067  15.727 -0.1016 -0.0463  0.0339
12331W        W29179   5.939   1.293  15.435 -0.0322 -0.1130 -0.2389
12332W        W29180   2.461  12.772   2.465 -0.0272  0.1432 -0.0586
12333W        W29181   5.873   9.641   4.267  0.1028 -0.2620  0.1887
12334W        W29182   9.230   5.266   2.121  0.1634  0.1270  0.2470
12335W        W29183  15.229   8.207   4.654 -0.0500 -0.0611 -0.1217
12336W        W29184  15.055   0.281   2.163  0.1954 -0.0488  0.1540
12337W        W29185  13.250  16.796  14.698 -0.1243 -0.3556  0.1926
12338W        W29186  15.795   5.611   3.328 -0.1476  0.1786  0.2321
12339W        W29187   7.659   0.800  15.812  0.0580  0.0050 -0.1580
12340W        W29188   2.531  10.760  17.096  0.1618 -0.1761 -0.1144
12341W        W29189   5.599   9.397  15.169  0.0597 -0.2855  0.1983
12342W        W29190  15.752  15.066  16.822  0.0553 -0.2007 -0.3251
12343W        W29191   1.253   4.779  16.179  0.2126  0.0327  0.0071
12344W        W29192   9.638   8.254   0.766 -0.1123 -0.3274  0.0227
12345W        W29193  10.987   3.413   1.226  0.0849  0.0755  0.2566
12346W        W29194  16.998  11.402  13.280 -0.0422  0.0993 -0.1318
12347W        W29195  14.664  14.640  15.812  0.0535 -0.1552  0.0141
12348W        W29196  15.818  13.677   2.717  0.2900 -0.2698 -0.0318
12349W        W29197   9.056   6.784   1.908 -0.4678 -0.2074 -0.0155
12350W        W29198  12.918  15.277   4.051  0.0277  0.0300 -0.0799
12351W        W29199  16.969  16.656   5.630 -0.0320  0.2280 -0.1503
12352W        W29200   2.231   0.017  12.607 -0.0952  0.2426  0.2336
12353W        W29201   9.636  12.458  13.544 -0.0041 -0.0858  0.1333
12354W        W29202   6.146  10.050  12.456  0.0607  0.0990  0.0439
12355W        W29203  15.240  15.764  16.280  0.0803  0.0279  0.0048
12356W        W29204   7.043   8.898  16.819  0.1484  0.0704 -0.2479
12357W        W29205  13.466  16.081   4.942 -0.4488  0.1177  0.3492
12358W        W29206  14.758   2.339   1.187 -0.0626  0.0003 -0.1232
12359W        W29207   4.921   5.654  12.824  0.1076 -0.0569  0.1675
12360W        W29208   4.064   9.751   4.795 -0.1873  0.4173  0.2072
12361W        W29209  16.131  11.194  12.084  0.1881 -0.2484  0.0497
12362W        W29210  10.617   3.499  13.890 -0.0005  0.0319  0.0644
12363W        W29211  14.709   9.434  13.576  0.2431  0.0367  0.2456
12364W        W29212  12.115  14.928   2.913 -0.1184 -0.0232  0.1958
12365W        W29213  11.133   1.069  12.307 -0.0773  0.1304  0.3455
12366W        W29214   1.628  14.757  17.348 -0.1462 -0.2762 -0.0729
12367W        W29215  11.536  15.884   1.907  0.0401 -0.0531  0.0675
12368W        W29216   2.819   3.051  17.708 -0.2000  0.0952  0.1437
12369W        W29217   9.087  14.327   5.407  0.3583  0.2765  0.1757
12370W        W29218  12.410  10.553   0.906 -0.3949  0.1567  0.0701
12371W        W29219  13.069  16.635   0.824  0.1235  0.1357 -0.2350
12372W        W29220   3.268  12.859   1.312  0.1372 -0.0486  0.1632
12373W        W29221  15.400   7.620   5.833 -0.0486 -0.1917  0.0934
12374W        W29222  12.564  17.124   3.655  0.1632  0.1136  0.2582
12375W        W29223   3.792  12.832   4.258  0.1746 -0.1061 -0.0412
12376W        W29224  13.797   6.564   1.117 -0.0455 -0.1041 -0.1583
12377W        W29225  14.628   5.450   5.091  0.2702 -0.1252  0.2928
12378W        W29226   7.602   5.661   3.089  0.0113 -0.1183  0.0232
12379W        W29227  13.649   3.296  11.903  0.0459  0.1888 -0.2639
12380W        W29228   8.029   2.231   5.036 -0.1857  0.2545 -0.1290
12381W        W29229   5.366   8.713   1.788 -0.1525  0.1458  0.3510
12382W        W29230   7.180   7.430   2.440 -0.1235 -0.0275  0.2170
12383W        W29231   5.971   0.620   5.113  0.2259  0.1547  0.2168
12384W        W29232   2.405   8.276  12.572  0.1352  0.2124  0.2947
12385W        W29233  11.054  10.802  14.198 -0.0813 -0.0177  0.0202
12386W        W29234  14.457   7.092   0.969 -0.1054  0.1956 -0.0953
12387W        W29235  11.762   5.453   2.713 -0.0365  0.1945  0.1643
12388W        W29236  13.484   7.577   3.475  0.1614 -0.1456 -0.1474
12389W        W29237  15.586  16.577  16.378  0.1388  0.0720 -0.2251
12390W        W29238  15.669  12.191   3.323  0.3101 -0.2046 -0.1232
12391W        W29239   8.101  16.906   3.573  0.0566 -0.0197  0.1528
12392W        W29240   6.701  12.735  16.441  0.1269 -0.0965  0.4114
12393W        W29241  11.575   3.789  16.419  0.2501  0.0631 -0.2411
12394W        W29242   3.284   5.009  14.250 -0.1160 -0.0067 -0.0640
12395W        W29243   4.917   8.880   2.358 -0.0987 -0.0480  0.0694
12396W        W29244   8.754  13.856   5.410 -0.2186 -0.3360 -0.1347
12397W        W29245  16.471  14.693  12.647  0.2370  0.2334 -0.1460
12398W        W29246   5.391   3.904   2.337  0.0912  0.0423  0.1763
12399W        W29247   9.346  11.786   4.796 -0.2002 -0.0520 -0.2674
12400W        W29248   5.361   8.976  16.192  0.1507  0.1032 -0.1694
12401W        W29249   9.569  10.627  13.696  0.3258  0.2450 -0.0247
12402W        W29250   0.907   9.932   0.164 -0.3896 -0.0766 -0.2510
12403W        W29251   7.466   9.977  14.232 -0.1360 -0.0210  0.4502
12404W        W29252   5.789  12.997   1.197 -0.1144 -0.3202 -0.2553
12405W        W29253   8.534   6.010  14.524  0.1486 -0.0338 -0.3430
12406W        W29254  16.605  12.538  16.951  0.0015  0.1536 -0.1732
12407W        W29255   6.113  12.204   4.580 -0.2316  0.0692  0.0630
12408W        W29256   6.853  15.076   4.023  0.3827 -0.2346  0.3440
12409W        W29257   6.327  11.127  15.050  0.2024  0.0251 -0.0211
12410W        W29258   0.044   9.220  13.447  0.0480  0.1870  0.3181
12411W        W29259   9.025  14.357   0.286 -0.0085  0.2082 -0.2132
12412W        W29260   6.674   0.477   3.731 -0.1674 -0.0869 -0.3238
12413W        W29261   7.483  10.468  15.421 -0.0083  0.0690 -0.1189
12414W        W29262  16.131  12.078  14.737 -0.2901 -0.0927  0.0800
12415W        W29263   1.816   8.301   0.732 -0.3162  0.1854 -0.0519
12416W        W29264  11.780   6.003  17.155  0.3964  0.2630  0.0515
12417W        W29265  12.071   2.669   2.472  0.0138  0.1836 -0.1608
12418W        W29266  15.795   8.382   1.052 -0.0380  0.1178 -0.0016
12419W        W29267   0.460   1.538  14.242  0.0519 -0.3321  0.1371
12420W        W29268   6.966   0.984  17.352 -0.0665  0.1212 -0.0068
12421W        W29269   9.910   0.644  12.953 -0.2879 -0.0542 -0.1929
12422W        W29270   3.276   3.261   4.343  0.1273  0.2788  0.1200
12423W        W29271  16.213   9.507   1.905 -0.1180  0.0872 -0.0450
12424W        W29272   6.318  15.598  12.362 -0.1152 -0.2543 -0.1092
12425W        W29273   8.719   7.315  17.394 -0.2634 -0.1827  0.2227
12426W        W29274   1.647  16.355  16.348 -0.3217  0.2374  0.1519
12427W        W29275   9.047  13.456   5.556 -0.0001 -0.2779  0.1238
12428W        W29276   0.825  12.947   4.040  0.0759  0.0732 -0.3782
12429W        W29277   0.726  15.638   3.966  0.2302 -0.0069  0.2023
12430W        W29278   1.190  13.981  15.026  0.0195  0.0289 -0.1239
12431W        W29279  10.001  11.641  13.157 -0.0605  0.1660  0.2502
12432W        W29280   9.905   6.480  14.079  0.2376  0.1902  0.0591
12433W        W29281  12.934  10.631  16.874 -0.1780  0.2176  0.1636
12434W        W29282   4.432  15.431  13.533  0.0008 -0.0202  0.0370
12435W        W29283   9.642   5.336  16.366 -0.3921 -0.1424 -0.0389
12436W        W29284   2.204  16.995   3.777  0.1223 -0.0264  0.2256
12437W        W29285   6.184   7.212  15.417 -0.3142 -0.0100  0.0195
12438W        W29286   9.436   0.006  16.820 -0.1808 -0.0697  0.2899
12439W        W29287   2.134   5.144   0.857 -0.1159  0.3352 -0.0834
12440W        W29288   8.000  14.418  13.316  0.1444  0.0090  0.0962
12441W        W29289   2.914   7.407   0.341  0.0200  0.2923 -0.1974
12442W        W29290  14.348  10.238   1.873 -0.1408 -0.2090 -0.1601
12443W        W29291   8.678  16.845   3.729  0.0871  0.3669  0.0189
12444W        W29292   0.150  10.084  16.495  0.1218 -0.1420 -0.3117
12445W        W29293   2.172   4.010   0.677 -0.2133  0.2401 -0.3349
12446W        W29294  11.733   8.099  15.512  0.0166 -0.2824  0.1156
12447W        W29295  12.917   9.822   1.451  0.1618  0.0742  0.2912
12448W        W29296   9.588   5.376   5.443  0.0116 -0.1743  0.0648
12449W        W29297   1.292  15.129   1.550  0.0227 -0.0520 -0.1319
12450W        W29298  15.436   4.134   4.399 -0.1515  0.1940 -0.0799
12451W        W29299   0.721  11.518   5.620  0.1974  0.3939  0.1996
12452W        W29300   7.713   6.964  12.053 -0.0175  0.2919  0.0672
12453W        W29301  11.005  12.822  13.050 -0.3489  0.2283 -0.0377
12454W        W29302   2.430   8.348  12.096 -0.2410  0.1002  0.2440
12455W        W29303   0.805  12.989  12.834  0.1104  0.0055 -0.2158
12456W        W29304   7.529   0.888   1.163 -0.0316  0.0359 -0.1020
12457W        W29305   1.634  16.478   1.753  0.5531 -0.3429  0.0172
12458W        W29306  15.618   5.624   0.131 -0.1940 -0.1888  0.0279
12459W        W29307  14.226   6.854  14.557  0.0135  0.0840  0.0302
12460W        W29308  16.460  15.591  17.580 -0.0326 -0.0115  0.0726
12461W        W29309   2.007  16.958   5.124 -0.0400 -0.2227  0.1884
12462W        W29310   9.549   2.226   2.490  0.0450 -0.2967 -0.0878
12463W        W29311  11.079  17.101  15.532  0.3115  0.2651  0.1416
12464W        W29312  16.260  13.765  17.461  0.2287 -0.0991  0.1181
12465W        W29313   1.299   3.579  11.582  0.0396  0.0402 -0.2466
12466W        W29314  11.969   6.294  14.504  0.1735 -0.0835 -0.1454
12467W        W29315   3.144  14.009  14.603 -0.0278 -0.2942 -0.0935
12468W        W29316   8.142  10.150  16.223  0.1171 -0.2054 -0.1434
12469W        W29317   4.498   0.111   1.665 -0.1802  0.0567  0.1540
12470W        W29318  15.966   9.099   0.371  0.0393  0.1868 -0.3315
12471W        W29319   0.225   9.228   4.461  0.0118  0.0557  0.1528
12472W        W29320  10.673   7.940  15.501  0.1359 -0.3856 -0.0860
12473W        W29321   7.643   4.122   5.130  0.0863 -0.3241 -0.1938
12474W        W29322   6.849  14.477   1.752 -0.3382  0.2013  0.0382
12475W        W29323   3.355   3.501   1.480 -0.1617 -0.1167  0.2090
12476W        W29324   8.502  13.226   1.009 -0.2981  0.0790  0.0131
12477W        W29325  16.112   2.940  12.780  0.0173 -0.1951  0.0950
12478W        W29326   3.079  15.736  15.853  0.1493  0.1563 -0.3288
12479W        W29327   8.235   7.547   2.493 -0.1670 -0.0007  0.1056
12480W        W29328  13.867   3.095   4.981  0.3600 -0.0444 -0.1151
12481W        W29329  15.985  16.918   2.267 -0.3077  0.0936  0.0110
12482W        W29330   8.952   8.089   2.430  0.0627 -0.0455 -0.0425
12483W        W29331  12.286   6.746   1.216  0.0629 -0.0739  0.1206
12484W        W29332  16.251   8.406  13.250 -0.0549  0.1694  0.1346
12485W        W29333   2.746  12.744   5.799 -0.0247 -0.2329  0.1447
12486W        W29334   0.354  14.247   1.976  0.0868  0.1731  0.1049
12487W        W29335  13.601   0.639  16.604  0.1884 -0.0038  0.1397
12488W        W29336  13.409   8.152   0.195 -0.1467 -0.1888  0.1757
12489W        W29337   1.313   0.875   5.801 -0.1497 -0.1318 -0.2503
12490W        W29338   8.238   7.907   2.899  0.0015 -0.0052 -0.3298
12491W        W29339  13.147   6.190   5.410 -0.0508 -0.1765 -0.0927
12492W        W29340   8.556   1.426  14.360 -0.1568  0.0800  0.0266
12493W        W29341   3.486  11.185   1.488 -0.0016  0.3332 -0.2167
12494W        W29342   1.869  12.332   1.814  0.2359  0.2355  0.0097
12495W        W29343   7.727   7.485   2.478  0.2836  0.2037  0.0198
12496W        W29344   2.844  13.468  15.938  0.1043 -0.0155 -0.0378
12497W        W29345   5.687   9.807  15.470 -0.0676  0.1265  0.1548
12498W        W29346   2.159   3.407  14.279  0.0583  0.2131 -0.0589
12499W        W29347   6.965  16.813  13.668 -0.0522  0.1215 -0.3874
12500W        W29348   2.780  11.047  13.916 -0.2246 -0.3229 -0.3358
12501W        W29349  16.639  16.266   0.552 -0.1362 -0.0771 -0.2850
12502W        W29350  14.158   5.001  17.482 -0.3522 -0.0899  0.0472
12503W        W29351  17.045  15.815   3.330 -0.1946 -0.2360  0.1429
12504W        W29352  14.021   1.044  13.050 -0.0512 -0.0080 -0.1676
12505W        W29353   2.946  14.580   2.788 -0.0187 -0.1899  0.1398
12506W        W29354  14.164  16.104  13.403  0.1335  0.1466  0.2510
12507W        W29355  14.650   7.629   4.179 -0.0204  0.0236 -0.2078
12508W        W29356   6.803   5.605   4.629 -0.2922  0.1239  0.0358
12509W        W29357   1.319  14.384   3.953  0.3158  0.2223 -0.1917
12510W        W29358   4.022   3.182  16.189 -0.0353  0.0770 -0.0148
12511W        W29359  10.559   2.554  11.727  0.0149 -0.1357 -0.1435
12512W        W29360   0.867  16.632   0.675 -0.0538  0.0614 -0.1259
12513W        W29361   5.867  13.497  12.757  0.0325 -0.1487  0.2267
12514W        W29362   6.805  11.619  13.369  0.1674  0.2498 -0.0171
12515W        W29363  12.729   0.278   2.849 -0.0439 -0.0069 -0.3232
12516W        W29364   5.401  11.137  15.910  0.1184 -0.4280  0.1786
12517W        W29365   4.923   7.103   2.210 -0.0141  0.0008  0.1192
12518W        W29366   6.866  11.107  14.262  0.0656 -0.0099 -0.1494
12519W        W29367   2.837  10.233  11.439  0.0534  0.0625  0.0789
12520W        W29368  16.787   1.471  14.196 -0.0138  0.0051 -0.0553
12521W        W29369  16.934   2.641  13.918  0.0470 -0.0686  0.0321
12522W        W29370  14.382   9.487  12.068 -0.1407 -0.1756  0.1790
12523W        W29371  12.971   6.972  15.414  0.1310  0.1409  0.3380
12524W        W29372   7.722   6.634   1.043 -0.1461 -0.1877 -0.2227
12525W        W29373   6.834  16.324  17.568 -0.0132 -0.0651 -0.1217
12526W        W29374   7.074  13.678  12.860 -0.3784  0.0875 -0.3294
12527W        W29375   6.631   8.775   1.210 -0.2375  0.1499 -0.1798
12528W        W29376   7.640  13.861  14.227  0.2623  0.3158  0.0587
12529W        W29377   7.647  14.464  16.338 -0.0710  0.0337  0.2115
12530W        W29378   6.186   0.528   1.048 -0.3041 -0.2325 -0.2358
12531W        W29379   1.332   1.635  14.276  0.2160 -0.0112 -0.0181
12532W        W29380   3.016  11.141  14.333 -0.0817  0.0800  0.2555
12533W        W29381  16.706   2.509  16.313 -0.0716  0.1135  0.2200
12534W        W29382  14.533  14.425  13.477  0.0279  0.0617  0.0981
12535W        W29383  13.722  13.413  15.741 -0.0574 -0.3827  0.0263
12536W        W29384   9.618   1.699  15.315  0.4484 -0.0639 -0.0312
12537W        W29385   6.809   2.026   5.770 -0.1651 -0.0482 -0.4324
12538W        W29386   1.469  13.335  13.490 -0.1626 -0.0104  0.0838
12539W        W29387   6.849   3.630   4.170 -0.0824 -0.2639  0.0903
12540W        W29388  13.719   7.472  15.059 -0.0112  0.5448 -0.4834
12541W        W29389  14.203   6.148   4.401  0.1104  0.1831  0.0754
12542W        W29390   3.125  15.820   4.005 -0.2632  0.0752 -0.0963
12543W        W29391  16.707  14.981   0.584  0.0286  0.2481 -0.1169
12544W        W29392   2.860  16.268   3.973 -0.2418  0.1331 -0.2513
12545W        W29393   6.474  10.205   3.540  0.1516  0.2382  0.1979
12546W        W29394  16.801  11.443   1.272  0.0512 -0.1447  0.1609
12547W        W29395   9.637  13.890  13.199 -0.0993 -0.3365 -0.3401
12548W        W29396  10.071   0.051  15.312  0.3424 -0.0913 -0.2514
12549W        W29397  15.107   5.042   1.432 -0.1779 -0.1925  0.3349
12550W        W29398  17.154   3.101  13.625  0.2790 -0.0816  0.1729
12551W        W29399   2.647   1.901  15.337  0.0701  0.0069  0.0417
12552W        W29400   0.168  16.827  15.507  0.0947 -0.1645  0.1022
12553W        W29401  10.932   5.589  16.978  0.0663 -0.2044 -0.0290
12554W        W29402   4.228  10.275  12.301  0.1352  0.0483  0.0327
12555W        W29403  12.255  11.813   3.924 -0.3885  0.1628  0.2926
12556W        W29404   4.988  10.721  13.995 -0.1207  0.1241 -0.0353
12557W        W29405   8.181  11.606   1.165  0.0301  0.0976 -0.0442
12558W        W29406   1.860   7.288  15.731  0.3417 -0.0325  0.2006
12559W        W29407   2.801  13.561  12.687 -0.3017  0.0647  0.0491
12560W        W29408  13.691  11.925   5.614 -0.0235  0.2914  0.0653
12561W        W29409   7.121  16.717  14.208  0.0793  0.1236  0.1845
12562W        W29410   2.215  16.784  13.288  0.0042 -0.2607 -0.0590
12563W        W29411   4.924   0.301  13.214  0.4005  0.0086  0.1278
12564W        W29412   4.874  12.289   3.185 -0.0486  0.1510  0.3072
12565W        W29413   0.573  13.485  13.206  0.0044  0.0437 -0.1841
12566W        W29414  13.273   5.434   1.717  0.1687  0.1558  0.1522
12567W        W29415   1.810  13.393   4.017  0.0735  0.1658  0.0200
12568W        W29416   3.936  12.032  16.856 -0.1645  0.0858 -0.1513
12569W        W29417   5.186  12.052  15.534 -0.1393  0.0123  0.0127
12570W        W29418  12.457  12.415  13.606 -0.0049  0.1268  0.1909
12571W        W29419  12.360  10.719  15.622 -0.0224  0.0596  0.0081
12572W        W29420   1.422   7.358   1.345  0.2915  0.4189 -0.2937
12573W        W29421  15.122  11.480  14.145 -0.2418  0.0695 -0.0811
12574W        W29422  10.092   0.315  12.646  0.0457  0.3669  0.1216
12575W        W29423   9.872  17.087   3.042 -0.0744  0.0782 -0.1818
12576W        W29424   5.048   1.229  14.052 -0.1896 -0.2105 -0.0189
12577W        W29425   8.398  16.492   3.580 -0.0782  0.2779  0.0406
12578W        W29426   4.562   6.108  15.663  0.3102  0.0013  0.0437
12579W        W29427  15.930   9.191   0.884  0.3002  0.0202  0.0410
12580W        W29428   3.376   9.764   1.172 -0.4357 -0.1080  0.1168
12581W        W29429   4.158  16.331  14.794  0.0422  0.1218  0.1243
12582W        W29430   1.566  11.516   2.031 -0.0588 -0.1057 -0.0013
12583W        W29431  10.181   3.161  12.337 -0.0281 -0.3054 -0.0241
12584W        W29432  14.301  17.069   4.614  0.2193  0.4010  0.0096
12585W        W29433  15.771   7.420  14.135 -0.1770 -0.2965 -0.2325
12586W        W29434   6.519   5.611   3.368 -0.1200 -0.0986  0.1297
12587W        W29435   0.839   3.712   0.514 -0.1191 -0.4842  0.2981
12588W        W29436   8.171   5.980   0.729 -0.1690 -0.0325 -0.2059
12589W        W29437  16.372   1.311   1.208  0.0905 -0.2792  0.1206
12590W        W29438  14.408  13.418  16.478 -0.1356 -0.3876 -0.1083
12591W        W29439  12.373   8.770  14.856 -0.3372 -0.3394 -0.1084
12592W        W29440   1.080   3.147   5.128 -0.0603 -0.4048  0.3311
12593W        W29441  15.236   2.709   5.857 -0.0497 -0.2500  0.1669
12594W        W29442  11.818  13.275  14.520 -0.0204 -0.2326 -0.2269
12595W        W29443   4.485  14.964  16.792 -0.1281 -0.0764 -0.0932
12596W        W29444  16.914  15.862   2.206 -0.5163  0.1396 -0.1415
12597W        W29445  12.986   0.694  14.768 -0.2270 -0.1778 -0.3521
12598W        W29446   3.011   2.467  13.357  0.2198  0.1238  0.0935
12599W        W29447   4.709   8.148   4.568  0.1158  0.3700 -0.3408
12600W        W29448  15.830  10.976   4.000  0.0805  0.1438  0.0043
12601W        W29449   9.551  16.555  15.691 -0.3507 -0.2373  0.3515
12602W        W29450  11.528   4.084  12.357 -0.1031  0.1662  0.1317
12603W        W29451   5.616  15.778   3.921  0.1339  0.0446  0.2084
12604W        W29452   5.779   7.961  15.495 -0.0654 -0.0493 -0.0252
12605W        W29453   1.517  15.847   1.110  0.0990 -0.0362 -0.2591
12606W        W29454   2.907   3.584   1.723  0.3027  0.2013  0.1195
12607W        W29455   3.250   6.035   2.446 -0.0555 -0.3242  0.1544
12608W        W29456  15.323   3.050  13.428 -0.0632 -0.0281  0.1813
12609W        W29457  11.984   7.205   4.661 -0.2722  0.2615  0.3731
12610W        W29458   7.302  14.464   1.490  0.1363  0.4759  0.0318
12611W        W29459  17.144   3.874   3.496  0.0186 -0.2235 -0.1633
12612W        W29460   1.649   5.637  15.935 -0.0410  0.0292 -0.2372
12613W        W29461  14.409   7.715   5.578  0.0817 -0.0816  0.2355
12614W        W29462  12.527  10.104  15.729  0.1140  0.2630 -0.2413
12615W        W29463  11.585  12.204  14.784  0.0802 -0.1560  0.2259
12616W        W29464  12.213  12.308   4.851  0.2448 -0.4299 -0.0123
12617W        W29465  13.769  14.818  15.215 -0.1666  0.0220 -0.0464
12618W        W29466   6.844   6.158  13.970 -0.4092 -0.1265  0.1512
12619W        W29467   9.851   6.436  15.654  0.0055  0.5098 -0.1093
12620W        W29468   4.436  15.001  12.031 -0.0449 -0.0110  0.0384
12621W        W29469  10.266   0.625   0.457  0.4238  0.3838  0.1012
12622W        W29470   5.037   8.463   4.372 -0.2737 -0.0119  0.0584
12623W        W29471  13.459  11.438  14.354 -0.2358 -0.0377  0.2498
12624W        W29472   7.305  17.133  17.464 -0.1614  0.1745  0.0129
12625W        W29473  11.109   6.297  14.643 -0.2527 -0.2219 -0.0038
12626W        W29474  13.610   1.676   1.029  0.2125  0.2194 -0.1403
12627W        W29475   7.405  12.956  13.443 -0.0827  0.0785 -0.3497
12628W        W29476   8.576   9.770   1.684  0.1564  0.2632 -0.0793
12629W        W29477   0.557   3.257  13.654 -0.0048 -0.0545  0.1648
12630W        W29478   8.722   0.623   1.527  0.0611  0.1224 -0.0463
12631W        W29479  10.655   4.049  16.649 -0.0830 -0.0313  0.0113
12632W        W29480   3.563  12.691   2.139  0.2895 -0.1517  0.1151
12633W        W29481  16.926   7.473   6.593  0.1906  0.0635 -0.1203
12634W        W29482   7.911   8.462  17.725  0.1844 -0.1994  0.0855
12635W        W29483  15.850   2.489   3.551  0.2362 -0.2050  0.1196
12636W        W29484   0.367   0.322   1.658 -0.2808  0.3103 -0.1451
12637W        W29485   2.657  14.710  15.921 -0.1481 -0.1370  0.0558
12638W        W29486  10.878  15.277  17.150 -0.0394  0.0032  0.0754
12639W        W29487   2.895  11.711   2.075  0.0884 -0.1420 -0.2095
12640W        W29488   0.953   9.378  16.753 -0.2211 -0.0876  0.1260
12641W        W29489  12.675   0.853   3.414 -0.0934  0.1820  0.1026
12642W        W29490   7.950  12.135  13.686 -0.2727 -0.1901 -0.2575
12643W        W29491  11.150   3.237  12.089  0.1540  0.1216  0.0653
12644W        W29492   6.434  11.596   4.986  0.1155  0.0396  0.1368
12645W        W29493  13.487  14.678   3.755  0.0297 -0.3250  0.2286
12646W        W29494   3.050   3.376   3.823  0.0171 -0.0677  0.1569
12647W        W29495   7.482   1.769   1.363 -0.0130 -0.0216 -0.0992
12648W        W29496   6.412  16.069   3.729  0.0253  0.0893  0.1009
12649W        W29497  13.285  13.357  14.871 -0.0332 -0.0313 -0.2182
12650W        W29498   3.637  15.443  14.608  0.2510 -0.0262  0.4064
12651W        W29499   8.478   3.861  15.824 -0.2656  0.1895 -0.1985
12652W        W29500  12.608   3.687   2.438  0.0359 -0.0436  0.2478
12653W        W29501  11.725   9.563  17.481  0.0042  0.0970 -0.0436
12654W        W29502   7.342  12.766  13.916 -0.0864  0.2077  0.1070
12655W        W29503  16.575   4.475  16.173  0.1245  0.2066  0.1100
12656W        W29504  15.867   7.292   4.627  0.1997  0.0584  0.2746
12657W        W29505  17.128  16.441  15.803 -0.1679  0.0425 -0.0726
12658W        W29506  10.815  14.340  15.796  0.0275 -0.1020 -0.1311
12659W        W29507   1.330   2.346   0.716 -0.0079 -0.0438 -0.1938
12660W        W29508   8.044   1.441  16.657  0.2067  0.0109 -0.0962
12661W        W29509   5.543  13.140  12.880 -0.3693  0.0107 -0.0020
12662W        W29510   4.479   4.452   5.096  0.1043 -0.1492  0.1176
12663W        W29511   2.721   6.132   0.223 -0.0872 -0.3754  0.0820
12664W        W29512   9.697   8.890  14.346 -0.5002  0.0304 -0.0100
12665W        W29513  11.869   6.479  16.303 -0.0618 -0.0387  0.4476
12666W        W29514  13.992   6.704  13.070 -0.1244  0.3978  0.0750
12667W        W29515  16.356   2.471   0.055 -0.0163 -0.0119  0.1863
12668W        W29516  10.021  16.689  12.929 -0.0693 -0.2278 -0.1576
12669W        W29517   6.786  12.995  17.021 -0.0601  0.0889  0.1306
12670W        W29518  13.379  10.625   0.897 -0.3296  0.0910 -0.0491
12671W        W29519   4.029  16.357   0.752 -0.0883  0.3405  0.2113
12672W        W29520  12.799   6.135   2.234  0.1937 -0.1776  0.3291
12673W        W29521   2.904   3.518   0.134  0.0513  0.1757 -0.1750
12674W        W29522  14.906  17.146   0.074  0.1373 -0.0662  0.1117
12675W        W29523   6.449   3.729  12.432  0.1422  0.0720 -0.1135
12676W        W29524  15.841   3.738  17.450 -0.0392  0.1174  0.0416
12677W        W29525  12.110   3.511  16.632 -0.2299  0.1096  0.2444
12678W        W29526   8.071   3.346  11.829 -0.4961  0.1464 -0.2097
12679W        W29527   8.649  13.851   3.466 -0.0551  0.0711 -0.0502
12680W        W29528  14.493   6.118   0.840 -0.0564  0.3668  0.0784
12681W        W29529   5.436   2.257  17.392 -0.2398  0.1181 -0.1259
12682W        W29530   7.768  13.094  13.128  0.2609 -0.0213 -0.1175
12683W        W29531   2.709   8.503   6.219  0.0682  0.0593 -0.0079
12684W        W29532   5.075  13.975   1.680 -0.1371 -0.0620 -0.1094
12685W        W29533  16.335   6.047   5.070 -0.1792  0.0592  0.1030
12686W        W29534   8.779  12.479   0.122  0.5632  0.2313 -0.1115
12687W        W29535   1.793  15.456  17.265  0.2188 -0.2163  0.2573
12688W        W29536  15.540   9.470   2.770  0.2464  0.0141 -0.0849
12689W        W29537   2.816  14.982  16.333  0.1199  0.2791  0.0531
12690W        W29538   5.478  16.967   6.081  0.2486 -0.3084 -0.1741
12691W        W29539   8.510   4.549   0.937 -0.3049 -0.2287  0.1000
12692W        W29540  16.342  15.386  14.642  0.2702 -0.1701  0.3080
12693W        W29541   0.132   3.841  17.299 -0.0973 -0.0587  0.2663
12694W        W29542   5.035   9.661   1.583  0.0390  0.0648  0.1837
12695W        W29543   4.634   8.197  13.330  0.3023  0.1961  0.0105
12696W        W29544   3.819   2.078   3.770  0.0172 -0.1862  0.1205
12697W        W29545  15.341   4.014  14.128  0.2794 -0.1076 -0.0182
12698W        W29546   1.474   0.523  14.650  0.0523 -0.0981 -0.0222
12699W        W29547  12.949   4.549   0.977  0.1049  0.0135  0.0226
12700W        W29548   3.013  14.378  15.878  0.0563  0.0494 -0.2573
12701W        W29549   5.797  16.362   1.878  0.1507  0.2524 -0.0238
12702W        W29550   1.950  12.932  15.340 -0.2310  0.0439  0.1074
12703W        W29551   2.264   7.878   1.500 -0.1872 -0.2238 -0.0437
12704W        W29552   2.524   3.963   0.130  0.2812 -0.1662 -0.0427
12705W        W29553  10.296  13.733   0.838 -0.0109 -0.4925  0.3528
12706W        W29554  15.470  14.391   5.667 -0.0443 -0.2965  0.0090
12707W        W29555   5.219  15.785   3.556  0.2394 -0.0967 -0.3525
12708W        W29556   6.730  13.697  13.211 -0.2189  0.0171 -0.0031
12709W        W29557  11.820   7.856  13.781  0.0379 -0.3267  0.1085
12710W        W29558   2.115   0.649  16.867 -0.0489  0.3137  0.0591
12711W        W29559   6.798  11.932  12.974 -0.0472  0.0901  0.0917
12712W        W29560  10.792  14.072   0.630 -0.1245 -0.2392  0.0669
12713W        W29561   3.064  12.795  17.106 -0.0123 -0.3063 -0.0708
12714W        W29562   6.796  10.075   2.915  0.0289 -0.2412 -0.0165
12715W        W29563   4.371  10.561   2.026  0.0864 -0.1807  0.1380
12716W        W29564  11.279   3.797   1.450 -0.3315  0.1787 -0.1864
12717W        W29565  14.420   5.520  12.385  0.0335  0.0360 -0.0312
12718W        W29566   8.341   4.208   1.496 -0.2209  0.2671  0.0671
12719W        W29567   6.751   1.197   1.779  0.0333 -0.1586 -0.3082
12720W        W29568   4.937   1.313  12.798 -0.3198 -0.0428 -0.0610
12721W        W29569   7.571  16.599   4.488 -0.0322 -0.1114 -0.1244
12722W        W29570   5.575  16.726  17.441  0.1576  0.1315 -0.0047
12723W        W29571  10.496   9.449  17.070  0.1782 -0.0723 -0.2692
12724W        W29572   7.471  12.655   1.540  0.1061  0.2565 -0.1086
12725W        W29573   2.597  11.199   4.956  0.1934  0.3580  0.1242
12726W        W29574   6.046  12.448   3.688 -0.1164 -0.2075  0.1328
12727W        W29575   8.194   3.391  15.155 -0.1453 -0.1365  0.0139
12728W        W29576   5.171  15.828   4.111  0.2954  0.1038 -0.2787
12729W        W29577   2.944   9.963   1.350 -0.4055  0.2681  0.0153
12730W        W29578  12.034   4.946   3.530  0.0238 -0.3109  0.0241
12731W        W29579   4.034  17.117  17.649  0.0408 -0.1352  0.3590
12732W        W29580  11.752   0.281  13.329  0.0996 -0.0079  0.0524
12733W        W29581   2.574   3.648   0.490 -0.0682 -0.1521  0.2370
12734W        W29582   1.597  14.302  15.047  0.1359 -0.0475 -0.1533
12735W        W29583  12.081  15.360  14.329 -0.2634 -0.1544  0.2099
12736W        W29584   3.642  11.600   2.828  0.0538 -0.1155 -0.2532
12737W        W29585   4.604   1.669  17.616 -0.0053  0.1381  0.2205
12738W        W29586  12.645  11.538  15.393  0.2843  0.2944  0.3696
12739W        W29587  11.898  14.472  17.033  0.1307  0.2486 -0.0439
12740W        W29588  15.713   3.720  13.942  0.2629 -0.0419  0.0900
12741W        W29589   6.451  10.762   3.474  0.0499  0.3329 -0.0442
12742W        W29590  13.551   8.094  14.071  0.0041  0.0727  0.3346
12743W        W29591  15.529  12.934   5.333 -0.2576  0.0731  0.0458
12744W        W29592  14.214   8.058   5.077  0.2199  0.0112 -0.0005
12745W        W29593  16.532  10.435   0.085  0.3288  0.0226 -0.0307
12746W        W29594   6.461   7.091  11.882 -0.0451 -0.0651  0.3689
12747W        W29595  11.188  16.232  14.896 -0.2450 -0.1709 -0.1207
12748W        W29596   5.169   5.019  11.519 -0.0725 -0.0617  0.0043
12749W        W29597  14.843  12.329  17.136  0.1272  0.0913  0.0999
12750W        W29598  15.405   9.381   3.374 -0.1590  0.2130  0.0207
12751W        W29599   7.722   1.496  13.589  0.3481 -0.2502 -0.1548
12752W        W29600   2.757  16.377   5.205  0.0014 -0.0371  0.2922
12753W        W29601   2.380  11.538  12.928  0.1301  0.0725 -0.0556
12754W        W29602   4.350  15.265  14.073  0.1986  0.1960  0.1285
12755W        W29603  16.467   0.281   4.026  0.0370  0.4556 -0.1118
12756W        W29604   7.247   2.668   3.270  0.0171  0.2447 -0.3203
12757W        W29605  11.537  14.948  13.121 -0.5051  0.1801 -0.2584
12758W        W29606   7.449  16.405   2.129  0.0247  0.3112 -0.2951
12759W        W29607   1.441   5.115  12.378 -0.0569  0.2666  0.2122
12760W        W29608   1.477  16.426  17.585  0.1423 -0.0115  0.3112
12761W        W29609   0.677   9.518  11.824 -0.3247 -0.2830  0.1428
12762W        W29610  11.661  12.313  14.337  0.0033 -0.0870  0.1295
12763W        W29611   3.158   0.761   5.829  0.0513  0.2340 -0.0202
12764W        W29612   1.299  16.864  13.674  0.1803  0.2457 -0.1023
12765W        W29613  15.599  17.002   0.409  0.2732 -0.0472  0.0056
12766W        W29614  10.762   2.634   2.462  0.1388 -0.1351  0.2455
12767W        W29615  11.976  15.081   2.013 -0.1975 -0.1222  0.1083
12768W        W29616   1.232  13.661  16.349  0.0117  0.3912  0.1796
12769W        W29617  16.470  16.237   1.576 -0.3427  0.1322 -0.1310
12770W        W29618  15.509  16.685  12.913 -0.1187 -0.1537 -0.2995
12771W        W29619  12.608  13.240   6.402  0.0680  0.0710  0.1200
12772W        W29620  13.742  15.154  14.833  0.1127 -0.1278  0.1397
12773W        W29621   7.676   0.445   3.672 -0.1671 -0.2162  0.0005
12774W        W29622   2.882   7.960  15.069 -0.2741  0.2169 -0.1773
12775W        W29623   4.058   1.031  15.170  0.3132 -0.0702  0.0567
12776W        W29624   3.224   9.622   4.429  0.0721 -0.0011  0.1469
12777W        W29625  15.273   8.221   2.453 -0.3620  0.1498 -0.0342
12778W        W29626   4.234   2.349  17.222 -0.0577 -0.1919  0.3002
12779W        W29627   3.246  10.977  13.356  0.0412  0.5936  0.1414
12780W        W29628   6.166   1.987   0.319 -0.1819  0.0257  0.0652
12781W        W29629  16.858   0.891   1.838 -0.0170  0.2595 -0.0960
12782W        W29630  12.457  16.467   0.057 -0.1437  0.0515  0.0271
12783W        W29631   8.082  16.334  17.159  0.0243 -0.0502 -0.0635
12784W        W29632   2.679  14.400   6.004  0.2673 -0.2742 -0.1670
12785W        W29633  14.127  15.428   4.215  0.2002 -0.0273  0.0159
12786W        W29634   6.682  16.906  16.760  0.2088 -0.1160  0.2618
12787W        W29635   2.827   4.871   0.596 -0.2343  0.1892 -0.1289
12788W        W29636   8.883   6.398   2.880  0.1671 -0.1262 -0.2385
12789W        W29637   1.221  15.636  11.718 -0.0238 -0.2120  0.1693
12790W        W29638   7.812  12.256  17.749  0.0002  0.1538  0.1393
12791W        W29639  16.746  14.199  15.401 -0.1106  0.1063  0.1801
12792W        W29640   8.418   7.337   4.504  0.1142 -0.1594 -0.1097
12793W        W29641   8.833   0.163   1.205  0.2015  0.0430 -0.1974
12794W        W29642  10.871   6.629  12.313 -0.1887 -0.0169  0.0461
12795W        W29643   6.972   7.228   0.151 -0.0261 -0.0792  0.3586
12796W        W29644   5.438  13.415  15.625  0.1555  0.2082  0.0568
12797W        W29645   9.616  10.915   1.285  0.2015 -0.0591 -0.1256
12798W        W29646   2.596   7.751   4.795 -0.0330  0.0753 -0.1071
12799W        W29647   1.622   0.706  12.480 -0.0059  0.0674 -0.0473
12800W        W29648   6.403  14.990  17.591  0.2936 -0.0415 -0.1623
12801W        W29649   4.528  15.854  15.812  0.1458 -0.1569  0.1681
12802W        W29650  14.076   0.132   3.605  0.3508  0.0120  0.2323
12803W        W29651  14.933   6.361   3.708 -0.2003  0.2418  0.1006
12804W        W29652  17.131  13.907   5.762  0.1122 -0.2531  0.2502
12805W        W29653   4.600   7.957   1.110 -0.2006 -0.1227  0.0797
12806W        W29654   8.219  16.329  15.327  0.0442  0.1569  0.1531
12807W        W29655   3.405  14.400   0.599  0.1564 -0.1654  0.1986
12808W        W29656   3.865   7.802  16.647 -0.0316  0.2184  0.1516
12809W        W29657  14.545   9.931  12.228  0.0611 -0.3335  0.1199
12810W        W29658   4.135  11.268   3.576  0.3769  0.0089  0.1409
12811W        W29659  12.754   7.107   4.984  0.1245  0.4813  0.0119
12812W        W29660   1.903   9.601  12.226  0.0303  0.3077 -0.0437
12813W        W29661  14.569   1.225   3.227 -0.0122  0.2527  0.0180
12814W        W29662   6.199   4.148   3.492 -0.0792 -0.3266  0.1202
12815W        W29663   8.690   1.905   4.324 -0.1466  0.0969  0.1878
12816W        W29664   9.397   8.057   0.314  0.3445  0.1801  0.0414
12817W        W29665  12.594  14.676   0.511  0.0132  0.2336 -0.1827
12818W        W29666   0.799   4.167   3.538 -0.0587 -0.0409 -0.2782
12819W        W29667   9.424  14.143  15.513  0.1485 -0.0413 -0.1799
12820W        W29668   3.425  10.137   4.392  0.0004 -0.0465  0.2960
12821W        W29669   4.686  15.213  12.784 -0.1940  0.3081 -0.1926
12822W        W29670  11.741   8.049  11.881 -0.1985  0.2075 -0.1579
12823W        W29671   7.358  12.125  17.520 -0.1100 -0.0805  0.0013
12824W        W29672  15.986   7.694   4.328  0.3397  0.3941 -0.0963
12825W        W29673   8.278  16.114  16.211  0.2603  0.0295 -0.0034
12826W        W29674   7.523  13.961   0.009  0.2917  0.0947 -0.1190
12827W        W29675   8.114  13.852   3.462  0.3054  0.0178 -0.2892
12828W        W29676  13.352   7.211   1.122 -0.0305  0.1279 -0.0865
12829W        W29677  14.747  14.513   2.720 -0.1161 -0.1910  0.2623
12830W        W29678   5.017   7.332  17.107 -0.1321 -0.1996  0.0746
12831W        W29679   3.658  12.142  16.160 -0.2246 -0.0939 -0.2139
12832W        W29680   9.693  13.694  12.661  0.0167 -0.0326  0.2742
12833W        W29681   2.347  10.012   4.386  0.1595  0.3903  0.1445
12834W        W29682   1.548   0.741  15.819  0.0680  0.1023  0.0937
12835W        W29683  13.932   9.919  15.881  0.1392 -0.1622  0.0278
12836W        W29684   6.508  15.244  13.736  0.2061 -0.0223 -0.0657
12837W        W29685   8.951   3.345  14.575 -0.0025  0.1417  0.0068
12838W        W29686   5.539   8.446   4.693  0.1508  0.0772 -0.0481
12839W        W29687  12.971   7.871  12.935 -0.1984 -0.0293  0.1332
12840W        W29688  10.162  15.598  14.240 -0.1867 -0.0332  0.0575
12841W        W29689   6.629  16.400   2.817  0.0491 -0.1185  0.0853
12842W        W29690  15.456   6.413   2.831  0.2256 -0.1729  0.1035
12843W        W29691   2.765   7.186   4.984  0.1649 -0.1502  0.1953
12844W        W29692  13.606   7.092  14.063  0.2300 -0.0101  0.0300
12845W        W29693  11.989   2.618   3.981  0.2316  0.1494  0.2124
12846W        W29694   9.723   0.402  16.718  0.0734  0.0117 -0.1255
12847W        W29695  13.439   7.064  15.674 -0.1855 -0.1173 -0.1549
12848W        W29696   1.692   7.681  12.421  0.3549  0.0606 -0.2061
12849W        W29697  12.781  12.981   1.907 -0.3335 -0.1221  0.2268
12850W        W29698  16.759  10.983  15.184  0.2124 -0.3756  0.0657
12851W        W29699   2.296  12.055   2.544  0.3283 -0.2250 -0.1673
12852W        W29700   7.702  12.670   1.095  0.1223  0.0785  0.2086
12853W        W29701   1.656  11.358   4.524  0.2101  0.1407  0.1888
12854W        W29702  11.494  16.014   4.671 -0.2628  0.2476 -0.0077
12855W        W29703  10.954  12.686   4.105 -0.2994  0.2782  0.1019
12856W        W29704   3.492  14.787   4.037 -0.1735  0.4009 -0.0621
12857W        W29705  13.608   9.008  14.203 -0.1158 -0.0235  0.1166
12858W        W29706   9.746   6.655  16.633  0.1831 -0.1223 -0.1182
12859W        W29707   4.675  14.309  13.039 -0.2361 -0.3525 -0.0635
12860W        W29708   2.438   1.933  11.756  0.1331 -0.1723 -0.0468
12861W        W29709   6.261   7.888   5.021 -0.0680 -0.0795  0.0135
12862W        W29710  10.608   5.303  12.439 -0.1757 -0.2894 -0.2144
12863W        W29711  16.986  14.490   3.797  0.0028  0.1517  0.1547
12864W        W29712   7.789   5.463  14.385 -0.1507  0.3571 -0.3691
12865W        W29713  16.828  15.638  12.737 -0.4929  0.1205  0.1592
12866W        W29714   4.696   6.148  15.171  0.0616 -0.1020  0.1776
12867W        W29715   3.303   2.992  13.150 -0.1028  0.1992 -0.1114
12868W        W29716   8.061   8.677  13.242 -0.0833 -0.2929 -0.1419
12869W        W29717   3.245  13.121   0.382  0.4148 -0.0191 -0.0977
12870W        W29718   8.830   0.358  12.664 -0.2350  0.2962 -0.2243
12871W        W29719   0.316   7.866  12.826  0.0926 -0.2094  0.2785
12872W        W29720  10.924   9.588   1.000  0.0434 -0.1703  0.2053
12873W        W29721  12.848   4.813  16.033  0.1163  0.1001 -0.2583
12874W        W29722   2.628   6.153   3.908 -0.3261  0.1370  0.1156
12875W        W29723   3.853  10.714  13.569 -0.0914  0.1188 -0.2460
12876W        W29724   8.029   8.219  15.864  0.2954 -0.0726  0.0614
12877W        W29725  10.731  12.915  17.387  0.2189  0.0473  0.1706
12878W        W29726   4.782   0.935  16.378 -0.1718 -0.0207  0.1604
12879W        W29727   7.583   6.547   3.831 -0.1748 -0.1837 -0.3648
12880W        W29728   8.811   7.642   4.638  0.1799  0.1469 -0.1001
12881W        W29729  17.073   5.896  12.542 -0.1896 -0.2130  0.1918
12882W        W29730  13.212   1.741   0.661 -0.0676 -0.1288 -0.0105
12883W        W29731   3.616  15.555   5.991  0.1586 -0.1014 -0.2203
12884W        W29732   9.523   6.555  17.070  0.2805 -0.1581 -0.0855
12885W        W29733   9.459   6.531  15.417  0.0746  0.1501 -0.1315
12886W        W29734   5.161   7.375   5.217 -0.0793 -0.1018  0.1466
12887W        W29735   2.982  15.324   2.003  0.3636 -0.3962  0.2690
12888W        W29736  12.678   2.156   0.999 -0.2134  0.2178  0.4428
12889W        W29737   5.474   4.712  17.504  0.1073 -0.1390  0.1823
12890W        W29738   0.785   9.821   1.236  0.1944 -0.0071 -0.0325
12891W        W29739  10.437  10.253   2.242  0.0375 -0.1131  0.1424
12892W        W29740  11.889   8.829  13.935  0.1276  0.2549 -0.1572
12893W        W29741  15.178  12.433  15.870 -0.0774 -0.1674  0.0980
12894W        W29742  13.252   2.249   1.204 -0.0778 -0.1404  0.0265
12895W        W29743  13.581  15.926   1.674  0.1045 -0.1088 -0.1395
12896W        W29744   3.853  10.016   5.193  0.0294 -0.2108  0.1413
12897W        W29745   9.252   5.277   0.708  0.2306 -0.0104 -0.3053
12898W        W29746  13.663   4.962  12.549  0.2736 -0.2531  0.1934
12899W        W29747   6.964  12.556   1.460 -0.1311 -0.1800  0.1378
12900W        W29748  15.350   7.515  17.750 -0.1284 -0.0049  0.0669
12901W        W29749  10.016   3.599  12.531  0.0425  0.2031  0.0079
12902W        W29750  11.034  10.595  17.292 -0.0587 -0.0142 -0.1235
12903W        W29751  11.651   5.924   0.609 -0.2351 -0.0299 -0.0326
12904W        W29752  12.489   3.250   3.707  0.1817  0.1837 -0.1235
12905W        W29753  14.735  14.552   0.849 -0.0951  0.0100  0.0067
12906W        W29754   7.911  14.092   0.602  0.4070  0.1920 -0.2858
12907W        W29755  13.398   4.671  16.841  0.1144 -0.3071  0.1092
12908W        W29756   7.657   9.650  13.327  0.4055  0.0651  0.2822
12909W        W29757  10.740   6.340  15.044  0.2788  0.1706 -0.1596
12910W        W29758   7.573   3.449  12.843  0.0305 -0.0021 -0.1247
12911W        W29759   5.510  16.979  14.491 -0.2366 -0.0243  0.1920
12912W        W29760  14.214  10.141   5.002 -0.1972 -0.1499  0.0845
12913W        W29761   7.854   8.004   4.815  0.2255  0.0023  0.0639
12914W        W29762  16.084   0.495  11.904  0.2254  0.0288 -0.0681
12915W        W29763   9.401  13.078   2.322 -0.3508 -0.0655 -0.1412
12916W        W29764  12.065  11.368  17.357  0.0820 -0.1713 -0.1780
12917W        W29765  10.269  16.663   3.245 -0.3692  0.1827 -0.0208
12918W        W29766   3.672  15.994  13.382 -0.1044  0.0152 -0.2131
12919W        W29767  11.373  11.973   0.923  0.2465  0.0545  0.0732
12920W        W29768  10.776  11.964  13.001  0.1881 -0.1766 -0.3181
12921W        W29769   1.859   4.644   0.312 -0.3004  0.1305 -0.1031
12922W        W29770   4.914   7.197  14.760  0.0449 -0.0905 -0.0358
12923W        W29771  16.634   9.673  17.552  0.4339  0.0202 -0.1451
12924W        W29772  16.130   0.242  16.571 -0.0578  0.1041 -0.0157
12925W        W29773  10.351   4.033  12.873 -0.4741  0.3337  0.0146
12926W        W29774   0.360  11.245  16.261 -0.0753  0.0015 -0.2668
12927W        W29775   0.529   0.018  13.917 -0.3752  0.3729 -0.1697
12928W        W29776   0.867   0.511   4.406 -0.0406  0.1326  0.0018
12929W        W29777  11.613  10.160   5.286  0.0595 -0.2349 -0.0832
12930W        W29778  12.639   7.894   3.932  0.1899 -0.0350 -0.2462
12931W        W29779   9.159  15.453   3.476 -0.0570  0.0199 -0.1165
12932W        W29780   2.084  10.853  16.032 -0.1413 -0.0533 -0.0341
12933W        W29781   1.172   2.569  17.458  0.1879  0.1012 -0.3145
12934W        W29782   4.026   9.237  13.929  0.0251 -0.0249  0.1448
12935W        W29783  10.165  15.285   5.064  0.2881  0.1016 -0.0298
12936W        W29784  14.347   7.160  16.036  0.2135  0.1365  0.2729
12937W        W29785   9.829  16.669   3.435 -0.1922  0.2119  0.0228
12938W        W29786  10.835   9.466  13.877 -0.1776  0.3313  0.0461
12939W        W29787  11.324  10.977  16.931 -0.0933  0.0771  0.0823
12940W        W29788  10.316   6.493  17.491 -0.3959  0.2055  0.0821
12941W        W29789   1.832  10.559   5.233  0.1180 -0.0541 -0.0537
12942W        W29790  11.838  12.202   4.575  0.0171 -0.4009  0.3598
12943W        W29791   7.062   6.803  12.605  0.0170  0.2761  0.2456
12944W        W29792   1.942   0.383   0.753 -0.0320  0.1411  0.1576
12945W        W29793   3.371   2.705   3.187  0.2666 -0.0040  0.1494
12946W        W29794   1.649   3.232   0.403  0.0872  0.0304 -0.0398
12947W        W29795   3.042  14.614  14.592  0.0363  0.0381  0.1838
12948W        W29796   5.667   7.786   3.818  0.0897  0.0612 -0.0281
12949W        W29797  10.707   3.074   4.547  0.0009 -0.3074  0.0109
12950W        W29798  15.141   7.524  12.669 -0.1872 -0.1092  0.0897
12951W        W29799   3.279   9.588  15.996 -0.1029 -0.0464 -0.2732
12952W        W29800   2.815  14.841  16.818  0.0222 -0.0369 -0.1730
12953W        W29801  14.041   6.381   0.146  0.4721  0.0225  0.0901
12954W        W29802   2.832  11.205   1.867 -0.0506  0.0431 -0.1700
12955W        W29803   3.731   8.583  13.524  0.0997  0.2617  0.2571
12956W        W29804   6.897   7.857   3.513 -0.3045  0.0649 -0.0542
12957W        W29805  11.702   8.711  12.401  0.2183  0.0597 -0.0729
12958W        W29806   3.251   1.226   4.886  0.4020  0.0451  0.2414
12959W        W29807  16.997   5.472   4.458  0.1604  0.3495 -0.0049
12960W        W29808   3.885   1.258  16.532 -0.2732  0.1426  0.0092
12961W        W29809  16.097  12.861  14.690 -0.1519 -0.1516 -0.3474
12962W        W29810  13.038   6.845   3.594  0.2785 -0.2203 -0.0244
12963W        W29811   9.608   1.027   3.679 -0.2069 -0.2223  0.0523
12964W        W29812  11.577   3.993  13.929  0.0107 -0.0987  0.1226
12965W        W29813  15.960   5.169  17.299  0.1059 -0.1000 -0.0213
12966W        W29814   5.619  10.063  13.579  0.0500 -0.0282 -0.2742
12967W        W29815   7.418  13.095  15.358 -0.0670 -0.2537 -0.1493
12968W        W29816   6.835   5.814   4.173 -0.1842  0.1198 -0.3440
12969W        W29817   1.349   4.386   1.915  0.0532 -0.0872  0.0557
12970W        W29818  15.125   8.848  15.718  0.1807  0.0049 -0.2937
12971W        W29819   4.313   0.884   2.616  0.3469  0.1698  0.0326
12972W        W29820  15.366   6.253  16.670  0.1856 -0.0716  0.0084
12973W        W29821   9.259   9.477  12.140 -0.1279  0.1585  0.1439
12974W        W29822   9.958   5.797   4.669 -0.0260 -0.4018  0.0933
12975W        W29823   3.916  15.923  15.337  0.0639  0.1182  0.1941
12976W        W29824  12.348   4.605  15.953 -0.1579  0.3060 -0.3962
12977W        W29825  13.328   7.647  16.603  0.2041  0.1616 -0.0827
12978W        W29826  13.514  11.465   2.110  0.1152  0.0017 -0.0988
12979W        W29827   7.469  13.308  16.083  0.1859  0.1311 -0.1566
12980W        W29828   2.495   7.459   5.486  0.0874 -0.2830 -0.0018
12981W        W29829   6.362   5.149   3.418 -0.2037  0.3362  0.0712
12982W        W29830  12.553   5.208   3.210 -0.3513  0.0179 -0.0394
12983W        W29831   1.880  13.549   3.485  0.3630 -0.2782 -0.0767
12984W        W29832   0.723  11.031  14.029 -0.1583 -0.0462  0.2437
12985W        W29833   5.565  15.308   1.433  0.0937 -0.1269 -0.0676
12986W        W29834   7.496   0.098  16.542 -0.1361 -0.3656 -0.0879
12987W        W29835  15.040  10.015  12.592  0.0448 -0.1257  0.2133
12988W        W29836   8.029  12.465  14.872  0.0812  0.2337  0.2622
12989W        W29837  10.643   0.361   6.150 -0.1458 -0.0214 -0.2475
12990W        W29838  10.360  11.295  13.453 -0.1401  0.1855  0.0415
12991W        W29839  14.254   8.789  17.497  0.0521 -0.1769  0.0789
12992W        W29840   3.489   7.791  13.981  0.0576  0.1287  0.0682
12993W        W29841   1.510  15.065   5.698 -0.1498 -0.0578 -0.3876
12994W        W29842  15.702  14.754   0.509 -0.2315 -0.2391 -0.0785
12995W        W29843   4.008  12.560  13.375 -0.0341 -0.0690 -0.0331
12996W        W29844  12.563   0.989  12.684  0.0109  0.0864  0.0443
12997W        W29845  12.921  12.450  11.612  0.1120 -0.0334  0.2409
12998W        W29846   5.519   0.371  17.346 -0.2373 -0.0859  0.0195
12999W        W29847   8.018  13.719  14.513 -0.1923 -0.2553  0.1185
13000W        W29848   5.996  10.502   3.196 -0.0018  0.1233  0.1554
13001W        W29849  11.626  15.514  16.077  0.1147 -0.3561 -0.0724
13002W        W29850   7.128   0.423   1.767 -0.0188 -0.0334  0.0082
13003W        W29851  15.928  16.338   4.094 -0.2287 -0.3441 -0.0582
13004W        W29852  16.074  10.095  17.299 -0.0205 -0.1167  0.1907
13005W        W29853  16.776  15.525  17.156  0.0407  0.2485 -0.0857
13006W        W29854  11.845   4.050  15.323 -0.0865 -0.1976  0.1102
13007W        W29855  15.889   3.948  14.377  0.2754  0.3516  0.1084
13008W        W29856  13.173  12.279   4.897 -0.4171  0.3309 -0.1264
13009W        W29857  15.120  11.857  16.536 -0.2202  0.0307 -0.0179
13010W        W29858   4.397   1.980   1.608  0.0692  0.0335  0.0539
13011W        W29859   5.463  13.333  14.458 -0.0292  0.3703 -0.0829
13012W        W29860  10.092  11.684   0.991  0.1869 -0.0922  0.0900
13013W        W29861  15.759   7.846  15.017  0.1802  0.1040  0.1216
13014W        W29862  16.864  13.993  13.157 -0.1391 -0.0784  0.0063
13015W        W29863   6.566  12.445  12.604  0.1388  0.0331 -0.3199
13016W        W29864   3.837   3.212   0.440 -0.0889  0.2307  0.1103
13017W        W29865  13.247   3.341  14.599 -0.0806 -0.2474  0.0284
13018W        W29866  17.092  12.619   3.868  0.3215 -0.3845  0.0017
13019W        W29867  12.240   6.571   0.658 -0.1519  0.1657 -0.0098
13020W        W29868  16.258  11.315   1.442 -0.1980 -0.0224  0.2549
13021W        W29869  14.869   3.206  14.512 -0.1313 -0.3031 -0.1302
13022W        W29870   9.011   3.967   5.248 -0.2166 -0.2773  0.0940
13023W        W29871   2.159   8.574  12.912 -0.0267 -0.2088  0.1500
13024W        W29872  14.675   1.575   2.494  0.1425  0.0429  0.3659
13025W        W29873  14.422   2.621  16.591  0.2857 -0.0836 -0.6224
13026W        W29874   5.755  12.061   1.838  0.0264  0.0132  0.0580
13027W        W29875   2.228   0.270   3.266 -0.0690 -0.2880 -0.1116
13028W        W29876  12.197   8.125   1.281  0.1791 -0.1092 -0.2494
13029W        W29877  16.277  11.115  13.896 -0.2525  0.2962  0.0209
13030W        W29878  13.950   4.080   2.434 -0.3175  0.0112  0.1226
13031W        W29879  13.052  10.610  17.394 -0.1647 -0.0101  0.3840
13032W        W29880   7.573  12.598  16.386 -0.0381 -0.4108  0.0877
13033W        W29881   9.636  14.972  13.109 -0.0352 -0.3818  0.2999
13034W        W29882   4.456   5.679  16.116 -0.0897 -0.2735 -0.0179
13035W        W29883   1.788   1.215  14.040  0.2106 -0.1317  0.1486
13036W        W29884  12.224   9.490   2.977  0.0383  0.5678 -0.1469
13037W        W29885   3.081  12.982  13.233  0.0742  0.1678  0.1434
13038W        W29886   9.392  15.328   2.016 -0.3036  0.2585  0.0453
13039W        W29887   8.228   4.943  14.433 -0.1123 -0.1607 -0.1886
13040W        W29888   3.365  13.529   3.605 -0.0015 -0.1554 -0.2222
13041W        W29889  11.147  15.081   0.760 -0.1048 -0.0876  0.1310
13042W        W29890  11.866   6.948   1.499 -0.3961 -0.1037 -0.0198
13043W        W29891  16.157  16.911   3.214 -0.1422  0.1251  0.2192
13044W        W29892   2.910  14.414   4.602 -0.1445  0.0881 -0.0618
13045W        W29893  16.690   3.056  16.358  0.3108 -0.0176 -0.1083
13046W        W29894  15.097  10.793   2.234  0.0772 -0.0064  0.1375
13047W        W29895   5.152   2.709   2.905  0.4346 -0.0207  0.0515
13048W        W29896  11.910  13.127  16.562 -0.0498 -0.0016  0.0043
13049W        W29897  13.840   5.273   0.071  0.1959 -0.0134 -0.0737
13050W        W29898   4.098   4.536  12.193  0.0637  0.1187 -0.2892
13051W        W29899  15.727  10.421  17.100 -0.1091 -0.0082  0.0202
13052W        W29900  16.602  13.844   3.100  0.0394 -0.4306  0.1374
13053W        W29901  14.821   6.645   4.218 -0.2033 -0.2688  0.3328
13054W        W29902   5.139  16.742   0.582  0.1488 -0.0472 -0.0732
13055W        W29903   1.826   3.632   0.709  0.0093 -0.0417 -0.0312
13056W        W29904  13.086  12.499   0.560 -0.3613  0.2230 -0.0152
13057W        W29905  12.867  14.216  13.754 -0.0121 -0.0176 -0.1388
13058W        W29906   1.690   0.929  17.133 -0.1559  0.5556  0.0635
13059W        W29907   9.144  13.487   0.236  0.3412  0.0354 -0.4699
13060W        W29908  10.274   9.376   5.176  0.0830  0.2276  0.1890
13061W        W29909   6.062   8.281  17.131 -0.0171  0.0352 -0.0140
13062W        W29910   8.164  10.270   0.730  0.0334  0.2461 -0.0677
13063W        W29911   3.677   3.333  13.329  0.2063  0.0586  0.0737
13064W        W29912  15.671   7.590   1.249  0.0199 -0.1090 -0.0311
13065W        W29913  16.428  13.373   2.243 -0.1987 -0.0607  0.3767
13066W        W29914   0.429   0.795  14.370  0.0728  0.0815  0.0647
13067W        W29915   7.143   3.680  15.438  0.0863  0.0695  0.0774
13068W        W29916   0.326  14.237  16.696 -0.0163 -0.0258  0.2111
13069W        W29917   1.885  11.089   0.134 -0.2295 -0.0001  0.3542
13070W        W29918  12.455   9.736   0.266  0.3191 -0.0732 -0.0820
13071W        W29919   8.888   6.945   2.842  0.1235  0.0549  0.0566
13072W        W29920  16.237  13.248  16.540 -0.1468 -0.0314  0.1480
13073W        W29921  13.378   4.192   1.613 -0.0920  0.3496 -0.2329
13074W        W29922  10.224  16.077  14.046  0.2715  0.1212  0.2212
13075W        W29923   7.157  16.094   5.683  0.1433  0.4336 -0.0802
13076W        W29924   9.753  15.263   0.919  0.1957  0.0568 -0.0331
13077W        W29925  15.822   5.109   5.046  0.2382 -0.0636 -0.0080
13078W        W29926  14.496   6.301  16.738 -0.2304  0.1796 -0.1565
13079W        W29927   3.773   3.150  14.341  0.1599 -0.2517 -0.0747
13080W        W29928   6.624   9.345  14.753  0.1209  0.1571 -0.2159
13081W        W29929   7.121   5.169   3.902  0.1736  0.1007  0.0528
13082W        W29930   8.609   8.879  13.927 -0.0588 -0.1192  0.2428
13083W        W29931  16.055   5.907   2.926  0.3986  0.0528  0.0761
13084W        W29932  16.771  13.042   0.101  0.0560 -0.0586 -0.3677
13085W        W29933   5.918  12.717  16.028  0.0857  0.0807  0.1020
13086W        W29934   5.626  15.969   2.882 -0.0477 -0.0574 -0.2313
13087W        W29935   2.266   5.022   4.635 -0.2650 -0.2537  0.1152
13088W        W29936   6.309   5.933   1.998 -0.0061 -0.2623  0.0200
13089W        W29937   1.985  13.582   0.621 -0.4559 -0.1668 -0.3034
13090W        W29938   9.675   3.602  16.695 -0.0507  0.1124  0.3331
13091W        W29939  15.530  13.788  14.510 -0.1769  0.1739  0.2886
13092W        W29940   8.623   1.474  15.477  0.0502  0.3130  0.1899
13093W        W29941   5.776  12.593  17.473 -0.0554 -0.1093  0.0470
13094W        W29942   3.791   7.235   5.026  0.2033 -0.1897 -0.1438
13095W        W29943  12.374  11.827  16.177  0.1252 -0.0646 -0.1604
13096W        W29944   6.580  14.173  16.675  0.1399  0.0182  0.2007
13097W        W29945   6.049  16.403   3.613  0.2687 -0.4735 -0.0693
13098W        W29946   1.617  16.952   1.574  0.1887 -0.1996  0.0450
13099W        W29947   4.626  12.521   4.303  0.0442 -0.0131  0.3284
13100W        W29948   5.355  12.823  13.688 -0.0736  0.0793 -0.0783
13101W        W29949  13.344  15.299  16.574  0.1780  0.0048 -0.1332
13102W        W29950  15.211  16.866  16.507  0.3485 -0.0904 -0.0551
13103W        W29951   6.187   4.752  15.192 -0.0735 -0.3447 -0.2270
13104W        W29952   9.997   4.219  16.684 -0.1109 -0.1870 -0.2798
13105W        W29953   5.442   2.183   1.748 -0.1821  0.0424  0.3229
13106W        W29954  12.986   4.381  13.445 -0.4095  0.1681 -0.1074
13107W        W29955   4.172   8.590  17.702  0.0586  0.4525  0.1885
13108W        W29956   6.942  12.051   4.363 -0.5030 -0.0556  0.1503
13109W        W29957  15.273   0.874  13.235  0.2223  0.1329 -0.3507
13110W        W29958  14.860  12.521  16.624 -0.3533 -0.0887  0.2491
13111W        W29959   9.384   6.270  16.643 -0.1477 -0.2616  0.0077
13112W        W29960  16.778   7.026   4.214 -0.1170  0.0101 -0.2006
13113W        W29961  11.372   4.946   1.430 -0.0293 -0.1880 -0.0893
13114W        W29962   0.087  11.153   5.057 -0.0329 -0.1277 -0.1252
13115W        W29963   9.875   8.724   0.247  0.2652 -0.2434  0.1618
13116W        W29964   0.611   4.661  13.632  0.1045 -0.2053 -0.2192
13117W        W29965   4.682   8.885   3.805  0.3906 -0.0633 -0.1150
13118W        W29966   2.838   9.621  13.538  0.1065  0.0024 -0.2457
13119W        W29967   0.012   7.417  13.662  0.1486  0.0006  0.0934
13120W        W29968   3.630  14.040  16.919  0.1873  0.1380 -0.2668
13121W        W29969   5.394   0.648  15.436  0.0095  0.3489  0.0238
13122W        W29970   6.939  14.846   1.375  0.4576 -0.0837  0.0212
13123W        W29971   1.641   8.699  15.113 -0.5384  0.1957  0.1253
13124W        W29972  16.529  11.486  13.457 -0.0495 -0.5077 -0.1105
13125W        W29973  15.645  14.241  13.914 -0.2924 -0.0163  0.1284
13126W        W29974   4.466  13.228  15.612  0.0522 -0.1528  0.0867
13127W        W29975   1.943   7.853  17.141  0.1509  0.1796  0.0687
13128W        W29976   5.180   2.078  16.128 -0.0367  0.1208 -0.1242
13129W        W29977   9.864   3.617   2.733  0.0811  0.1154  0.0029
13130W        W29978   8.844   8.905  16.630  0.3553 -0.0788  0.0418
13131W        W29979   7.156   0.868  13.603 -0.1770  0.0548  0.0552
13132W        W29980   1.858   5.606   0.043  0.0291 -0.1272 -0.1920
13133W        W29981   8.237   0.165  14.346 -0.2225 -0.0232  0.0675
13134W        W29982   2.718   7.537  13.577 -0.2560 -0.2115 -0.0645
13135W        W29983  11.611  13.504  15.161  0.0518 -0.2350  0.2044
13136W        W29984  16.812  11.252   4.770 -0.0507 -0.0241 -0.1139
13137W        W29985   7.324   0.595   4.792 -0.0082  0.2530  0.1428
13138W        W29986   2.744  15.543   0.056  0.2053 -0.4573 -0.0542
13139W        W29987  13.075   9.636   1.013  0.0198 -0.0343 -0.0332
13140W        W29988   1.176  10.461  16.747 -0.1050 -0.0107 -0.1352
13141W        W29989   7.002   7.851  17.199 -0.2568 -0.0459  0.3449
13142W        W29990   6.716  15.905  14.051 -0.1586 -0.3820  0.0679
13143W        W29991  16.170  11.063   1.870 -0.3780 -0.3741 -0.6122
13144W        W29992  14.363  13.430  15.116 -0.0948 -0.1710 -0.0503
13145W        W29993  11.279  16.399   3.845 -0.1328 -0.1151  0.1710
13146W        W29994   5.247  14.463  15.174  0.0735  0.0314 -0.1770
13147W        W29995   5.260   6.071  12.720 -0.0551  0.3899 -0.0861
13148W        W29996  10.284  15.174  13.742 -0.3079 -0.1056  0.1211
13149W        W29997   8.777  13.206  12.867  0.3486 -0.0867 -0.0604
13150W        W29998  13.496  11.766  16.087 -0.0668 -0.0396 -0.0235
13151W        W29999   0.906   5.566  12.660  0.0936 -0.0754 -0.1248
13152W        W30000   3.251   3.744   4.542  0.2184 -0.0752  0.2795
13153W        W30001   4.436  11.681   4.882  0.1217 -0.3274  0.0882
13154W        W30002  15.276   8.646   2.112 -0.2066 -0.1309  0.3944
13155W        W30003  11.084   8.258   4.739 -0.1176  0.0233  0.3676
13156W        W30004   0.087  13.759   0.497 -0.2555 -0.2943 -0.2509
13157W        W30005   1.962   8.912  14.594  0.1809  0.0525  0.0640
13158W        W30006  10.162   8.634   3.824 -0.3023  0.0854 -0.3472
13159W        W30007  11.650  15.834  12.048 -0.1535  0.0568 -0.1348
13160W        W30008   1.451  11.148   3.962 -0.1921 -0.1396 -0.2462
13161W        W30009   3.491  10.180  15.152  0.1917 -0.1284 -0.0682
13162W        W30010  16.160   1.375   2.662  0.2581 -0.0370  0.1686
13163W        W30011   3.922  13.355  17.530 -0.0011  0.1778 -0.1545
13164W        W30012  13.334   1.057  17.555 -0.0824 -0.0705  0.1267
13165W        W30013   3.815   7.456   4.578 -0.2255 -0.1371  0.1458
13166W        W30014  16.673   5.387  15.852  0.3548 -0.0101  0.1908
13167W        W30015   0.401   1.810   3.022 -0.0014 -0.1471  0.5295
13168W        W30016  16.506   7.044  14.267 -0.0896  0.2965 -0.1065
13169W        W30017   9.770  11.546   2.743  0.0388 -0.0586 -0.0935
13170W        W30018  16.308   3.261  12.389  0.0168  0.3406  0.0035
13171W        W30019  14.931   5.132   6.378  0.2020 -0.0139 -0.2035
13172W        W30020  16.875   3.826   2.423 -0.3337 -0.0776  0.0760
13173W        W30021  11.981  13.676  13.372  0.0234 -0.1692  0.0173
13174W        W30022   9.593   7.763  13.314 -0.4169  0.0954 -0.0637
13175W        W30023   2.317  16.878  16.839  0.5223 -0.0301 -0.1503
13176W        W30024   8.195   0.281  17.357  0.0374 -0.0814  0.2241
13177W        W30025   2.282   8.302  13.902  0.0632 -0.1559  0.1216
13178W        W30026   6.039   9.646  14.178 -0.0820  0.1283  0.2771
13179W        W30027   2.713   2.758  13.675 -0.0886  0.0527  0.0021
13180W        W30028  15.127   8.427   5.151 -0.2513 -0.0173  0.2842
13181W        W30029  14.994  11.669   5.539  0.1370  0.0367 -0.1306
13182W        W30030  15.683   2.887   0.457  0.0043 -0.0449 -0.0361
13183W        W30031  15.377   5.185   4.934 -0.0970  0.3240  0.0007
13184W        W30032   7.990   6.005  17.602 -0.0797  0.2653 -0.2761
13185W        W30033  11.110  13.012   2.190  0.0529 -0.1427  0.1315
13186W        W30034  12.218  12.220   6.083 -0.3274  0.3750 -0.1546
13187W        W30035   9.150   6.688  11.969  0.0651 -0.2658 -0.1215
13188W        W30036   4.444   1.369  17.214 -0.0394 -0.2282 -0.0389
13189W        W30037  13.463   1.548   2.562 -0.0428  0.0916 -0.3373
13190W        W30038  14.463  14.356   2.319 -0.2451  0.3974  0.2833
13191W        W30039  12.773   3.434  13.861 -0.0569 -0.2032 -0.0121
13192W        W30040  11.277  14.856  13.542  0.1649 -0.4388  0.2144
13193W        W30041  13.967  11.623   3.227 -0.0246  0.2278  0.0691
13194W        W30042  16.581  10.846   0.929 -0.3146 -0.0459 -0.2737
13195W        W30043  14.872   6.113  17.456 -0.0406  0.4635 -0.3034
13196W        W30044   6.660  13.287   5.833  0.2690  0.0925 -0.0597
13197W        W30045  13.465  12.235   5.250 -0.1240 -0.2183 -0.2611
13198W        W30046   7.279   8.181   3.398  0.0942 -0.0792  0.2280
13199W        W30047  12.923   2.939   3.524  0.1191  0.0973 -0.0568
13200W        W30048   9.201  11.188   0.202 -0.1632  0.0174 -0.0177
13201W        W30049   6.770  11.864   2.905  0.2494 -0.1194  0.3464
13202W        W30050  12.002   7.879  11.268  0.1047  0.1582 -0.2511
13203W        W30051  12.907   2.208  15.644 -0.1670  0.0614 -0.0618
13204W        W30052  15.803   0.157   1.848 -0.3657 -0.0343 -0.0109
13205W        W30053   7.866  15.828  16.328 -0.1480 -0.0965  0.1136
13206W        W30054  11.850   8.328   2.369 -0.1604  0.1397 -0.1210
13207W        W30055   0.971   5.932  12.241  0.2099  0.1892 -0.1166
13208W        W30056   7.674   8.973   4.432  0.1606 -0.0504 -0.0731
13209W        W30057  10.390  15.387   4.077  0.2992  0.1641  0.0258
13210W        W30058   0.049  15.828  13.074 -0.1364 -0.0458  0.4581
13211W        W30059   7.651  16.764  12.888  0.0094  0.1281 -0.0412
13212W        W30060   9.237  10.488   2.420 -0.1363  0.0328 -0.0518
13213W        W30061   3.873   2.846   2.273  0.0735 -0.1462  0.1639
13214W        W30062  15.647   7.181  16.808  0.3306  0.0443 -0.3626
13215W        W30063   7.974   4.245   4.098  0.1552 -0.2802  0.2703
13216W        W30064   3.593  11.761  15.863 -0.1687  0.3257  0.2443
13217W        W30065  12.177  16.032  16.354 -0.2451 -0.1994  0.0892
13218W        W30066   0.818   1.758  14.427 -0.1802  0.0383  0.1197
13219W        W30067   2.467   7.115   1.085  0.2694 -0.4288  0.0411
13220W        W30068   7.463   8.349   0.178 -0.0319 -0.1831  0.3274
13221W        W30069   1.323  10.266   1.552  0.1001  0.1184  0.1379
13222W        W30070   0.734   1.332   4.646  0.0351  0.0339  0.3402
13223W        W30071  14.211  11.487   4.022  0.0662 -0.0256 -0.1107
13224W        W30072   5.706   3.207  14.714  0.0444  0.1853 -0.0810
13225W        W30073   5.915  16.337   5.360 -0.3304 -0.1755 -0.1634
13226W        W30074   0.346  12.403  15.005 -0.0454 -0.1846 -0.1633
13227W        W30075   5.453   5.764  15.723  0.3041 -0.0704  0.2026
13228W        W30076   2.382  13.900   7.015  0.1023  0.1825 -0.0314
13229W        W30077   0.690   5.941   0.824 -0.1948  0.1746  0.0386
13230W        W30078  13.818  15.216   3.045  0.1175 -0.2577  0.1782
13231W        W30079   8.517  14.268  14.036  0.1346 -0.1306 -0.3073
13232W        W30080   6.616  14.574  16.340  0.1350  0.1749  0.1664
13233W        W30081   0.194  15.709   0.917  0.1700 -0.0795 -0.3792
13234W        W30082  16.475   2.648  13.713  0.1428  0.0087 -0.0358
13235W        W30083  15.365   2.567  14.689 -0.0239  0.0279 -0.0521
13236W        W30084   7.601   1.948   5.346  0.0993  0.2146 -0.0039
13237W        W30085  15.882   6.777   2.385  0.0228  0.0300 -0.1397
13238W        W30086   8.816  15.089   3.481 -0.0933 -0.0980 -0.1442
13239W        W30087   5.875  10.829   3.553 -0.0505  0.0597  0.0286
13240W        W30088   3.781   5.002  13.365  0.0317  0.3106 -0.0580
13241W        W30089   8.701   5.283   0.846 -0.1118  0.2082 -0.0048
13242W        W30090   9.106   6.468   0.538 -0.0795 -0.0209 -0.1455
13243W        W30091  10.232   1.886   2.588 -0.1574 -0.1071 -0.1590
13244W        W30092  13.071  11.543   1.960  0.1375 -0.0161 -0.1567
13245W        W30093  13.620   2.741   1.032 -0.2205  0.0737 -0.0829
13246W        W30094  15.563  10.488   3.783 -0.0539  0.0821  0.2611
13247W        W30095  10.979  14.514  14.662  0.1154 -0.0851 -0.2398
13248W        W30096   2.396   0.812  13.197 -0.0326  0.0110 -0.2598
13249W        W30097   4.709   7.024  16.205 -0.0713  0.0226 -0.0238
13250W        W30098   8.378   3.215  12.823 -0.1572 -0.3259  0.1030
13251W        W30099  11.679  14.835   4.718 -0.1895  0.0397  0.2617
13252W        W30100  14.804   1.700   0.241 -0.1401 -0.0349 -0.5203
13253W        W30101   9.205  13.083  13.663  0.1240  0.0971 -0.1996
13254W        W30102   2.729   1.992   0.429 -0.0402  0.0025 -0.1621
13255W        W30103  10.661  13.578  13.247 -0.2166  0.0295  0.0880
13256W        W30104   2.727  12.347   2.492 -0.1031  0.2348  0.3193
13257W        W30105  15.335   5.643  15.683  0.0436  0.4665  0.2455
13258W        W30106  10.420   1.522   0.460  0.0850 -0.0598 -0.1820
13259W        W30107   0.788   4.530   4.221 -0.1187 -0.2442  0.0042
13260W        W30108  11.234   5.753  17.751  0.0162 -0.3175 -0.1880
13261W        W30109  14.685  13.585  15.875 -0.1655 -0.1298  0.0932
13262W        W30110   9.044   7.248   0.687  0.1743  0.1042 -0.2135
13263W        W30111   8.307  15.138   1.654  0.0864 -0.0534  0.0061
13264W        W30112   9.434  10.454  11.957 -0.2417  0.0173  0.2564
13265W        W30113   0.959   0.770  16.551 -0.1522  0.0140  0.2552
13266W        W30114   1.340   9.568  14.798 -0.1245  0.1061 -0.0247
13267W        W30115   1.208   4.277   2.752  0.0388  0.0415 -0.0189
13268W        W30116   7.837   2.485  14.656 -0.3626  0.3227 -0.1730
13269W        W30117   2.590  16.734   4.031 -0.0655 -0.0875 -0.0887
13270W        W30118   5.731   1.328  17.418 -0.0506 -0.2114  0.1005
13271W        W30119   0.305   2.979  14.537 -0.0682 -0.0878 -0.0816
13272W        W30120  15.624   4.677   5.356 -0.1539 -0.1960  0.1957
13273W        W30121  11.981  10.993  14.036  0.1574 -0.2712  0.1206
13274W        W30122  16.716   0.319  12.029  0.1324 -0.2273  0.1224
13275W        W30123  15.601   0.959  15.586  0.1264  0.2511 -0.2212
13276W        W30124   0.239  11.657  13.000  0.0099  0.1446 -0.1926
13277W        W30125  13.882   4.069  14.532  0.0905 -0.0036 -0.2149
13278W        W30126  12.053   0.833   3.989 -0.2044 -0.0513 -0.0039
13279W        W30127  13.364   8.499   3.452  0.2162 -0.1577 -0.0219
13280W        W30128   9.262   4.322  12.589 -0.1620 -0.2350  0.0831
13281W        W30129   4.664  12.276   1.327  0.1151  0.2042  0.0606
13282W        W30130  10.361  15.991   3.754  0.0525  0.3652  0.3028
13283W        W30131   8.635   1.264   3.639 -0.0938  0.0243 -0.2991
13284W        W30132   5.220   9.015   3.741 -0.0123  0.4127 -0.1854
13285W        W30133  12.574   2.361  12.108  0.1330 -0.0246 -0.2189
13286W        W30134  10.058  16.298  15.417  0.0596 -0.0639  0.1951
13287W        W30135   0.343   5.506  13.817 -0.3265 -0.4682 -0.0672
13288W        W30136  10.476   2.178   0.366 -0.1065  0.0090 -0.0947
13289W        W30137  15.134   4.376  12.492 -0.1503  0.1132 -0.2222
13290W        W30138  16.669  12.463  12.260  0.2089  0.0714 -0.2279
13291W        W30139   2.631  16.375   0.465 -0.4221 -0.2913  0.3940
13292W        W30140   0.015  14.485  17.154  0.2149 -0.0615 -0.0518
13293W        W30141  15.856   1.285  13.729 -0.1336  0.1592  0.0400
13294W        W30142  16.490   2.637  16.759  0.4762  0.1584 -0.1567
13295W        W30143   7.457  13.813   5.262 -0.1143  0.4028  0.1508
13296W        W30144   7.853  12.666   5.371  0.3339  0.0057  0.2646
13297W        W30145   2.346  12.924   6.055 -0.0992  0.2898 -0.0028
13298W        W30146   7.623  11.538   4.298  0.0340 -0.1694  0.1295
13299W        W30147   8.922  10.693   4.812 -0.0500  0.2971 -0.1885
13300W        W30148  16.400   0.757   3.960 -0.0026  0.0101  0.0560
13301W        W30149   3.442  15.330  15.989  0.1886  0.0909  0.1594
13302W        W30150   5.731  15.047  15.874 -0.1514  0.1222  0.0651
13303W        W30151  12.571  10.210   2.752 -0.0145  0.0472 -0.1512
13304W        W30152  16.374   3.091   4.063 -0.1671 -0.0878  0.0684
13305W        W30153  16.702   8.321   4.119  0.0123  0.0261  0.1692
13306W        W30154   9.555   4.064  17.452 -0.2088  0.2579 -0.1688
13307W        W30155  14.949   2.789  15.687  0.1308  0.1627  0.1810
13308W        W30156  12.746   1.123   1.191  0.2421 -0.0120 -0.4787
13309W        W30157   4.156  15.182   6.038 -0.0631 -0.0979 -0.2427
13310W        W30158   9.868  13.157   2.190 -0.1654  0.0186 -0.0957
13311W        W30159  14.558   9.906   2.550 -0.0387  0.0068 -0.0660
13312W        W30160  14.391   1.267  15.380 -0.1404  0.1524 -0.1177
13313W        W30161   4.210   1.204  14.196 -0.0385  0.0663  0.1319
13314W        W30162   8.452  16.103   2.047  0.0892 -0.2567 -0.1465
13315W        W30163  10.369   0.891  11.684  0.1140  0.0131  0.0580
13316W        W30164   3.388   9.306   5.562 -0.1321  0.1246  0.0440
13317W        W30165   7.393   9.696  12.402  0.0665  0.1865  0.0256
13318W        W30166  14.715  15.049   1.310  0.2723 -0.2196  0.2107
13319W        W30167   9.734   2.934   0.271 -0.0376  0.0556  0.2224
13320W        W30168   3.555   8.601   5.043 -0.1323 -0.0804  0.1068
13321W        W30169  13.371   5.695  15.130  0.1391 -0.1302  0.2538
13322W        W30170   3.367  14.372  14.301  0.4093 -0.3851  0.1652
13323W        W30171   3.412  15.514  13.304 -0.0997 -0.0178 -0.0073
13324W        W30172   8.903  10.341   0.988  0.1255  0.2986 -0.1487
13325W        W30173  10.477  10.594  16.592  0.1823 -0.4317  0.2214
13326W        W30174  15.092   5.521   1.196  0.0953 -0.1757  0.0962
13327W        W30175   3.655   1.789   4.232 -0.2224  0.1597  0.2109
13328W        W30176  11.713   0.638  11.709 -0.1443  0.2201 -0.1854
13329W        W30177   9.848   9.796  14.265 -0.0676  0.2608  0.1683
13330W        W30178   2.020  14.328   3.060 -0.0731 -0.4166  0.0720
13331W        W30179   0.929   1.687   2.329 -0.0253 -0.2353 -0.3208
13332W        W30180  14.766   5.779  15.359  0.0681 -0.1870 -0.0818
13333W        W30181   7.954   4.613   0.811  0.0416  0.2600  0.1180
13334W        W30182  10.047   9.479   4.718 -0.0145 -0.1733  0.0315
13335W        W30183   7.824   1.850  13.920  0.3038  0.1187  0.0350
13336W        W30184  10.922   1.797  17.503  0.0092 -0.0683  0.0514
13337W        W30185   5.043   1.902   4.119 -0.1004 -0.1768 -0.2578
13338W        W30186   0.301   2.076  12.949 -0.2849 -0.1696  0.1944
13339W        W30187   6.106  13.830  15.007  0.1307 -0.0090 -0.0333
13340W        W30188   6.275   1.451  15.839 -0.0188 -0.0152  0.0104
13341W        W30189  15.293   3.875   3.004  0.0890  0.0478 -0.1107
13342W        W30190   4.385   9.165   4.082  0.1807 -0.4298  0.0885
13343W        W30191   4.230  15.424  16.709  0.3433 -0.1082 -0.3607
13344W        W30192  17.141  16.705  13.184  0.0884  0.1303 -0.0813
13345W        W30193   7.111   7.188  12.899 -0.2945 -0.2349 -0.1162
13346W        W30194  14.322  10.365  14.181 -0.1275  0.0965  0.0456
13347W        W30195  14.067   0.527   1.851  0.0747  0.2938 -0.2143
13348W        W30196   6.395  13.151   0.036 -0.1048 -0.1896  0.2016
13349W        W30197   9.049   0.486  15.656  0.0862  0.1580 -0.1194
13350W        W30198  10.165   2.015   5.059  0.1380  0.0917  0.1363
13351W        W30199  13.745  16.808   4.428  0.2867  0.4002 -0.3288
13352W        W30200  12.552  10.610   0.410  0.2102 -0.2115 -0.0937
13353W        W30201  13.216  14.536   2.450 -0.0024 -0.1461 -0.0513
13354W        W30202   1.253  16.495   0.279 -0.1473 -0.1924 -0.2767
13355W        W30203   1.057  13.632   0.865  0.1747  0.3249 -0.0348
13356W        W30204  16.894   7.582   1.502  0.0818 -0.2459  0.1199
13357W        W30205   7.684   2.255  13.054  0.0030 -0.0683 -0.1287
13358W        W30206   6.759   5.980  13.060  0.1511  0.0542  0.1544
13359W        W30207  14.801  15.656  12.490 -0.0809 -0.3349  0.0442
13360W        W30208  15.585  16.732   4.205  0.1725  0.2970 -0.0998
13361W        W30209   7.904  10.709   2.473  0.0629 -0.0548  0.2247
13362W        W30210   9.263   5.714   5.709  0.1763  0.2107 -0.2570
13363W        W30211   7.511   3.765   0.492  0.0012 -0.3321  0.0923
13364W        W30212   9.128   1.251   3.799  0.2612 -0.3625  0.0624
13365W        W30213   9.767  13.792  16.448  0.2664  0.0782  0.3218
13366W        W30214   4.009   9.685   3.836 -0.2173 -0.0369  0.1043
13367W        W30215  16.820   7.067  13.915 -0.0221  0.0767 -0.1477
13368W        W30216  16.012   3.197  15.670 -0.3080 -0.1615  0.3295
13369W        W30217   4.845  16.250   2.249 -0.0330  0.2367  0.0875
13370W        W30218   2.095  10.930   2.295 -0.0292 -0.0879  0.2762
13371W        W30219   5.477   4.630   6.568  0.0247  0.0158 -0.1304
13372W        W30220  11.081  13.249   4.606  0.0226  0.1350 -0.0391
13373W        W30221  10.985   0.766   1.466 -0.0496  0.1144 -0.1051
13374W        W30222   7.443   9.443   3.087 -0.0936 -0.2774 -0.0199
13375W        W30223   7.919  17.157  16.241  0.0595  0.3505  0.2561
13376W        W30224  12.887   2.602   4.477 -0.0739 -0.1122  0.1208
13377W        W30225   2.626   7.019   5.548  0.1058  0.0558  0.1914
13378W        W30226  10.974  13.286  13.010  0.0361  0.4278  0.0474
13379W        W30227   7.243   6.368  12.970  0.1643 -0.0126  0.0110
13380W        W30228  11.519   1.006   0.079 -0.2257  0.1494  0.2255
13381W        W30229   1.747  10.022  15.941  0.0304 -0.2030  0.0163
13382W        W30230   2.272   5.153  12.521  0.2575 -0.3061 -0.0511
13383W        W30231   8.804   0.933  17.366  0.1938 -0.3453 -0.1547
13384W        W30232  11.225  14.648   3.301  0.0213 -0.1006 -0.1007
13385W        W30233  15.849   4.054   1.929 -0.2106 -0.0087  0.2632
13386W        W30234  11.557   6.416   2.256  0.0231 -0.0541 -0.2290
13387W        W30235   5.575  12.099  16.158  0.1279  0.1217 -0.1634
13388W        W30236  13.731  14.475  16.258 -0.1114  0.1101  0.2425
13389W        W30237   5.128  10.117   1.347  0.2638 -0.0618 -0.0702
13390W        W30238  12.111   7.701  13.273  0.1178  0.0762 -0.1281
13391W        W30239  14.023   3.402   2.730 -0.1580 -0.1549  0.2180
13392W        W30240  14.150   1.008  14.270  0.2964 -0.1660 -0.0050
13393W        W30241  10.606   5.221   4.670 -0.0409  0.0906  0.1766
13394W        W30242   9.242   4.728   3.901  0.0241  0.2257 -0.0571
13395W        W30243  16.276   1.520   5.935 -0.5164 -0.0629 -0.0413
13396W        W30244   9.949  15.922   4.080 -0.0391 -0.1304  0.0894
13397W        W30245   5.638  15.996  16.328 -0.1060 -0.0767  0.1561
13398W        W30246   5.822  10.223  17.120  0.0471 -0.0215 -0.2011
13399W        W30247   5.247  13.657   5.068 -0.1954 -0.0714  0.2291
13400W        W30248  11.782  11.262   4.104  0.1263 -0.2155 -0.0040
13401W        W30249   9.254  15.972  14.157 -0.1226 -0.1444 -0.2167
13402W        W30250  11.756  13.083   2.961 -0.0216 -0.3207  0.2300
13403W        W30251   5.754   0.751   1.781 -0.0071  0.1127 -0.2560
13404W        W30252  13.023   3.399   3.341  0.1956 -0.0912  0.2469
13405W        W30253  13.356  10.819  16.199  0.1543 -0.2317 -0.1682
13406W        W30254  16.881   4.601  16.787  0.1844 -0.1389  0.1085
13407W        W30255   7.213  13.820  14.614 -0.0099  0.3679 -0.1581
13408W        W30256   0.204   6.098   1.813  0.2008  0.0205 -0.2934
13409W        W30257  11.430   5.125   0.262 -0.2822  0.1778  0.1144
13410W        W30258   7.613   1.254   2.088  0.0336 -0.2445 -0.0290
13411W        W30259  13.394   7.100   3.833 -0.0267  0.0563 -0.1467
13412W        W30260   0.351   3.285  16.045  0.0543 -0.0278  0.2782
13413W        W30261   1.010   0.441  13.300 -0.1152 -0.0051 -0.1770
13414W        W30262   6.868  15.216  17.347 -0.0745 -0.1970  0.0027
13415W        W30263   0.539   6.515  17.061  0.1214 -0.6595 -0.2186
13416W        W30264  11.133   7.915   2.156  0.0540 -0.0780 -0.1182
13417W        W30265  12.385   5.020  12.323 -0.1101 -0.3962  0.1099
13418W        W30266  15.462  11.873   6.711  0.1257 -0.1037 -0.1962
13419W        W30267  16.398   3.895   2.531 -0.1266 -0.0311  0.0558
13420W        W30268   9.574   3.238  17.275 -0.1423 -0.1591  0.0035
13421W        W30269  11.691   9.396   3.156  0.1941  0.0893  0.2974
13422W        W30270  13.745  10.396  12.852  0.1780  0.1704 -0.1371
13423W        W30271   9.579  16.134  15.391  0.1408 -0.0614  0.1073
13424W        W30272  13.154  12.729  16.264  0.2223  0.0832 -0.0791
13425W        W30273   0.341   1.644   4.707  0.2413  0.0424  0.1311
13426W        W30274  13.833   8.362  16.521  0.1062  0.1622 -0.1184
13427W        W30275  14.177  12.013   4.587 -0.0763  0.2423 -0.1233
13428W        W30276   6.489  12.877  13.884  0.2125  0.3557  0.0098
13429W        W30277   0.912  13.775  14.244 -0.1389  0.0948 -0.0913
13430W        W30278  16.146  15.958   0.709 -0.0376 -0.1824  0.0840
13431W        W30279  11.898   0.781   0.615  0.2592 -0.0320 -0.1102
13432W        W30280  12.861   4.878  16.900 -0.3732 -0.2064 -0.0702
13433W        W30281   5.149   4.124   3.656  0.0838  0.1093 -0.0144
13434W        W30282   3.922  11.817  15.488 -0.1023 -0.1455  0.1757
13435W        W30283  12.176  16.493  16.665  0.0902 -0.2958 -0.1516
13436W        W30284   5.420   0.568   0.140  0.0203  0.0052  0.0339
13437W        W30285   4.778  13.784   4.499  0.0994 -0.0478 -0.3429
13438W        W30286   4.669   2.043  13.737 -0.0137 -0.1824 -0.0314
13439W        W30287  11.581   6.483   1.406 -0.1478  0.0665  0.1463
13440W        W30288  12.635   4.660  12.457 -0.0342 -0.0338 -0.1053
13441W        W30289   0.104   7.428   2.295  0.2398 -0.1904 -0.1557
13442W        W30290  10.129   9.046  13.063 -0.0026 -0.1976 -0.0248
13443W        W30291   4.681  15.059   6.128  0.0377 -0.0411  0.2211
13444W        W30292   5.678  17.120  12.404 -0.4018  0.1155  0.0334
13445W        W30293  15.714   5.327  12.245  0.0148 -0.0784 -0.0058
13446W        W30294   0.782   9.521   0.393 -0.2114 -0.1346  0.2176
13447W        W30295   1.651  13.489  17.586 -0.0949  0.0470  0.2862
13448W        W30296  12.115  11.890  17.056 -0.1767 -0.0119 -0.1932
13449W        W30297   6.006   3.717   0.578  0.1519 -0.2719 -0.1732
13450W        W30298   2.149  15.759   3.439 -0.0827 -0.0475 -0.0928
13451W        W30299  11.435   3.041  17.156  0.0363 -0.1439 -0.2058
13452W        W30300  16.735   7.689  12.028  0.3188  0.0075  0.0296
13453W        W30301  13.475  12.535   5.814  0.0471  0.2763  0.0308
13454W        W30302   6.427   8.088   5.496  0.0166 -0.3666  0.1642
13455W        W30303   5.179  13.351   3.262  0.1179  0.1044  0.1860
13456W        W30304  15.607  16.731  13.527 -0.3834  0.0981  0.1905
13457W        W30305   8.668  14.304   3.796 -0.2309 -0.4675  0.1991
13458W        W30306   9.874   0.477  13.478 -0.0158 -0.4926  0.1186
13459W        W30307  15.191   8.073   5.539  0.2975  0.1593  0.0806
13460W        W30308   1.547   6.272  12.839  0.0847 -0.1851  0.0490
13461W        W30309  16.472   5.474   0.751 -0.3804 -0.0241  0.0426
13462W        W30310  17.011   6.033  14.149 -0.0177  0.2017  0.0864
13463W        W30311   5.144  16.912   5.576  0.0749  0.0440  0.0484
13464W        W30312   3.629   3.436   4.719  0.2081  0.0932 -0.1439
13465W        W30313  13.689   7.382   4.617 -0.0299  0.0685  0.0587
13466W        W30314  16.523   9.314  12.937  0.2978  0.1347 -0.0478
13467W        W30315   9.253   8.228  14.846  0.2865  0.0409 -0.3437
13468W        W30316   3.661   8.637   2.442  0.2526  0.1341 -0.0250
13469W        W30317  13.493  13.274   4.834  0.1679  0.3741 -0.1962
13470W        W30318   2.398   7.600  15.791  0.3855 -0.1004 -0.1183
13471W        W30319  13.563   9.218   2.202 -0.1150 -0.0854 -0.1208
13472W        W30320   3.111  13.812   1.314 -0.0390  0.2674 -0.2015
13473W        W30321   3.131  15.808   1.897 -0.2753  0.0898  0.0596
13474W        W30322   7.188   2.289  15.387  0.1377 -0.6322 -0.1416
13475W        W30323   5.395  12.391  12.778 -0.0982 -0.0818 -0.2522
13476W        W30324   6.345  13.554  14.487 -0.0655 -0.2242 -0.4033
13477W        W30325  11.926   1.466   2.972 -0.2876 -0.1175 -0.3197
13478W        W30326   9.033  15.413   0.480  0.1450  0.0940  0.2498
13479W        W30327   4.858  10.186   2.485  0.1830  0.3397  0.1768
13480W        W30328  17.026   0.216   4.241  0.2294  0.0863 -0.2188
13481W        W30329   8.351  11.346  13.332 -0.3427  0.1169 -0.1032
13482W        W30330   6.968  15.222  13.968 -0.0746  0.0204  0.1893
13483W        W30331  11.479   0.789   1.336 -0.2725  0.1075  0.1295
13484W        W30332   3.820   6.285  16.172 -0.0333  0.0608 -0.2930
13485W        W30333   9.355  14.943  15.543 -0.0741 -0.0240 -0.2402
13486W        W30334   9.344  16.783   3.295  0.0750  0.0029 -0.4534
13487W        W30335  12.641   4.135   2.686 -0.2368  0.1084  0.0738
13488W        W30336   8.042  16.186   1.804 -0.1717  0.2390 -0.0025
13489W        W30337  12.677  11.780   0.177 -0.0913  0.0152  0.1331
13490W        W30338   5.106   0.894   4.711  0.0028 -0.1428 -0.3374
13491W        W30339   0.675   0.642  15.283  0.0126 -0.1065 -0.2469
13492W        W30340   3.061   5.850   1.496  0.1229  0.0172 -0.0650
13493W        W30341  14.917  11.061  14.305  0.1907 -0.1783 -0.0941
13494W        W30342  11.023   4.214   2.928  0.3090 -0.0940  0.1987
13495W        W30343   3.421   5.543   3.215  0.1741 -0.4251 -0.3478
13496W        W30344   8.133   7.837  14.873  0.0279  0.1328  0.0769
13497W        W30345   6.660   1.649  13.222 -0.0736  0.0510  0.0966
13498W        W30346  15.318   1.306  15.359 -0.2502 -0.0899 -0.0998
13499W        W30347  10.288   6.979  12.321  0.0531  0.1244  0.0945
13500W        W30348  17.013   8.441   0.905  0.0952 -0.0073  0.0225
13501W        W30349  14.671   9.677  17.728 -0.0024 -0.1109 -0.0733
13502W        W30350   8.786   9.754   3.406  0.2009  0.0511  0.0362
13503W        W30351   4.025  15.156  13.602  0.0638  0.2726  0.2299
13504W        W30352   2.841   4.478  15.597 -0.1623  0.0001  0.0645
13505W        W30353  16.262  10.987  14.366  0.0106  0.4067  0.0876
13506W        W30354   5.602  14.509  17.470  0.1059  0.0047  0.0949
13507W        W30355   8.440  16.973   1.190 -0.0634  0.0467  0.2973
13508W        W30356   6.459  15.254   4.325  0.3839  0.1815  0.0991
13509W        W30357  14.799  15.870   2.999 -0.1189 -0.1536  0.0507
13510W        W30358  11.639   3.196   0.218 -0.2761 -0.1974  0.0432
13511W        W30359  13.136   4.320  15.054  0.1408  0.1780  0.1469
13512W        W30360   1.421   7.088  13.683 -0.1914 -0.2067  0.0119
13513W        W30361  13.790  11.937  13.483 -0.0802  0.1285  0.2384
13514W        W30362  11.077   5.269   4.437 -0.0813  0.3104 -0.1566
13515W        W30363   0.945  14.244   0.181 -0.2120 -0.1301  0.0775
13516W        W30364  16.038   7.833  13.948  0.1455 -0.1220 -0.0128
13517W        W30365   1.929  14.997  13.253  0.0091 -0.1010 -0.2249
13518W        W30366  11.790   6.334  13.490 -0.1200 -0.1318 -0.1538
13519W        W30367  11.885   5.093  15.168  0.1904 -0.1186 -0.2619
13520W        W30368  10.922  10.278   2.652  0.0969  0.0881  0.3648
13521W        W30369  14.578  12.979  16.509 -0.0579 -0.0515 -0.0867
13522W        W30370   4.391   6.992   5.811 -0.1083 -0.0374  0.0195
13523W        W30371  16.652  15.022  14.368 -0.0529  0.1455 -0.1275
13524W        W30372   0.293   0.050  15.220 -0.1786  0.0772  0.1970
13525W        W30373  15.779  13.030   1.498 -0.0420 -0.1354 -0.2189
13526W        W30374   6.255   3.499   0.068 -0.0331  0.1128 -0.0878
13527W        W30375  13.928   7.548   1.300  0.1290 -0.1655 -0.2799
13528W        W30376  16.611  15.990   5.098  0.1165 -0.2231  0.0399
13529W        W30377  16.472   8.032  14.203 -0.1475 -0.0826 -0.1122
13530W        W30378   4.657   1.788   2.091  0.0282 -0.0064 -0.2598
13531W        W30379   2.908  10.976   4.061 -0.1303  0.0082  0.1413
13532W        W30380   0.062   7.028   1.004  0.3375  0.4286  0.2610
13533W        W30381  10.133   1.275   2.805  0.2782  0.0413 -0.0333
13534W        W30382   3.664  15.892   4.138 -0.1656  0.0092 -0.2123
13535W        W30383  15.256  15.746   5.134 -0.1248 -0.2961  0.0522
13536W        W30384  14.055   7.270   2.200 -0.0701  0.1688 -0.2891
13537W        W30385  16.331   9.582  15.058 -0.0358  0.0016 -0.2523
13538W        W30386   5.456   9.460   4.660  0.0690  0.0507  0.1061
13539W        W30387   1.791   4.736  12.380  0.1740 -0.2904 -0.2436
13540W        W30388  16.072   7.426   5.116  0.0932 -0.2241 -0.0242
13541W        W30389  11.895   2.606  17.224  0.4165 -0.0718 -0.1451
13542W        W30390  10.160   9.192   3.035  0.0260  0.0130  0.1964
13543W        W30391  14.392   9.679  13.212  0.0525  0.0896 -0.1614
13544W        W30392   5.022   5.908   1.472  0.2119 -0.0343 -0.0812
13545W        W30393   7.065  14.516   0.773  0.0636 -0.1262  0.2534
13546W        W30394   7.777  12.590  15.538  0.1487  0.2596 -0.0280
13547W        W30395   4.697   1.745   5.098 -0.2915  0.1998  0.1748
13548W        W30396  16.929   3.523   1.973  0.2094  0.2187 -0.0792
13549W        W30397   6.417   9.102  14.390  0.3103 -0.0511  0.0033
13550W        W30398   9.528  17.033  14.974 -0.0764  0.1059  0.0836
13551W        W30399   2.826   7.754  16.480  0.0055 -0.0344 -0.3733
13552W        W30400  13.900   6.369   3.994  0.2333 -0.2291  0.1464
13553W        W30401   1.294  13.168  14.636 -0.1112 -0.0183 -0.0505
13554W        W30402  12.151   1.577  16.863 -0.1586  0.1992  0.0175
13555W        W30403  15.756   5.736   1.406  0.2883 -0.2195 -0.0574
13556W        W30404   3.762   5.227  14.992  0.1903  0.0571  0.0765
13557W        W30405   6.492   7.167  14.262  0.1998 -0.0473 -0.3702
13558W        W30406  10.878   5.670  12.243 -0.1962  0.1492  0.1485
13559W        W30407  13.683  12.596  17.442 -0.0530 -0.3609  0.0429
13560W        W30408  15.831  14.049  15.224 -0.2144 -0.4443 -0.1775
13561W        W30409   9.014   4.041  15.134 -0.0559 -0.0615  0.0135
13562W        W30410  10.618  15.247  14.192 -0.2394 -0.0635  0.0476
13563W        W30411   2.271  10.908  14.790 -0.2508 -0.3848  0.1487
13564W        W30412   6.763  13.250  16.124  0.1081  0.2325 -0.1411
13565W        W30413   7.887   0.713  12.905 -0.0858 -0.2854 -0.0945
13566W        W30414  10.042   7.547  12.471  0.1470 -0.0950 -0.0323
13567W        W30415   7.961   2.510   4.602 -0.2580  0.0581 -0.1989
13568W        W30416   2.950   6.188   5.115 -0.2135 -0.1267  0.1801
13569W        W30417   5.114   0.911  15.135 -0.0405  0.0491  0.2673
13570W        W30418  12.610   3.445  16.622  0.4190  0.0312 -0.2579
13571W        W30419  17.100   1.633   4.205  0.0821 -0.1548 -0.1906
13572W        W30420   9.565   0.556   2.820  0.1056 -0.1525 -0.1655
13573W        W30421  16.900   2.216   1.426  0.0370  0.2443 -0.2159
13574W        W30422   8.377  15.432  14.420  0.1767 -0.0036  0.0730
13575W        W30423   9.886  10.173  15.695 -0.1539 -0.0121 -0.2302
13576W        W30424   0.745   6.350   2.339  0.0500 -0.1908 -0.2310
13577W        W30425   9.979   3.434   3.218 -0.1805  0.4108 -0.0392
13578W        W30426   0.864   4.620  17.350  0.0343  0.0519 -0.1713
13579W        W30427  10.669   9.817   0.260 -0.1218 -0.0261  0.2078
13580W        W30428   1.424   2.334   2.884  0.0537  0.2147  0.0166
13581W        W30429  12.504  16.483  12.811 -0.0292  0.1885 -0.3559
13582W        W30430  11.583  16.300   1.542 -0.2310 -0.1987  0.0052
13583W        W30431   2.727   9.980  14.339  0.1094 -0.3217 -0.0699
13584W        W30432   1.343   0.381   0.118 -0.0437  0.0702 -0.1014
13585W        W30433  16.768   2.686   6.024  0.1582  0.0889 -0.0239
13586W        W30434   6.798   0.874  16.421 -0.0752 -0.1283 -0.2374
13587W        W30435   5.135   7.930  14.135  0.0296 -0.0384  0.0389
13588W        W30436   0.578  10.085  12.897  0.3109  0.1752  0.2745
13589W        W30437   6.301   1.686   3.065  0.0192 -0.0975  0.1332
13590W        W30438  14.453   1.217  14.871 -0.2921  0.1033 -0.2108
13591W        W30439  11.989   7.759   2.486 -0.1372  0.5495  0.1684
13592W        W30440  14.659  14.440   4.934  0.2935  0.1672 -0.0553
13593W        W30441  11.823  12.095  17.646 -0.2380 -0.3126 -0.0293
13594W        W30442   9.459  10.156   4.117 -0.1160 -0.0917  0.2784
13595W        W30443  13.573   1.700  15.262 -0.1217 -0.2664  0.3279
13596W        W30444  15.988   9.891  12.183 -0.0592 -0.1130 -0.2954
13597W        W30445  12.702  16.634   3.439 -0.0047 -0.3665 -0.1164
13598W        W30446   5.259  14.690  11.287  0.1583  0.2705 -0.0244
13599W        W30447  11.966  14.789   1.363 -0.2050 -0.1264 -0.2554
13600W        W30448  13.077  14.397   5.813  0.0896  0.0902 -0.2253
13601W        W30449   6.380   3.125   1.213 -0.0913  0.2004  0.1107
13602W        W30450  12.043  17.004   3.699  0.0614 -0.4033  0.0826
13603W        W30451  13.419   6.405   1.435  0.1569 -0.1519  0.0810
13604W        W30452   3.343   2.198   3.343  0.3085  0.0966 -0.0100
13605W        W30453   6.201  15.449   1.958 -0.0777 -0.4227  0.1426
13606W        W30454  10.914  15.077  17.655 -0.0301 -0.2149 -0.4100
13607W        W30455   5.019  15.209   4.398  0.1214  0.1410  0.3295
13608W        W30456  15.277   6.846   2.428  0.2597 -0.1499 -0.2877
13609W        W30457  16.141   5.185   2.404 -0.1611 -0.0944  0.0299
13610W        W30458   9.502  10.123   3.128  0.0347  0.0679  0.1659
13611W        W30459  13.087  12.524   3.152  0.1439  0.1558  0.1523
13612W        W30460   5.809   4.910   0.025  0.2028  0.1142  0.2012
13613W        W30461  10.701   5.607   4.296  0.0837 -0.1930 -0.0643
13614W        W30462  13.209   3.033   5.532  0.0007 -0.1395 -0.1385
13615W        W30463  13.037  11.776   4.956  0.1073 -0.0827  0.0237
13616W        W30464   2.373  15.300   4.814 -0.0920 -0.3167 -0.1113
13617W        W30465   6.468   2.102   3.426  0.1528 -0.0303  0.0151
13618W        W30466   3.952   4.750   4.881 -0.2387  0.0076 -0.0528
13619W        W30467  11.744   2.220  14.643 -0.5474 -0.2502 -0.1657
13620W        W30468   0.736  12.682  14.888 -0.0313 -0.4032 -0.0175
13621W        W30469   9.268  15.705   1.175 -0.1959  0.2135 -0.0185
13622W        W30470  16.591   8.920  14.312  0.0500  0.0981 -0.2716
13623W        W30471   0.024  16.846  17.673  0.2021  0.0346  0.1038
13624W        W30472   5.207  16.444  13.337 -0.2482 -0.0491  0.4689
13625W        W30473  13.600  11.866   1.187 -0.0180 -0.0366  0.1110
13626W        W30474   6.267   1.127   0.337 -0.1659 -0.2455  0.0485
13627W        W30475   9.571   7.720  14.141 -0.0908 -0.3725  0.1739
13628W        W30476  13.450   0.942   0.763  0.0012 -0.1309  0.0130
13629W        W30477   5.998   7.985   0.861 -0.0184 -0.0216  0.1941
13630W        W30478   6.160  14.472  16.468  0.1611 -0.5467  0.1884
13631W        W30479  16.353  12.743   0.889  0.1239  0.1011  0.2207
13632W        W30480   7.206  16.838   5.857 -0.0805  0.3920 -0.0021
13633W        W30481  12.073  10.225  15.518  0.5216  0.2055  0.3515
13634W        W30482  14.814   0.634  13.316  0.0082 -0.2128 -0.0329
13635W        W30483   6.366  16.322   3.240 -0.0877  0.0301  0.0611
13636W        W30484  16.428   6.111  17.215  0.3921  0.2215 -0.2758
13637W        W30485  11.900   3.484   2.990 -0.4392  0.0341 -0.0496
13638W        W30486  10.322   0.801   2.065 -0.1441  0.0551 -0.0485
13639W        W30487  15.540   8.948  14.452  0.1014  0.0250 -0.0860
13640W        W30488   9.590  13.228   4.230  0.1207  0.0228 -0.3196
13641W        W30489  16.338   2.484  15.032  0.4335  0.0151  0.0875
13642W        W30490  13.973  13.653  16.583  0.0790  0.0360  0.0622
13643W        W30491   5.154   6.006  17.249 -0.0227 -0.0943  0.2661
13644W        W30492   7.742  10.632  16.891 -0.0356  0.0023  0.2050
13645W        W30493   6.556  16.521   0.591  0.0631 -0.3428 -0.0554
13646W        W30494   7.553  15.248  16.839  0.0761  0.2081 -0.1431
13647W        W30495   2.925   5.109   2.077  0.1256 -0.0406  0.0797
13648W        W30496  13.288   1.773  15.700  0.3421  0.0826  0.1126
13649W        W30497   9.637   4.921  13.056 -0.4889  0.0988 -0.2018
13650W        W30498   8.483   3.908   5.874 -0.2543 -0.0207 -0.0929
13651W        W30499  13.075  10.267  11.878 -0.1388 -0.2835  0.0011
13652W        W30500   0.482  15.330  14.387  0.0511  0.0622 -0.0060
13653W        W30501   1.897  15.604  12.450 -0.1363 -0.0892  0.0062
13654W        W30502   9.439   8.093  11.808 -0.2363  0.1579 -0.0656
13655W        W30503   0.223   0.924  17.228 -0.3742 -0.1160  0.0541
13656W        W30504   9.574  11.815  16.492  0.0988  0.1155 -0.1091
13657W        W30505  10.367   9.338  13.395 -0.0112  0.1491 -0.0657
13658W        W30506  14.124   7.547  17.081  0.0033 -0.1284  0.0098
13659W        W30507  15.715   9.952  13.863  0.1636  0.0025  0.0934
13660W        W30508   7.216   6.381  14.232  0.0945  0.3070 -0.0077
13661W        W30509   9.133   1.439  15.992 -0.2515 -0.0822  0.1604
13662W        W30510   0.995   3.714  12.585 -0.0759 -0.1229  0.3286
13663W        W30511   8.604   8.081  16.766 -0.1535  0.1864  0.3423
13664W        W30512   4.705  12.599  16.643  0.1596  0.0438  0.3268
13665W        W30513   3.210   7.855   4.537  0.4898 -0.1150  0.0811
13666W        W30514   2.224   6.892  13.984  0.0100 -0.0499  0.0073
13667W        W30515  12.290  12.931  14.658 -0.2329 -0.1531  0.0045
13668W        W30516   5.850  15.638   5.623  0.1239  0.0786 -0.0018
13669W        W30517   1.854   3.109  13.578 -0.0083 -0.2138 -0.3629
13670W        W30518  16.077   9.777   2.774 -0.1011  0.1514 -0.3606
13671W        W30519  12.519  15.827   0.855 -0.0704  0.0073 -0.1375
13672W        W30520  11.984   0.437  15.115  0.0341 -0.1277  0.3303
13673W        W30521   1.447  14.039   1.679 -0.2388  0.2482 -0.1009
13674W        W30522   3.651  14.050   2.149 -0.1934  0.0959 -0.4526
13675W        W30523   7.685  13.910  16.806  0.1507  0.0847 -0.0390
13676W        W30524   6.067  15.868   0.264  0.0392 -0.0537  0.2747
13677W        W30525   7.249   3.923   2.444 -0.0221  0.0972 -0.1040
13678W        W30526  13.756   1.361  14.061 -0.3443 -0.0915 -0.2483
13679W        W30527  13.450   6.435   4.188 -0.0463  0.2090  0.1015
13680W        W30528  13.889   6.175  12.973 -0.1125  0.2041  0.0411
13681W        W30529  10.473   0.104   2.365 -0.2584 -0.3306  0.1512
13682W        W30530   1.097   5.715  16.054 -0.0447 -0.0072 -0.0571
13683W        W30531   6.622   6.367  16.362  0.0409 -0.0662  0.1323
13684W        W30532   9.275   4.051   1.275  0.0441 -0.5575 -0.0941
13685W        W30533  13.128   9.479   2.129  0.1118 -0.0416  0.0173
13686W        W30534   3.100   5.368  15.425 -0.1257  0.2608  0.0016
13687W        W30535   4.098  13.708   0.622  0.0855 -0.1617 -0.0322
13688W        W30536  11.601   6.042  16.354  0.2061 -0.3128 -0.2454
13689W        W30537  11.097  14.913   4.831 -0.0436  0.0275  0.0751
13690W        W30538   7.765   3.057  16.351 -0.0748  0.1408 -0.0453
13691W        W30539   4.798   1.974  15.383  0.2381 -0.0682 -0.2077
13692W        W30540  13.205  16.737   0.325  0.0301 -0.0502  0.1649
13693W        W30541   3.848   3.550  15.880 -0.1818  0.2161  0.2800
13694W        W30542   5.029  15.314   4.872 -0.0634 -0.2378 -0.1115
13695W        W30543   3.819  13.056   2.412 -0.2020 -0.1849  0.2244
13696W        W30544   9.990   9.977   4.792  0.0411  0.2646 -0.0330
13697W        W30545  11.481  16.844   0.069 -0.0775  0.1142 -0.0490
13698W        W30546  10.361  13.899   1.743  0.0918  0.0871 -0.0736
13699W        W30547   9.978  15.927   2.277 -0.1610 -0.0765  0.1268
13700W        W30548   3.610   0.855   6.022 -0.2535  0.0266 -0.1841
13701W        W30549   1.630  11.841   4.658 -0.5796  0.0746 -0.1497
13702W        W30550  16.128  11.534  14.648 -0.2903 -0.0561 -0.4038
13703W        W30551   8.488  15.477  15.592  0.2199  0.0981 -0.1384
13704W        W30552   6.703   2.268   5.135 -0.2171  0.2867 -0.0872
13705W        W30553   6.540   4.647  12.555  0.0184 -0.0419  0.2893
13706W        W30554  16.010   5.750   2.348  0.1298  0.1269  0.2020
13707W        W30555   4.444  12.157   5.476 -0.1004  0.0014 -0.0809
13708W        W30556  17.111  17.094   0.489  0.0702  0.2384 -0.1368
13709W        W30557  10.519   3.167  14.788 -0.1339 -0.0297 -0.1403
13710W        W30558   9.575  13.746   1.097  0.3779  0.2220  0.0955
13711W        W30559  13.766   7.962   5.356  0.0628 -0.0656  0.2530
13712W        W30560  16.061  14.370  12.266  0.1644  0.1171  0.0396
13713W        W30561   3.391   0.040   5.124  0.0356 -0.1390  0.1587
13714W        W30562   1.783  13.065   6.037 -0.1508 -0.0463  0.2636
13715W        W30563   4.352   0.019   4.136 -0.1465 -0.1676  0.0213
13716W        W30564   5.238   3.928  13.410  0.4100 -0.0163 -0.0543
13717W        W30565   5.920   2.553   4.110 -0.2455  0.0433  0.1961
13718W        W30566   1.551  12.205   2.953 -0.3573  0.0353  0.3297
13719W        W30567  13.277  12.306  12.491  0.1351 -0.1865 -0.0607
13720W        W30568   0.851  12.174  11.905  0.3593  0.0196  0.0307
13721W        W30569   0.716   7.588   4.432  0.0546  0.1398 -0.0051
13722W        W30570  13.582  13.797   4.035 -0.1721  0.2088 -0.2055
13723W        W30571   5.948   8.472  16.132  0.0276  0.2057 -0.2367
13724W        W30572   3.244  13.095   2.336  0.2860  0.2316  0.2111
13725W        W30573  16.714  15.987  17.410  0.2448  0.1785 -0.1775
13726W        W30574   7.219  12.481  13.512 -0.0932 -0.0635 -0.0346
13727W        W30575  16.882   9.322   5.115  0.0649 -0.3320 -0.0715
13728W        W30576  11.479   7.551  14.609 -0.3012  0.2469 -0.1905
13729W        W30577   2.320   9.430  16.530  0.1316 -0.1448 -0.5439
13730W        W30578  14.735   4.347  14.676 -0.0039  0.1787  0.1141
13731W        W30579  13.518   8.602  14.483 -0.1121 -0.2346  0.0885
13732W        W30580   6.864   9.535  15.271 -0.0202 -0.1305 -0.2071
13733W        W30581  15.757  14.766  13.650 -0.1503 -0.2172 -0.2473
13734W        W30582   3.944  14.979  14.524  0.0052  0.0778  0.3526
13735W        W30583  13.517   5.584   5.188 -0.0072  0.1792 -0.0604
13736W        W30584   5.093   8.458  17.622 -0.0828 -0.0356  0.0517
13737W        W30585  12.742   1.893   3.777  0.1964  0.0317 -0.0855
13738W        W30586  15.033   4.931   5.964  0.0042 -0.1004  0.2870
13739W        W30587  16.395   4.776   5.442 -0.0165  0.1097  0.0688
13740W        W30588   0.316   9.771   0.958 -0.4649  0.1240  0.1496
13741W        W30589   0.463   7.293  13.647 -0.2418 -0.1831 -0.0456
13742W        W30590  15.342   2.940  14.347 -0.0052 -0.2245 -0.3098
13743W        W30591  15.794   8.544  14.630 -0.0626  0.1474  0.0385
13744W        W30592  17.148   2.878   5.092  0.0586 -0.2079  0.0962
13745W        W30593   9.391   7.966  13.716  0.1214  0.1265 -0.0317
13746W        W30594   8.202   1.587  15.098 -0.0409  0.0627 -0.0798
13747W        W30595  15.114   1.028   5.857  0.2202 -0.1591  0.0409
13748W        W30596   0.535   2.784   1.612 -0.1187  0.0503 -0.0350
13749W        W30597   5.057  14.114   4.814  0.0443 -0.4294  0.0164
13750W        W30598  13.413   2.722   2.436 -0.1180 -0.1378 -0.2087
13751W        W30599   8.206   2.202  14.536 -0.1033 -0.0551 -0.1413
13752W        W30600  10.892   5.604  11.075  0.3772  0.1434 -0.2251
13753W        W30601  12.975   6.668  16.702 -0.1524 -0.0876 -0.2060
13754W        W30602  13.616  10.152  13.678 -0.2240 -0.2298 -0.1028
13755W        W30603  15.813   4.067  12.221 -0.0109 -0.2148  0.0861
13756W        W30604   2.304   0.727   2.976 -0.1174  0.1061  0.1788
13757W        W30605   2.951   2.619  16.141  0.1077  0.1165 -0.0000
13758W        W30606  11.231   1.586  15.787  0.1505  0.2831 -0.3089
13759W        W30607   1.378  15.021  14.314  0.2693  0.0152  0.1060
13760W        W30608   2.981   7.080   5.884 -0.4138 -0.0282 -0.0816
13761W        W30609  13.225   5.003   0.099 -0.2112  0.2749 -0.1730
13762W        W30610   7.352   2.366   1.447 -0.0767  0.0948  0.0010
13763W        W30611   2.809  11.957   3.849 -0.0180 -0.0963 -0.0060
13764W        W30612   1.464   8.646  14.614 -0.3594 -0.3112  0.3298
13765W        W30613  17.002   4.529  13.931 -0.0839 -0.0500  0.0051
13766W        W30614   3.287  14.530  12.592  0.0377 -0.0106 -0.1259
13767W        W30615   7.769   5.640  16.406 -0.0555 -0.0278  0.1138
13768W        W30616  14.188  11.040  13.230  0.0318  0.2271 -0.1587
13769W        W30617  12.530  15.946   1.306  0.1117 -0.2803 -0.0683
13770W        W30618  16.061  12.849   5.307  0.2730  0.0962 -0.1053
13771W        W30619  12.193   5.809   1.089 -0.0719  0.0935  0.0420
13772W        W30620   5.719  15.162  14.317 -0.1484  0.1306 -0.1320
13773W        W30621   2.816  16.063   0.056 -0.0451 -0.1682 -0.1452
13774W        W30622  12.453   1.804  12.949  0.0687 -0.2408  0.0811
13775W        W30623  11.401  10.098   1.832 -0.1226  0.1008 -0.0569
13776W        W30624  16.692   1.527   2.695  0.1465  0.0130  0.2246
13777W        W30625  16.669  15.665   4.219 -0.0209 -0.3163  0.0910
13778W        W30626  13.739  12.820   4.515  0.0502  0.2078 -0.1152
13779W        W30627   2.710   4.878   5.419 -0.0077 -0.0397 -0.1080
13780W        W30628   4.815  14.261  17.259 -0.0739  0.0336  0.0597
13781W        W30629   8.808  16.886   5.107  0.3824 -0.2223  0.2423
13782W        W30630   9.351  15.606  15.621 -0.1881 -0.0713 -0.0472
13783W        W30631  12.839  14.433   5.332 -0.0331  0.2435  0.0332
13784W        W30632  12.147  14.145  14.774 -0.2146 -0.0763  0.1406
13785W        W30633  13.400  11.909   4.045 -0.0123  0.1664 -0.1743
13786W        W30634   3.269   7.986  15.378 -0.0629 -0.0622  0.1556
13787W        W30635   4.120  10.183   0.610 -0.1852 -0.0388  0.1376
13788W        W30636   2.897   8.998   0.486 -0.0971  0.1227 -0.5066
13789W        W30637  12.275  13.916   3.627 -0.1338  0.3908 -0.0827
13790W        W30638  15.571   4.016   3.443 -0.2592 -0.2545  0.1842
13791W        W30639  14.341  10.917  16.773  0.0914 -0.0716  0.2279
13792W        W30640   1.446   6.198  13.979 -0.0632  0.0029  0.0462
13793W        W30641   1.586   3.000   3.288  0.0218  0.3129  0.1881
13794W        W30642  10.869  10.286  17.739  0.0839 -0.0312 -0.0628
13795W        W30643   0.393   1.558   0.064  0.1314 -0.1768  0.0823
13796W        W30644   5.536   5.004  14.679 -0.1402  0.1220 -0.0562
13797W        W30645  12.146  16.664  15.378  0.0404 -0.0114  0.1299
13798W        W30646  12.681   5.102  12.699  0.0656  0.0771 -0.0193
13799W        W30647   7.740   1.051  13.309 -0.0002 -0.0256 -0.2800
13800W        W30648  15.332   0.107  13.737  0.2255 -0.0439 -0.1466
13801W        W30649  12.923   9.620  13.443  0.2953  0.0233  0.1089
13802W        W30650  17.069  16.636   4.453 -0.1836 -0.1560  0.1169
13803W        W30651   3.656   2.726  13.469 -0.2194  0.3547 -0.1431
13804W        W30652   9.870   3.941  13.135  0.0335  0.0221  0.0702
13805W        W30653  10.237  15.264  15.134 -0.0406  0.1414 -0.1351
13806W        W30654   8.074  11.304  17.719 -0.0517 -0.1499 -0.0592
13807W        W30655  14.021   8.686  11.461  0.2109 -0.1206 -0.0230
13808W        W30656   7.828  11.597   5.180 -0.1746 -0.0241 -0.0241
13809W        W30657   1.466   9.873  17.701  0.0718 -0.1017 -0.1243
13810W        W30658   8.542  12.836  16.924 -0.2461 -0.0010 -0.0169
13811W        W30659  14.381   9.065   4.340 -0.1370  0.1139  0.0327
13812W        W30660  10.922   0.172   3.941 -0.1208 -0.1461 -0.1177
13813W        W30661  12.770   8.237  12.625  0.0265 -0.3445  0.0718
13814W        W30662   9.076  11.336   3.979 -0.3655 -0.2117  0.0284
13815W        W30663  16.866   2.703   3.343  0.4040  0.0487  0.1502
13816W        W30664  15.661  11.739   3.707  0.4252 -0.2229  0.0553
13817W        W30665   2.175   6.482   4.444 -0.1302  0.1790 -0.2163
13818W        W30666   6.466   1.062   2.168  0.3662  0.0722  0.0045
13819W        W30667  12.412   1.495  14.593 -0.3011 -0.1666  0.0582
13820W        W30668  16.449   6.413  15.278  0.0546  0.1337  0.2437
13821W        W30669   4.965   0.793  13.153 -0.1134 -0.1405 -0.2386
13822W        W30670   8.914  10.689   1.592  0.2381  0.2142 -0.3869
13823W        W30671  11.244   9.369  12.685 -0.1147  0.2785  0.0279
13824W        W30672  10.474  13.385  16.701  0.2149 -0.1573 -0.1835
13825W        W30673   0.187  13.782  13.139 -0.0291 -0.0289 -0.1106
13826W        W30674   9.217  12.692   1.006 -0.0789  0.0409 -0.0087
13827W        W30675   5.027   6.330   0.816  0.1056 -0.1095 -0.1021
13828W        W30676  15.312  10.952  15.605 -0.2378  0.2624  0.1604
13829W        W30677  10.827   8.276  15.014  0.1663 -0.2976 -0.2939
13830W        W30678  12.780  14.958  11.399 -0.2802  0.0115 -0.1958
13831W        W30679  15.586   5.103  16.092  0.2421 -0.1237 -0.0270
13832W        W30680  16.809   6.266   1.042  0.1420  0.0196  0.0789
13833W        W30681   7.408   5.786  14.392 -0.1796 -0.1529 -0.1035
13834W        W30682  13.885  11.230   1.794  0.2484  0.1571 -0.2724
13835W        W30683   1.462   2.322  17.102 -0.0254  0.4439 -0.0171
13836W        W30684  12.032  14.866  12.124 -0.2110 -0.1485  0.3438
13837W        W30685   9.960   4.189   1.941 -0.0625  0.0659 -0.3255
13838W        W30686   9.554   2.989  16.117 -0.1996  0.0787  0.2785
13839W        W30687  14.149   6.306   3.111 -0.0229  0.0014  0.2763
13840W        W30688   1.252   8.379   4.577 -0.3171 -0.2051 -0.0481
13841W        W30689   0.909  15.813   2.893 -0.1455 -0.2381 -0.0206
13842W        W30690  14.184  16.252   4.227  0.1737 -0.0014 -0.2247
13843W        W30691   3.326   9.998   2.445 -0.1622 -0.1755  0.0591
13844W        W30692  13.074   7.473   6.294  0.1168  0.0939 -0.2815
13845W        W30693  14.045  12.937  17.297 -0.0078 -0.1625 -0.3838
13846W        W30694  14.201   5.382   1.910 -0.0992 -0.1426  0.1352
13847W        W30695   2.369  10.492  14.529 -0.4073 -0.0279 -0.0571
13848W        W30696   8.526   8.690   6.630 -0.1244 -0.0171 -0.1874
13849W        W30697   3.772  14.304  12.584 -0.2850 -0.0853 -0.1683
13850W        W30698  11.013  15.702   5.495  0.1114 -0.2613  0.1362
13851W        W30699   5.941  12.308   1.047  0.2937  0.0744 -0.0056
13852W        W30700   9.364   2.384   1.098  0.1841  0.0543  0.1240
13853W        W30701   4.644  12.283  14.747 -0.0570 -0.0548 -0.3761
13854W        W30702  14.225   5.257   2.842  0.1198  0.1182  0.1219
13855W        W30703  13.635   0.102  15.617  0.1010 -0.0065 -0.1480
13856W        W30704   4.451  16.207   0.921 -0.1164 -0.4562  0.1547
13857W        W30705  14.173  15.792   3.913 -0.4759  0.0245 -0.0396
13858W        W30706   5.220   1.433   3.896  0.0500 -0.1044 -0.1269
13859W        W30707   4.892   1.402   4.298  0.1722 -0.0466  0.3499
13860W        W30708   0.519  15.072  15.923  0.1158 -0.0486  0.1673
13861W        W30709  10.801   1.288   3.347 -0.1906 -0.4151 -0.0053
13862W        W30710   1.424   2.934  13.912  0.4462 -0.1118  0.1873
13863W        W30711  14.694  14.183  14.316 -0.1210  0.1766  0.3499
13864W        W30712  11.845   1.073  14.051 -0.4770 -0.1526 -0.1752
13865W        W30713   7.776   3.541   3.133 -0.1863  0.0044 -0.2240
13866W        W30714  11.610  11.671  17.386 -0.2057  0.0611 -0.2263
13867W        W30715   1.011  15.890  16.814 -0.0495  0.1129  0.1399
13868W        W30716  13.615   0.335   2.686  0.3099  0.0401  0.1209
13869W        W30717   2.035  14.512  15.308 -0.0623  0.1514 -0.3098
13870W        W30718   8.471  10.337  17.158 -0.0672  0.4372  0.1356
13871W        W30719   3.140   4.406   0.759  0.1107 -0.2401  0.3530
13872W        W30720   6.506   6.312   2.261 -0.1145  0.0537 -0.2245
13873W        W30721   8.801   8.133   4.872 -0.1325 -0.3185 -0.0050
13874W        W30722  13.335   2.646  17.163 -0.2680  0.2902  0.1505
13875W        W30723  15.512  14.356   3.090  0.0717 -0.0088  0.1921
13876W        W30724   8.614  15.038   5.208  0.3161  0.2460  0.2333
13877W        W30725  14.589   6.505   5.152  0.1878  0.1274  0.2775
13878W        W30726   9.277   4.442   0.366 -0.2486 -0.0636  0.1508
13879W        W30727   0.110  10.381   6.064 -0.1140  0.0508 -0.1201
13880W        W30728   1.416  13.781  14.664 -0.1040  0.2947 -0.0506
13881W        W30729   8.857   3.153   0.966 -0.1712  0.1133 -0.2766
13882W        W30730  14.459  12.907  14.755  0.3837  0.1608  0.0850
13883W        W30731  16.467  14.979   2.080  0.3705 -0.0205 -0.2161
13884W        W30732  12.633   9.139   3.976 -0.2294 -0.1910 -0.0220
13885W        W30733   7.132  14.618   4.405 -0.0308  0.0646  0.0076
13886W        W30734   0.098  11.209   1.113 -0.3590 -0.1570 -0.0284
13887W        W30735   6.725   7.708   1.493 -0.0710 -0.0138  0.2945
13888W        W30736   1.042   2.787  15.921  0.4209 -0.0826  0.1326
13889W        W30737   2.806   8.949  14.843  0.0675 -0.1487  0.0878
13890W        W30738  15.669  14.857   3.823 -0.0494 -0.1556 -0.4189
13891W        W30739   4.089   4.533   4.162  0.1495 -0.1227 -0.0088
13892W        W30740  14.313   4.270   3.269 -0.0641 -0.0746  0.3102
13893W        W30741   0.762  10.391  14.303 -0.1337 -0.2354  0.2074
13894W        W30742  14.105   4.856  16.305  0.2138 -0.2894 -0.0278
13895W        W30743   0.509   6.888   0.702  0.0907  0.1453 -0.0245
13896W        W30744  15.506   0.589   4.160 -0.0621 -0.0678 -0.1468
13897W        W30745   9.549  13.824  16.000  0.0352 -0.1512  0.3512
13898W        W30746  13.299   7.075   4.892 -0.0527  0.0814  0.0026
13899W        W30747   5.139  11.550   2.081 -0.1273 -0.0701 -0.2978
13900W        W30748  17.085   1.693  13.614 -0.1566 -0.0743  0.1004
13901W        W30749  13.710   9.805  14.850  0.0216  0.1247 -0.0547
13902W        W30750   9.755   0.055   1.165 -0.0084 -0.0092 -0.1100
13903W        W30751  14.831   1.323  15.182 -0.0820 -0.2724 -0.0733
13904W        W30752   9.880  10.157   0.499  0.0359 -0.0083  0.0549
13905W        W30753  15.266  11.343   0.188 -0.0828 -0.1027  0.0930
13906W        W30754  14.945   7.937  12.866 -0.1648  0.2672 -0.0064
13907W        W30755   0.929  16.860   2.562  0.2013 -0.1591  0.1068
13908W        W30756   3.871   5.987  12.312  0.2398  0.2010 -0.0251
13909W        W30757  12.124   6.512   1.624  0.2457 -0.4370  0.1406
13910W        W30758  14.714  12.731  17.488 -0.0608  0.1439 -0.2506
13911W        W30759  13.572   0.645  13.830 -0.0303 -0.1854  0.0967
13912W        W30760   5.719   7.481   5.315  0.2252  0.1399  0.2250
13913W        W30761   6.858   5.793  14.380  0.0474  0.0131 -0.0194
13914W        W30762   9.904   7.999  13.719 -0.1267 -0.0353  0.2453
13915W        W30763   4.950  10.301   0.349  0.0602 -0.0161 -0.1539
13916W        W30764   8.084  14.583  16.093 -0.0567  0.1139 -0.2120
13917W        W30765  14.187   9.250  12.899 -0.3728 -0.5382  0.1817
13918W        W30766   4.741   2.187   5.421  0.1927  0.0332  0.4049
13919W        W30767   8.454   2.473   3.724 -0.2503 -0.0629 -0.1015
13920W        W30768  16.707  15.365   3.397 -0.0533 -0.0227  0.1066
13921W        W30769   6.965   2.244  14.129 -0.0982  0.5074 -0.1409
13922W        W30770  13.026   8.429  16.939  0.0928 -0.4291 -0.0991
13923W        W30771  13.563  16.222   4.426 -0.0601 -0.4416 -0.4975
13924W        W30772   0.421  11.611   1.967 -0.0609  0.1313 -0.0633
13925W        W30773  12.134  14.094   1.238  0.2070  0.3772  0.2390
13926W        W30774  17.143   8.128   4.258 -0.1137 -0.1558 -0.2102
13927W        W30775  11.404  11.309   2.716  0.1503  0.0433 -0.0647
13928W        W30776  16.992  16.433  17.477 -0.1162 -0.1082 -0.0224
13929W        W30777  11.070   5.682   5.375 -0.2179  0.2291 -0.0255
13930W        W30778  13.923  16.339  15.984 -0.2522 -0.2249 -0.0080
13931W        W30779  11.213   7.974  12.406  0.0007  0.1531 -0.0043
13932W        W30780   7.873  17.017  14.689 -0.0321 -0.1498  0.0876
13933W        W30781  15.107  16.361   4.721 -0.2898 -0.1704 -0.2164
13934W        W30782   8.964   9.291   4.895  0.2701 -0.0084 -0.0458
13935W        W30783   0.737   4.120  15.307  0.2062  0.3158 -0.0347
13936W        W30784   7.458   5.349  12.666 -0.0747 -0.1134  0.2394
13937W        W30785   3.554  14.602   0.142 -0.1284  0.3283 -0.0359
13938W        W30786  16.285  17.106   1.809 -0.2557 -0.1085 -0.1237
13939W        W30787   6.872   8.270   3.840  0.2054  0.2822  0.1378
13940W        W30788  13.203  14.910   3.337  0.2285  0.1177 -0.1619
13941W        W30789   3.191  16.732  13.031 -0.0599 -0.1267 -0.1716
13942W        W30790   3.789   0.429   5.225 -0.2470 -0.1607 -0.1061
13943W        W30791  10.294   0.344  17.771  0.4804  0.1944  0.1461
13944W        W30792   2.974  14.738  13.571  0.1125 -0.1435 -0.1194
13945W        W30793   0.316  11.573  14.738 -0.1212  0.0322  0.4255
13946W        W30794   2.009  10.934  17.463  0.2381 -0.0640  0.0732
13947W        W30795   8.341   0.926   4.472 -0.0924  0.0149  0.2777
13948W        W30796  15.345  15.377   4.859 -0.3346  0.0569  0.1394
13949W        W30797  17.067  11.286   2.966  0.1625 -0.0571 -0.1293
13950W        W30798  11.830   0.976  15.002 -0.0436  0.0194  0.1210
13951W        W30799  16.137  14.365  14.798  0.0159  0.0137  0.1483
13952W        W30800   0.514   8.813  16.681 -0.1501 -0.1333 -0.0139
13953W        W30801  15.763   4.516  17.023  0.2737 -0.2102  0.0546
13954W        W30802   6.531   5.864   2.446  0.1574 -0.2306  0.0994
13955W        W30803  10.433   5.407  12.987  0.0746 -0.0689 -0.2577
13956W        W30804   4.520   1.719  14.476  0.1593 -0.0615  0.2097
13957W        W30805   7.806   7.440   1.959  0.2420 -0.1488 -0.0673
13958W        W30806  16.803   9.937   2.284 -0.0692 -0.0109  0.3101
13959W        W30807   0.665   6.591  16.487  0.3969 -0.0906  0.1300
13960W        W30808   5.981   8.458   4.347  0.0882  0.0433  0.0935
13961W        W30809   2.384  16.171   3.984 -0.1328 -0.2202  0.0144
13962W        W30810  16.199   7.380   0.340  0.1271  0.1805 -0.1172
13963W        W30811   2.767   6.818   1.418 -0.1259 -0.1060  0.0445
13964W        W30812  10.075   2.925  14.798  0.1404 -0.4809  0.3479
13965W        W30813  14.989  13.099   3.862 -0.1717 -0.1619 -0.0697
13966W        W30814   9.868   5.412   0.650  0.0917 -0.2643  0.0971
13967W        W30815   0.376  10.290  15.651  0.1878  0.2358  0.0471
13968W        W30816   2.016  17.038   0.571  0.0154  0.3702  0.2550
13969W        W30817   2.635   8.302  12.999  0.4286  0.2086  0.0690
13970W        W30818   2.651  13.275  12.324 -0.0819 -0.1092 -0.1138
13971W        W30819  15.626  15.416   4.386  0.0550  0.3863  0.3617
13972W        W30820   5.037   6.849  12.355  0.0939  0.6431 -0.1109
13973W        W30821   5.723   7.437   2.834 -0.1103  0.2730  0.0668
13974W        W30822   5.179   8.333   0.344 -0.2537 -0.1092  0.0440
13975W        W30823   2.042  12.875   4.899 -0.0262 -0.0034 -0.0959
13976W        W30824  14.073   7.116  12.760 -0.0834  0.1389 -0.2332
13977W        W30825   5.869   3.014   4.185 -0.4436 -0.1840 -0.1807
13978W        W30826  10.882   1.010   3.794  0.0210  0.2503 -0.1539
13979W        W30827  13.591   0.915  14.322  0.2668  0.0624  0.2372
13980W        W30828  14.174  15.580  14.016 -0.0420  0.1686  0.1482
13981W        W30829   5.816   9.731   3.762 -0.0357  0.2093 -0.0887
13982W        W30830   4.889  16.664   1.898 -0.2749  0.0841  0.0347
13983W        W30831   0.280  16.855  16.029 -0.1165 -0.1019  0.1427
13984W        W30832  10.865  16.638  15.545  0.0337 -0.0780 -0.1567
13985W        W30833  13.342   3.618   2.026 -0.0637 -0.2584 -0.0045
13986W        W30834  10.068   0.455  17.310  0.1834 -0.0354 -0.3809
13987W        W30835   9.232   1.147  17.116  0.1292  0.2924 -0.3078
13988W        W30836   7.722  11.198   3.247 -0.2175  0.3457  0.1585
13989W        W30837   0.627  16.393  13.520  0.0775 -0.0733 -0.0488
13990W        W30838   1.522  16.960   5.306 -0.0207 -0.0506  0.4528
13991W        W30839   5.837  14.831   4.823 -0.0338  0.0835  0.0851
13992W        W30840  12.076   9.245   2.142 -0.4712  0.1421  0.1311
13993W        W30841  14.016   1.169   3.103  0.2067 -0.3701 -0.0029
13994W        W30842   1.347  10.264  15.656 -0.0294  0.0308 -0.2950
13995W        W30843   7.618   5.824   0.829 -0.2600  0.3477 -0.2170
13996W        W30844   9.207   8.275  16.709  0.2129  0.0194  0.2256
13997W        W30845   5.919  11.833  16.648  0.0348 -0.0199 -0.0905
13998W        W30846   4.225  10.128  13.559 -0.2462 -0.1017 -0.2036
13999W        W30847   5.103  12.209   1.199  0.4233  0.1122 -0.1645
14000W        W30848   1.273   2.481  12.678 -0.1960 -0.1311  0.0695
14001W        W30849   7.997   5.304  14.832 -0.1294  0.2529 -0.0132
14002W        W30850   7.164   5.136   1.116 -0.2970  0.1700 -0.0655
14003W        W30851   7.397  15.020  17.510  0.1576  0.1050  0.1291
14004W        W30852   5.064   5.390   0.957  0.0433  0.0172  0.0182
14005W        W30853   8.252   6.172   5.651 -0.2165 -0.1622  0.1493
14006W        W30854   1.517   2.604  14.265 -0.2976 -0.1445 -0.0040
14007W        W30855   5.371  10.712   6.073 -0.0478 -0.0023  0.2215
14008W        W30856   5.026   0.967  15.603 -0.1231  0.0668 -0.1400
14009W        W30857  13.752   4.731  14.390  0.1080  0.2280  0.1493
14010W        W30858   9.141  11.571  12.645  0.1044  0.2605 -0.1029
14011W        W30859   0.356   2.918   3.558  0.2453 -0.0474 -0.0796
14012W        W30860   4.594   0.476  17.481 -0.0403 -0.2600  0.0422
14013W        W30861  12.106  12.858  17.072  0.0494 -0.1260  0.0211
14014W        W30862   2.166   2.087  14.700  0.1048  0.3318  0.3175
14015W        W30863   3.828   2.674   4.045  0.1668  0.0538 -0.2318
14016W        W30864   7.907   6.525  16.851 -0.1732  0.0378  0.1177
14017W        W30865  15.586  10.851   5.487 -0.0062  0.3927 -0.2115
14018W        W30866   4.838  10.593   6.081 -0.1625 -0.2298 -0.6304
14019W        W30867  16.741  14.972  13.505  0.2485 -0.1074 -0.1435
14020W        W30868   0.745   5.045   2.683 -0.0866 -0.0207 -0.0944
14021W        W30869  13.964   3.996   0.178 -0.0132 -0.0172  0.0690
14022W        W30870   2.108  16.295   0.431  0.0167 -0.1951  0.1469
14023W        W30871  16.883  17.133  12.939 -0.0833 -0.2913 -0.2290
14024W        W30872   4.912  13.434   4.117  0.2055  0.2232 -0.1462
14025W        W30873   2.713   6.098  14.442  0.0099  0.0509 -0.2435
14026W        W30874  16.796  10.675  17.396 -0.2096  0.0563 -0.0258
14027W        W30875   2.540   7.518   3.080 -0.2600 -0.1344  0.2896
14028W        W30876  14.593   4.390  14.080  0.0101 -0.1302  0.0971
14029W        W30877   7.330   8.360   2.363  0.1778 -0.0731 -0.0118
14030W        W30878   6.402   4.425  13.049  0.3212 -0.0561  0.0182
14031W        W30879  11.094  10.517  16.738 -0.3446  0.0876 -0.2273
14032W        W30880   3.158   8.695  13.907  0.0177 -0.2029  0.1892
14033W        W30881   5.713   8.380  16.677  0.2334 -0.1694  0.1501
14034W        W30882   7.623  15.993   3.522 -0.1090 -0.1092  0.1171
14035W        W30883   3.679   8.180   5.848 -0.3940 -0.0834 -0.1776
14036W        W30884  12.089   2.755  14.764 -0.0939 -0.1351  0.2960
14037W        W30885   2.869   6.582   0.894 -0.1620  0.1033  0.3454
14038W        W30886  11.924   7.645   1.124  0.1805  0.1730  0.0320
14039W        W30887  11.040   6.102   3.025 -0.0495 -0.3079 -0.0647
14040W        W30888  13.159   2.603  17.599 -0.1190  0.1779  0.1703
14041W        W30889   1.378  14.821   1.099 -0.1477 -0.0667  0.2745
14042W        W30890   5.233   8.537   2.258  0.1423  0.0362  0.1392
14043W        W30891  11.306   7.690   3.046 -0.2344 -0.0771  0.0760
14044W        W30892  10.481   0.179  17.211  0.1671 -0.4760  0.0048
14045W        W30893  17.057  12.977   1.417 -0.1584  0.1780 -0.2481
14046W        W30894  11.068   3.263  16.075  0.2055  0.0948  0.0944
14047W        W30895   8.833   9.936  16.915  0.0565  0.0574  0.1017
14048W        W30896   7.827  10.580  14.100 -0.0331 -0.0414  0.0483
14049W        W30897  11.694   2.341   2.437 -0.0619  0.0852 -0.0294
14050W        W30898  13.174   8.208   1.853 -0.2752  0.0827  0.1325
14051W        W30899  15.014  12.131   0.839  0.0098  0.1869 -0.1736
14052W        W30900   6.437  12.977  15.286 -0.2060 -0.2115 -0.0314
14053W        W30901  10.502  15.285   2.852  0.0981 -0.1996 -0.1563
14054W        W30902   2.512  13.323  14.493 -0.0347  0.1006  0.2316
14055W        W30903  14.522  16.892  12.925 -0.2273 -0.3618 -0.2361
14056W        W30904  12.845  12.521  12.800  0.0969  0.2222  0.1192
14057W        W30905   6.132   4.241  14.125 -0.1382 -0.2005 -0.2792
14058W        W30906  12.501  10.169   0.123  0.2712  0.1081  0.1960
14059W        W30907   7.492  16.287   4.895 -0.0529  0.3892 -0.1236
14060W        W30908  10.171  12.673  12.665 -0.1703  0.0205 -0.0559
14061W        W30909   2.203   3.736   1.149 -0.2947  0.0359  0.3047
14062W        W30910   8.975   5.774   2.875  0.0000 -0.1023  0.2534
14063W        W30911   7.136   5.316   0.229 -0.0472 -0.0528  0.3623
14064W        W30912  13.681   1.061  17.192 -0.0348 -0.1464 -0.2692
14065W        W30913   1.723   9.674  13.584  0.1711 -0.1229 -0.1701
14066W        W30914   5.020   7.359   0.091  0.2327  0.0078 -0.3551
14067W        W30915   6.668   8.509   0.687 -0.2265  0.1379 -0.0111
14068W        W30916   9.519   7.467  12.120 -0.3125 -0.0934  0.0310
14069W        W30917  15.114  14.228   4.414  0.2446 -0.0225 -0.1345
14070W        W30918   4.234  15.744  13.947  0.2773  0.0507 -0.0355
14071W        W30919   6.147  13.959   5.644  0.3167  0.1730 -0.0505
14072W        W30920   6.831  10.211  12.426 -0.1889  0.0083  0.0047
14073W        W30921  12.622   7.472   1.767  0.1000 -0.1489 -0.0586
14074W        W30922   4.292   2.270   3.929  0.0777 -0.2164  0.3956
14075W        W30923  15.677   3.931   2.373 -0.1093 -0.0404 -0.0223
14076W        W30924   8.076   5.660  15.689 -0.1795  0.1944 -0.1306
14077W        W30925   2.312  13.436  13.506 -0.1223 -0.1465 -0.4450
14078W        W30926  10.906  14.839   5.818 -0.0496 -0.1577  0.0231
14079W        W30927   3.044   8.862  17.246  0.5091  0.0106 -0.0800
14080W        W30928  17.129  10.428  13.986  0.0987 -0.1266 -0.3813
14081W        W30929   9.296  11.939   5.333 -0.1370  0.2448  0.0296
14082W        W30930   5.331   1.740   2.891 -0.0127  0.0989  0.0898
14083W        W30931  15.061   2.166  12.073 -0.2789 -0.1168 -0.0548
14084W        W30932  10.948   8.974   3.153 -0.0465  0.4227  0.3606
14085W        W30933   3.826  10.497   5.112 -0.3508 -0.0633 -0.2158
14086W        W30934   5.643  15.504  16.169 -0.0749 -0.2823  0.0250
14087W        W30935  16.148   3.476  17.117  0.0281 -0.2389 -0.0248
14088W        W30936  17.080   8.929   4.802  0.2025  0.1572  0.4472
14089W        W30937   7.267   0.067   2.622 -0.3455  0.1103  0.0343
14090W        W30938   2.554  16.095  13.479 -0.0250 -0.0272 -0.3859
14091W        W30939   5.710   5.971  12.437 -0.0334  0.2089 -0.0355
14092W        W30940  12.539   3.984   5.757 -0.0239  0.0654  0.2861
14093W        W30941  14.794   5.245  12.700 -0.0815  0.0492  0.3390
14094W        W30942   6.218  15.986   4.890 -0.1087  0.1215 -0.0928
14095W        W30943   1.110   5.023  14.383  0.0959  0.0650 -0.1289
14096W        W30944  10.167   8.035  15.918 -0.1363 -0.2158  0.0179
14097W        W30945  13.203   4.161   5.151 -0.1656 -0.3498 -0.1809
14098W        W30946   6.761   7.724  13.321  0.0033 -0.1730  0.0144
14099W        W30947  15.042   6.422   2.543 -0.0502  0.0565 -0.0908
14100W        W30948   9.706   7.082   4.948 -0.1020 -0.3087 -0.0896
14101W        W30949   9.766   5.399  13.002  0.0019  0.0767 -0.1368
14102W        W30950  16.016   0.286  14.871  0.2061 -0.4041 -0.0723
14103W        W30951   3.768   1.771   1.264 -0.1580 -0.0206  0.1909
14104W        W30952   0.367  10.057   1.344 -0.2269 -0.0035  0.1599
14105W        W30953   7.511  13.720  15.827  0.2936 -0.3952  0.0616
14106W        W30954   9.428   0.971   5.503 -0.2050  0.2209 -0.1341
14107W        W30955   0.196   5.274   2.523 -0.1124  0.1665 -0.0417
14108W        W30956  15.652   8.922   1.227  0.1408  0.2720  0.0851
14109W        W30957   3.592   4.897  12.947  0.1786  0.0067  0.1133
14110W        W30958   1.780  16.256   2.733  0.1772  0.0369  0.0951
14111W        W30959   0.043   6.564  14.891 -0.1086  0.1063  0.0749
14112W        W30960   8.041   0.247  13.135 -0.0089  0.0004  0.1552
14113W        W30961  12.395  10.157   0.627 -0.1662 -0.0504 -0.0252
14114W        W30962   0.045  14.376   1.145  0.0687 -0.0652 -0.0623
14115W        W30963   2.320  11.788  16.376 -0.1192  0.1231  0.1835
14116W        W30964   8.364   1.935   1.572 -0.2760 -0.0917 -0.1729
14117W        W30965   0.639   0.923   1.929 -0.1859 -0.1691  0.2389
14118W        W30966  11.112   5.632   3.178  0.0688 -0.2421 -0.0311
14119W        W30967   2.612  11.246   3.608  0.0856  0.3911 -0.1769
14120W        W30968   4.478   2.525  16.459 -0.2055 -0.1966  0.0760
14121W        W30969   2.766   2.703   2.503  0.3725 -0.0803  0.1415
14122W        W30970  10.518   4.108   2.262  0.4266  0.2310  0.0168
14123W        W30971  10.030  10.641   1.366  0.0794 -0.2153  0.0828
14124W        W30972   1.638   3.810   1.600  0.0440  0.1910 -0.0004
14125W        W30973   2.050   5.100   0.177 -0.0608 -0.3441 -0.1998
14126W        W30974   8.995  10.864   3.297  0.1973 -0.0310 -0.1748
14127W        W30975   5.657  13.097  13.990  0.1617  0.0256  0.0859
14128W        W30976   0.686   8.841  13.728  0.1607 -0.3271 -0.2184
14129W        W30977  16.466   5.926   0.369  0.0899  0.1435  0.0764
14130W        W30978   5.236   9.587  17.493  0.0145  0.2356 -0.1227
14131W        W30979  12.417   8.267  15.031 -0.1434 -0.0969 -0.2848
14132W        W30980  13.170  13.119  13.830  0.0334  0.2037  0.2554
14133W        W30981  10.579   2.708   1.232 -0.0748 -0.1140  0.1697
14134W        W30982   4.222  10.762  13.261  0.0370 -0.2802 -0.1081
14135W        W30983   7.982  12.112  15.233 -0.1119 -0.1482 -0.2387
14136W        W30984  11.400   3.033   3.470 -0.0617  0.2093  0.1657
14137W        W30985  14.382   1.284   2.774 -0.4592 -0.0459 -0.1500
14138W        W30986   5.737  11.264  16.270  0.0285 -0.1581 -0.0465
14139W        W30987  16.324   9.912  15.440  0.2215 -0.3160  0.2690
14140W        W30988  12.112  12.077  13.415  0.1027  0.0279 -0.2489
14141W        W30989  16.789  14.109   3.454  0.2223  0.1125 -0.3664
14142W        W30990   9.741  15.876  13.184 -0.1231  0.1538 -0.2079
14143W        W30991   8.290   3.715  16.724  0.0621 -0.0151 -0.0037
14144W        W30992   0.465   7.200   3.190  0.1086 -0.0243 -0.0777
14145W        W30993   5.853   4.714  12.519  0.2002  0.1993  0.2619
14146W        W30994   6.277  11.499   0.913  0.0418 -0.2036 -0.0823
14147W        W30995   7.678   1.007  13.791 -0.2447 -0.2071  0.2828
14148W        W30996   0.672   8.983   1.699  0.1331  0.1620  0.1336
14149W        W30997  13.289  14.237  12.356  0.0260  0.1945 -0.1137
14150W        W30998  12.154   1.305   1.056  0.2277 -0.0548 -0.0981
14151W        W30999  12.485  16.428   2.631  0.2047  0.1738  0.0499
14152W        W31000   7.741   9.465  14.251 -0.1507  0.0482  0.1359
14153W        W31001  11.327   2.282  13.525  0.3464  0.2618  0.0590
14154W        W31002   4.036   7.216   2.904 -0.2126  0.1045 -0.2834
14155W        W31003  13.636   5.793  13.487  0.0005  0.0185 -0.0224
14156W        W31004   7.380  14.367  14.600 -0.0824  0.2356  0.1938
14157W        W31005  15.720   8.572  13.549 -0.2525  0.0988  0.1335
14158W        W31006  16.843  16.682   3.946 -0.2364  0.0465 -0.2442
14159W        W31007   7.609   0.906   0.260  0.1182  0.0198 -0.1894
14160W        W31008  12.877   1.706   3.298  0.1759 -0.1732  0.1018
14161W        W31009   9.471   3.791   3.642  0.1841 -0.0851  0.1362
14162W        W31010   6.367  10.365   0.535  0.1923  0.0593 -0.2380
14163W        W31011   5.664  14.704   4.110  0.0173 -0.1317 -0.1177
14164W        W31012   3.992  14.137   4.810  0.0214 -0.1216 -0.1162
14165W        W31013  15.361  11.525  15.646 -0.1220  0.2385 -0.0532
14166W        W31014   5.503  11.728  14.782 -0.4162 -0.2248 -0.2050
14167W        W31015   8.909  10.757  16.130 -0.2068 -0.1231 -0.2801
14168W        W31016  12.446  17.077   5.359 -0.0632  0.1472 -0.1944
14169W        W31017   0.764   8.804  12.844  0.3767 -0.1334  0.0391
14170W        W31018  16.328   2.181  16.528  0.1915  0.5480 -0.1974
14171W        W31019  14.290   4.774   4.600 -0.1228 -0.0948 -0.2518
14172W        W31020  12.370   3.896  14.624 -0.2745  0.0815  0.0958
14173W        W31021   5.124   2.076  14.610  0.0401 -0.2798  0.3702
14174W        W31022   7.328  14.246   2.953  0.1143  0.1657  0.0584
14175W        W31023   8.444   2.931  13.235 -0.2203  0.2531  0.1715
14176W        W31024   1.052   7.352  15.953  0.0206 -0.1127 -0.4386
14177W        W31025   0.786   0.310  16.419 -0.1895  0.1372 -0.1975
14178W        W31026   9.980  15.158   0.082  0.0519  0.1573 -0.2104
14179W        W31027  10.502   9.984  12.361  0.0032  0.2325  0.0230
14180W        W31028  16.077  11.899   3.948  0.0973 -0.0469 -0.3600
14181W        W31029   3.799   9.327   4.694 -0.2227 -0.0194  0.0020
14182W        W31030  11.363   3.453   3.886  0.1178 -0.1062 -0.0610
14183W        W31031  13.609  10.413   3.623 -0.1380 -0.2793 -0.0024
14184W        W31032   6.086   9.955  13.345 -0.3639  0.0628  0.0491
14185W        W31033   9.869   9.215  13.533 -0.0535  0.2473  0.0263
14186W        W31034  16.917   0.559  15.524 -0.2480 -0.2220 -0.0787
14187W        W31035   4.110   7.917   0.431 -0.0120 -0.1181  0.2543
14188W        W31036  13.127  10.677   5.033 -0.0239  0.1201 -0.0685
14189W        W31037  12.711   6.372  12.532 -0.0383 -0.1850 -0.2960
14190W        W31038   8.847   7.896  12.834 -0.1205  0.0275  0.0871
14191W        W31039   4.471   5.341   4.111 -0.1948 -0.0460 -0.2408
14192W        W31040  16.397   3.872  14.430 -0.1563  0.1100 -0.0099
14193W        W31041   5.840  11.759  12.780  0.1102 -0.1521  0.1049
14194W        W31042  12.103   1.660   1.389 -0.2131  0.0898  0.0929
14195W        W31043   5.902  15.127   3.460 -0.0536  0.1169  0.3814
14196W        W31044   3.003  10.524   2.663 -0.2025  0.1975 -0.3497
14197W        W31045  12.686   0.139   2.366 -0.2460 -0.2279  0.0253
14198W        W31046   0.128  13.990   2.433  0.3675  0.0296 -0.1765
14199W        W31047  13.205  13.119   0.219  0.1797 -0.0522 -0.2355
14200W        W31048   1.296  15.518   2.709  0.0391 -0.2050  0.2188
14201W        W31049  15.899   4.291   0.367  0.2404  0.0428  0.3725
14202W        W31050   8.887   9.768  16.460  0.0152  0.1130  0.1454
14203W        W31051  11.967   7.720   3.311  0.0299 -0.1716  0.0725
14204W        W31052   1.315  10.621   3.336  0.2220  0.2087 -0.0487
14205W        W31053  16.340  15.960  16.143 -0.1657 -0.0338  0.1431
14206W        W31054  13.879  11.413  13.058  0.3436  0.3832 -0.1556
14207W        W31055  14.128   8.757   4.719  0.2791  0.1513  0.2646
14208W        W31056  13.922   0.265   3.146 -0.1231  0.0449  0.1791
14209W        W31057   6.403  16.896   1.906  0.2488 -0.2868  0.0964
14210W        W31058   1.814   2.702   3.590 -0.0857  0.0887  0.1713
14211W        W31059   8.220  16.410  16.683  0.0909  0.2216 -0.5185
14212W        W31060   6.817   8.272   1.724 -0.0002  0.0347 -0.1194
14213W        W31061   0.203  10.783   5.740 -0.0669 -0.2082  0.0115
14214W        W31062   2.837   6.859   2.384 -0.0464  0.1234  0.2851
14215W        W31063  12.754  12.086  15.362  0.2199  0.1415 -0.2717
14216W        W31064  14.640   7.297  12.786  0.0750 -0.0226 -0.0142
14217W        W31065  12.869  11.378   3.351 -0.0044 -0.0419 -0.0244
14218W        W31066   2.592   4.629   4.423  0.2088 -0.2240  0.2227
14219W        W31067   4.012   1.328  12.689  0.0364 -0.0975  0.2123
14220W        W31068  10.179   4.100  16.002 -0.4221  0.1696  0.0525
14221W        W31069  10.301   9.695   3.136  0.0984  0.0595  0.1035
14222W        W31070   6.233  13.660   1.166  0.1013 -0.1366  0.1952
14223W        W31071  12.462   9.645   3.409 -0.4110 -0.2129 -0.1071
14224W        W31072   3.493   7.055   2.059 -0.2703  0.3253 -0.3469
14225W        W31073  10.961   3.951   1.043  0.2778  0.3009 -0.0633
14226W        W31074   9.464   1.558  17.422  0.2944 -0.1228  0.1039
14227W        W31075  13.128  15.687  16.293  0.0110  0.2030 -0.2728
14228W        W31076  12.762  16.002   2.800 -0.1479  0.0284  0.0177
14229W        W31077   0.959   9.599  16.191  0.1306 -0.0651 -0.1986
14230W        W31078  12.422   3.987   2.010  0.0528 -0.0371 -0.0184
14231W        W31079  15.454  13.310  11.785  0.2724 -0.0610 -0.1091
14232W        W31080   1.793   9.801   2.438 -0.3352  0.0768  0.0229
14233W        W31081   3.715   3.901   3.205 -0.0771 -0.2309  0.0750
14234W        W31082   7.080  13.139  12.553  0.0328 -0.0877  0.2896
14235W        W31083  16.430   2.423   4.055 -0.2934 -0.2131 -0.0378
14236W        W31084   9.014   8.348  13.011 -0.0494 -0.2519  0.2852
14237W        W31085  11.631   1.411  12.666  0.2744 -0.0076  0.1776
14238W        W31086   7.532  16.791   0.831 -0.0780  0.1392 -0.3170
14239W        W31087  11.869  12.739   6.204  0.1261 -0.0522  0.1561
14240W        W31088  14.527   9.374   6.454 -0.1791  0.0068  0.0549
14241W        W31089  10.416   6.734  16.015 -0.0349  0.0936 -0.0644
14242W        W31090   8.322   3.270  17.115  0.1274  0.2271  0.0741
14243W        W31091   8.349  12.808  12.841  0.2891  0.0168  0.3423
14244W        W31092  12.792   0.255  12.744 -0.1508  0.2280  0.3388
14245W        W31093   5.790   3.162  13.306 -0.1794  0.1691 -0.1693
14246W        W31094  11.857  16.687  14.006  0.0392 -0.0146 -0.0349
14247W        W31095   7.192   4.103   0.751  0.0496  0.0860 -0.0339
14248W        W31096  12.458  16.106  16.782 -0.1205  0.0316  0.0026
14249W        W31097  13.566   7.350   2.939 -0.0833  0.0360  0.4340
14250W        W31098  12.961   5.968  13.343 -0.0055  0.0573 -0.1668
14251W        W31099   7.524   4.828  13.726  0.1467  0.0373 -0.1566
14252W        W31100  15.221   8.059  16.477  0.1450 -0.0454  0.0468
14253W        W31101  12.294  12.022   3.427  0.2886  0.0195 -0.0560
14254W        W31102  10.870   6.598  15.414 -0.3709  0.0807 -0.3539
14255W        W31103   9.614  14.627  11.930 -0.0827  0.0306  0.1568
14256W        W31104  11.198   3.084   2.481 -0.1962 -0.1210  0.0798
14257W        W31105   6.744  10.943   5.576  0.1582  0.0997 -0.2104
14258W        W31106  11.227   3.441   5.282  0.2612  0.3043 -0.0501
14259W        W31107  13.543  17.093   2.331  0.1212 -0.1430 -0.0138
14260W        W31108  11.181   1.788  16.646  0.0676 -0.0385  0.0027
14261W        W31109   4.808   4.116   0.048 -0.2376 -0.0670  0.2132
14262W        W31110   4.327   5.043  16.344 -0.4173  0.2401 -0.0442
14263W        W31111  10.376   4.236   5.019 -0.0082 -0.0208 -0.0986
14264W        W31112  10.998   6.622   1.581 -0.4083 -0.2085 -0.1872
14265W        W31113   1.450   4.013   2.278 -0.1356  0.0701  0.0789
14266W        W31114   5.450  14.744   0.698  0.1831 -0.0090 -0.0693
14267W        W31115  11.151   1.483  14.573 -0.0900 -0.0196  0.3532
14268W        W31116  14.864  10.306  16.222  0.0205  0.2724  0.1992
14269W        W31117  16.450  12.595   1.878  0.0634  0.1175  0.3107
14270W        W31118   0.508  16.980   0.013 -0.2752  0.2044 -0.2033
14271W        W31119   7.438  12.204   3.109 -0.0969  0.1720 -0.1972
14272W        W31120   5.472   0.099   5.619 -0.1456 -0.0446  0.2320
14273W        W31121  15.064   3.402  15.488 -0.1468 -0.1861 -0.0355
14274W        W31122   1.144  13.804   0.347 -0.2354  0.0461 -0.1543
14275W        W31123  12.557   8.985  17.530  0.1894 -0.0359 -0.1621
14276W        W31124   8.893   8.765   4.999 -0.2601 -0.0482  0.2051
14277W        W31125   7.085   4.627  17.554 -0.3603  0.0496  0.0579
14278W        W31126   2.358  13.593   3.356 -0.0372  0.2714 -0.0336
14279W        W31127   0.705   1.216  16.437 -0.1234  0.1887  0.0050
14280W        W31128   2.079  11.134  13.053 -0.0988 -0.0506 -0.2802
14281W        W31129   4.575  16.558   3.689 -0.2515  0.1989 -0.0153
14282W        W31130   7.687   5.319  13.656 -0.1070  0.1507 -0.0741
14283W        W31131  13.974   5.405  12.610  0.1032 -0.1237  0.1558
14284W        W31132   9.761   8.874  16.399  0.0137 -0.1013  0.1515
14285W        W31133  12.767   3.950  13.674 -0.1304 -0.0874  0.3052
14286W        W31134   8.046   0.633  16.090  0.0116 -0.2112 -0.1027
14287W        W31135   3.448   2.717  15.143 -0.1389 -0.0286  0.1962
14288W        W31136  10.399  10.409  14.964  0.0917 -0.2357 -0.0988
14289W        W31137  13.394  15.006   0.465 -0.1607  0.0089  0.4641
14290W        W31138  11.296   1.221  15.036  0.0507  0.1285 -0.2262
14291W        W31139   2.701   4.737  16.911  0.0455 -0.0906  0.4534
14292W        W31140   2.368  10.868   3.904  0.1588  0.2892 -0.0302
14293W        W31141   6.426  14.546   1.418 -0.0690  0.2734  0.0165
14294W        W31142   2.847   8.194   5.836  0.1090  0.1834  0.0437
14295W        W31143   1.859  10.024   5.252 -0.1638 -0.0155  0.0828
14296W        W31144   8.188   3.198   4.962  0.1165 -0.0041  0.0382
14297W        W31145  10.518  14.792   2.660 -0.0487  0.0279  0.0919
14298W        W31146  15.784   2.176   3.977 -0.1451 -0.0668 -0.2446
14299W        W31147  13.930  11.537  15.244  0.0750 -0.3361  0.1122
14300W        W31148   5.438   4.287   1.225  0.0785 -0.2417  0.1156
14301W        W31149   5.539   3.703  15.887 -0.0526  0.2776 -0.0421
14302W        W31150  16.401   3.379  16.670 -0.0388  0.0554 -0.2243
14303W        W31151  14.630  16.017   1.465 -0.2827  0.0952 -0.0134
14304W        W31152   8.745  16.052   5.471 -0.1072  0.0965 -0.4252
14305W        W31153   7.759   4.955   0.507  0.0052 -0.0284 -0.2275
14306W        W31154   3.191   0.881   4.017  0.0631  0.2638 -0.1467
14307W        W31155  11.700   2.441  11.064 -0.1303 -0.4320 -0.1589
14308W        W31156   2.649  14.014   3.481  0.0217  0.3932  0.2065
14309W        W31157   8.461   7.316   1.324 -0.1521 -0.1724 -0.0343
14310W        W31158  10.637   8.775  15.019 -0.0595  0.2656  0.3781
14311W        W31159  16.934   3.507  17.185 -0.0193 -0.1065  0.1673
14312W        W31160   0.399  12.473   2.563  0.2206 -0.2125 -0.2359
14313W        W31161  15.347   4.234  16.621  0.1067 -0.0055  0.2165
14314W        W31162  12.157  10.720  12.983  0.1295  0.1240 -0.1302
14315W        W31163  11.625   4.904   5.191 -0.1945  0.0147  0.3017
14316W        W31164   6.159  13.443   5.822  0.5556 -0.1516  0.1798
14317W        W31165  11.303   3.725  13.193 -0.0986  0.0608  0.0114
14318W        W31166   8.644  14.669  13.797  0.2079 -0.1830 -0.1285
14319W        W31167   4.048  15.116   4.632  0.0177  0.0068 -0.3552
14320W        W31168  16.308   2.744   2.997  0.0813  0.2072  0.0324
14321W        W31169  12.063   8.237   4.541 -0.1080  0.1698  0.0318
14322W        W31170   0.699   1.538   5.636  0.0826  0.2949 -0.0879
14323W        W31171  10.528   7.887   4.429  0.0151  0.1683 -0.2587
14324W        W31172   3.484   6.956   1.054  0.0777  0.1682  0.1140
14325W        W31173   2.887  11.635   1.119 -0.0429  0.0704  0.0612
14326W        W31174  15.136   7.343   2.494  0.2256  0.2393 -0.2173
14327W        W31175   6.641  14.091   2.206 -0.1063 -0.0586  0.4723
14328W        W31176   7.753  16.733  15.244 -0.0293  0.0414 -0.2285
14329W        W31177   7.474  12.310  15.044  0.1875 -0.0109  0.1226
14330W        W31178   2.450   2.775  14.090 -0.0116  0.1888 -0.1114
14331W        W31179   7.537  15.958   4.499  0.0615 -0.0063  0.2506
14332W        W31180   0.991  13.570   1.489  0.1264 -0.1202  0.1117
14333W        W31181   5.430   6.734  15.071 -0.0901 -0.1035  0.1371
14334W        W31182  10.803  15.515   4.312 -0.2983 -0.3570  0.1849
14335W        W31183   5.826  14.569  15.806 -0.1458 -0.1246  0.3167
14336W        W31184   1.140   0.718   1.891 -0.2367  0.2427 -0.1878
14337W        W31185  10.112  17.140   5.430 -0.3067 -0.1269 -0.1369
14338W        W31186  15.493   8.467   5.585  0.0142  0.1491 -0.1191
14339W        W31187  10.466  13.899   3.122  0.0086  0.0230  0.2357
14340W        W31188   2.692   4.503   1.556  0.0505 -0.3039 -0.1269
14341W        W31189  13.116  15.345   0.796 -0.1416  0.0485  0.1417
14342W        W31190   8.771  15.070   5.656 -0.2933  0.0959 -0.1221
14343W        W31191   6.488   0.513   5.232  0.4430  0.0472  0.1563
14344W        W31192  14.737   3.706   2.721 -0.4434 -0.0487  0.1819
14345W        W31193   2.161  10.472  15.021 -0.0909 -0.0330 -0.0419
14346W        W31194   2.080  13.247   5.716  0.2662  0.3192  0.0583
14347W        W31195  11.088  12.235  15.638 -0.0090 -0.0509 -0.3919
14348W        W31196  15.954   0.441   3.915  0.0401 -0.1433 -0.4350
14349W        W31197  11.546  10.592   5.580 -0.1758 -0.0865 -0.3991
14350W        W31198   4.396   0.280  12.762  0.0031  0.0097 -0.0469
14351W        W31199   8.388  15.260   3.701  0.2601  0.0428  0.4334
14352W        W31200   4.717  14.389   0.396  0.5063  0.0072  0.0667
14353W        W31201  12.120   1.594  11.753 -0.0922  0.2852 -0.1185
14354W        W31202   5.435  13.602  12.971  0.0954 -0.0210  0.0810
14355W        W31203  14.155   1.433  14.446 -0.1968 -0.1529 -0.0596
14356W        W31204   1.937   9.671   5.748 -0.1055 -0.1092 -0.0476
14357W        W31205   7.388   7.852   2.573 -0.1386  0.0988  0.0817
14358W        W31206   5.823   5.747   1.046 -0.0323  0.1957  0.2254
14359W        W31207  10.209  11.707  12.724  0.1614 -0.1179 -0.1431
14360W        W31208  13.853   2.803   5.434  0.1049 -0.1251 -0.0596
14361W        W31209   9.453   8.258  13.227  0.1648 -0.0164  0.0843
14362W        W31210   3.732   2.030   5.794 -0.0951 -0.1064  0.2423
14363W        W31211  12.322   2.689   4.357 -0.2946 -0.4361 -0.3073
14364W        W31212   9.299   4.359   3.086  0.0839  0.0452 -0.0916
14365W        W31213   2.606   6.071  16.864 -0.1965  0.1611  0.0203
14366W        W31214   8.718   4.853  12.086 -0.2588 -0.1399 -0.0889
14367W        W31215   4.835   2.923   0.069  0.1036 -0.1239 -0.0457
14368W        W31216   7.794   6.800   4.516  0.0461  0.0922 -0.3720
14369W        W31217   9.519  10.433   5.269  0.0147 -0.1321  0.0610
14370W        W31218   0.583   8.064  15.781  0.1676  0.2475  0.0131
14371W        W31219   2.742   0.979  14.431 -0.2106 -0.2534  0.2685
14372W        W31220  10.483   3.191  17.473 -0.2461 -0.1142  0.1949
14373W        W31221   8.667   9.428  15.565  0.0815  0.0170  0.1046
14374W        W31222   7.313   1.883  12.916  0.1599 -0.2527  0.2483
14375W        W31223  13.552  12.722   0.296  0.0476 -0.0453  0.0398
14376W        W31224  16.253  15.524  17.143 -0.1838  0.0384 -0.2573
14377W        W31225   4.503  11.080   3.225 -0.0367 -0.1509 -0.0713
14378W        W31226  15.505   8.032   1.200  0.3934  0.1031  0.3472
14379W        W31227  16.982  10.141  12.587  0.0440 -0.1566 -0.3651
14380W        W31228  13.562   8.827  17.423  0.1182 -0.1043  0.0263
14381W        W31229  16.077   3.717  16.306  0.3134 -0.1027 -0.1530
14382W        W31230   6.667  10.337   2.095  0.0830 -0.0562  0.1956
14383W        W31231   0.191   7.621  15.830  0.3378  0.0079 -0.1578
14384W        W31232   0.125   1.390  16.545  0.0394  0.1162  0.0309
14385W        W31233   0.965   9.972   0.736 -0.0919 -0.1482  0.3010
14386W        W31234   1.049  14.813   4.299  0.0958 -0.2432 -0.0380
14387W        W31235   4.467   2.138  17.657 -0.0341 -0.0001 -0.1425
14388W        W31236  13.731   1.795   4.461  0.0551 -0.2399 -0.1719
14389W        W31237  16.299   6.831  13.853 -0.0726  0.0108  0.0734
14390W        W31238   7.168   5.614  15.407 -0.0222  0.1510  0.1404
14391W        W31239  10.456   5.282  13.456  0.0666  0.2592 -0.0524
14392W        W31240  13.713  11.422   4.051 -0.0688  0.2263 -0.2325
14393W        W31241   6.473   6.841  16.529  0.0051  0.3807  0.1639
14394W        W31242  15.522  16.467   3.487 -0.1438  0.1862 -0.0762
14395W        W31243  10.799  13.117  12.594 -0.1772 -0.2442 -0.1597
14396W        W31244  15.689   9.361  14.169  0.1159 -0.0665  0.5103
14397W        W31245   3.443  13.205   4.316  0.0174 -0.0322  0.0967
14398W        W31246  14.807   3.146   1.712 -0.4220 -0.1700  0.0294
14399W        W31247   2.659  13.472  13.987 -0.1626  0.2020 -0.1791
14400W        W31248   2.891  16.691   0.151  0.2497 -0.0613 -0.0178
14401W        W31249  14.032   9.016   5.136 -0.0144 -0.1570 -0.0285
14402W        W31250  15.414  10.309  17.584  0.1366 -0.0074  0.0067
14403W        W31251  13.817  10.932   5.941  0.0178 -0.2327 -0.2236
14404W        W31252   6.426   1.186   1.364  0.0711 -0.2479 -0.0991
14405W        W31253   4.087   7.873   6.262  0.2603 -0.3477 -0.3491
14406W        W31254  15.505   8.361  15.194  0.1187 -0.2625  0.1164
14407W        W31255  15.554  11.182  16.036 -0.0218  0.2527 -0.2528
14408W        W31256  11.582   1.656  15.357  0.0446  0.2400  0.0116
14409W        W31257   9.960   6.302   3.842  0.1900  0.1194 -0.2772
14410W        W31258   8.755   7.486  13.414  0.0595 -0.1665 -0.4126
14411W        W31259   6.022  13.089  14.359  0.0454 -0.1628  0.2246
14412W        W31260  13.225  12.416  13.911 -0.2092 -0.1899  0.0834
14413W        W31261   9.407   0.851  14.758  0.2393  0.2527  0.1045
14414W        W31262   4.621  10.996  15.184  0.1734  0.0923  0.3673
14415W        W31263   2.528   2.189   0.013  0.0296  0.0815 -0.0779
14416W        W31264   2.812  13.644   3.173  0.1215 -0.0260 -0.0474
14417W        W31265  16.768   2.781   0.594  0.2348 -0.1995 -0.0395
14418W        W31266  11.937   2.543   0.446  0.1820 -0.1779  0.0207
14419W        W31267   7.330   0.391  14.266  0.0407 -0.2318 -0.2016
14420W        W31268   6.192   2.205   2.218 -0.3585 -0.0002 -0.1992
14421W        W31269   7.095   7.449   3.954  0.2564  0.0753 -0.1572
14422W        W31270   0.557   6.039   3.542  0.2004 -0.2134 -0.1205
14423W        W31271   0.371  13.443  13.700  0.0857  0.0677  0.0040
14424W        W31272  12.279   5.124   0.712 -0.1743 -0.0696  0.1480
14425W        W31273   1.912   3.066  15.851 -0.0196  0.0136  0.0118
14426W        W31274  11.294  12.704  15.546 -0.1408 -0.1031 -0.0275
14427W        W31275   9.884   4.070  15.530 -0.2582  0.2021 -0.2384
14428W        W31276   5.657  16.750   4.521 -0.1367 -0.1361  0.2326
14429W        W31277   1.937   0.072  17.057  0.0569  0.1413  0.2665
14430W        W31278  15.703   9.947  15.338  0.0519  0.3218  0.2861
14431W        W31279  16.438  14.608   4.814  0.0993 -0.0660 -0.1651
14432W        W31280   0.382  16.057   1.739  0.1401  0.0004 -0.0145
14433W        W31281   6.726   6.354   0.656 -0.1714  0.2372  0.1194
14434W        W31282   9.064   7.690   4.211  0.0290  0.1178 -0.2870
14435W        W31283  15.057  15.560  14.110 -0.0917 -0.1118  0.1818
14436W        W31284  13.767   1.175   0.033 -0.1245 -0.2310  0.2370
14437W        W31285   2.403   0.353  12.299 -0.1300  0.1793 -0.0072
14438W        W31286  13.892   1.329   2.580 -0.0327 -0.1292 -0.1122
14439W        W31287   5.915   8.422   2.939  0.1761 -0.0639 -0.0670
14440W        W31288   0.340  14.221   5.838 -0.0245  0.1999  0.1551
14441W        W31289   1.613   2.360  17.565  0.0108  0.0998  0.1464
14442W        W31290   9.126   2.315   6.109 -0.0895 -0.1298 -0.0101
14443W        W31291   0.182   1.178   4.963 -0.3798  0.1641  0.1305
14444W        W31292   1.519   2.471  13.112  0.0384  0.1744  0.1804
14445W        W31293  16.191   2.548  14.528 -0.3429 -0.1138 -0.0570
14446W        W31294  14.654  13.893  16.329 -0.3344  0.0832  0.2284
14447W        W31295   6.075   7.969   4.155  0.0634  0.0982  0.0063
14448W        W31296   5.818   9.427  16.236 -0.3245 -0.2533  0.0225
14449W        W31297   3.232   4.001  14.754 -0.0044 -0.0962  0.0629
14450W        W31298   5.037   3.925   1.958 -0.0068  0.2188 -0.1142
14451W        W31299   4.817   4.925  14.857 -0.0032 -0.1106  0.1213
14452W        W31300  10.734   8.670  16.600  0.3030  0.0087  0.0726
14453W        W31301  13.878  17.049   2.711  0.3762  0.3090 -0.5108
14454W        W31302  10.206  14.820   3.111 -0.3141 -0.0096 -0.0507
14455W        W31303   3.099   1.952  16.904 -0.2165  0.0137  0.0803
14456W        W31304  15.479  11.362  15.124 -0.2452 -0.1218  0.1041
14457W        W31305  12.470   6.443   2.529  0.3251  0.3075  0.1039
14458W        W31306   9.031  15.021  13.116  0.1566  0.0782 -0.3011
14459W        W31307   3.316  10.718   2.985  0.0293 -0.0237  0.0397
14460W        W31308   7.111  12.838  13.080  0.1905 -0.0262 -0.2219
14461W        W31309   8.180   8.184   3.420 -0.0010  0.1319  0.3119
14462W        W31310   3.623   9.830  16.433 -0.0660  0.0803 -0.0643
14463W        W31311   8.302   2.664   0.519  0.0132  0.2529 -0.0592
14464W        W31312  15.764  16.058  14.289 -0.0267  0.0905  0.0101
14465W        W31313   0.801  17.080  15.989  0.2209 -0.1158  0.2179
14466W        W31314   5.441   3.913  13.859 -0.1237 -0.1766 -0.0733
14467W        W31315   4.084   6.994  13.805  0.2445  0.2789  0.1353
14468W        W31316   0.421   5.513   3.683  0.3509 -0.1486  0.1832
14469W        W31317  13.023   4.425   1.970  0.0596  0.0740  0.0732
14470W        W31318   2.889  13.915   6.961 -0.1239 -0.1680 -0.0557
14471W        W31319  15.841  10.388  16.570 -0.1202 -0.2701 -0.1270
14472W        W31320  16.685   8.047  12.415 -0.1409 -0.2841  0.0253
14473W        W31321  10.496   8.558   2.575  0.1394  0.2782  0.0366
14474W        W31322  10.888  14.622  11.746 -0.1236  0.1089 -0.1130
14475W        W31323  10.828   1.027  17.477 -0.1130  0.1439 -0.0378
14476W        W31324   9.645  10.625  16.515 -0.0955  0.1449  0.2637
14477W        W31325  15.013  13.610  14.528  0.1207  0.2104 -0.0081
14478W        W31326   5.903  16.192   2.389  0.0454  0.2517  0.0338
14479W        W31327  11.081   7.424   2.335  0.1724  0.2347 -0.0814
14480W        W31328   1.386   4.609  17.160 -0.1344  0.1292 -0.5011
14481W        W31329   4.215   5.579   0.932  0.1477  0.1620  0.2076
14482W        W31330   3.929  10.172   2.295  0.2754 -0.4589 -0.2433
14483W        W31331  10.183  14.902  15.488  0.2275  0.2559 -0.0057
14484W        W31332   2.310   0.929   4.171  0.2839 -0.1095 -0.0903
14485W        W31333  13.835  14.822  16.708 -0.3501  0.0043  0.3118
14486W        W31334   6.559   6.988   2.958  0.2967  0.1493  0.2999
14487W        W31335  15.520   5.947   1.930  0.0522 -0.1030 -0.2168
14488W        W31336   1.897   6.202   5.572  0.1751 -0.0620 -0.0321
14489W        W31337   8.720   4.260  16.110  0.2315  0.0309  0.1760
14490W        W31338   2.703   8.042  17.452 -0.1078 -0.2402 -0.0019
14491W        W31339   7.785   1.973   2.827 -0.1527 -0.3324 -0.1391
14492W        W31340  11.987   3.595  14.493  0.0689  0.2204 -0.1294
14493W        W31341   7.290   6.659   4.727 -0.2946  0.0187  0.3323
14494W        W31342  10.864   1.664   1.596 -0.2020  0.0732 -0.1239
14495W        W31343  15.902   2.821  17.734 -0.1240 -0.0367 -0.1345
14496W        W31344   3.998   2.416   0.786  0.0641 -0.0516 -0.0996
14497W        W31345   9.380   0.237   3.194 -0.0656  0.0410 -0.0290
14498W        W31346   7.273   3.157  17.102  0.0172 -0.1058 -0.1863
14499W        W31347   0.062  10.822   6.334  0.1011  0.2297  0.0426
14500W        W31348  13.531  17.127  17.028  0.1182  0.4605  0.1686
14501W        W31349  14.948  10.955   1.790  0.3112  0.2294 -0.1980
14502W        W31350   5.454   2.792   3.972  0.2695  0.1397  0.3003
14503W        W31351   5.505   2.119  14.259 -0.2487 -0.0737  0.2695
14504W        W31352   2.962  14.114   3.006  0.1516 -0.0882  0.1025
14505W        W31353   3.684   2.212   0.345  0.2893 -0.1748  0.0050
14506W        W31354   1.119   8.935  15.942 -0.0594 -0.1540  0.1901
14507W        W31355  16.845   7.771   6.033  0.1733 -0.1760 -0.2618
14508W        W31356  13.293   0.705   4.684 -0.1688  0.1636  0.1688
14509W        W31357   2.551   6.430   3.501 -0.3718 -0.2839 -0.0379
14510W        W31358   6.415  15.824  17.682  0.0114 -0.0163 -0.0790
14511W        W31359  11.313  16.592  15.673 -0.1259 -0.1751  0.2995
14512W        W31360  13.697   3.529   5.861  0.1104  0.2109  0.0415
14513W        W31361  16.177   7.244   3.684 -0.2391 -0.0928 -0.1593
14514W        W31362  16.037  14.924  16.046  0.0583  0.1579  0.2306
14515W        W31363  10.893   9.316  17.372 -0.2414  0.2108  0.3216
14516W        W31364   5.485   7.010   1.465  0.2553  0.0598  0.1043
14517W        W31365   3.336  10.922  14.692 -0.0685  0.0324  0.0421
14518W        W31366  12.015   8.555  16.633  0.1857  0.0719  0.3290
14519W        W31367  12.925   0.831  11.869 -0.0024 -0.0792  0.0568
14520W        W31368  14.831   8.172  13.844 -0.2275  0.0435  0.0157
14521W        W31369  13.446   7.268  13.642  0.1667  0.3315 -0.0288
14522W        W31370   4.782   0.508   1.950 -0.3728  0.2376  0.0549
14523W        W31371  16.255  17.025   6.555  0.1126 -0.3489  0.2826
14524W        W31372  11.255   1.104   3.453  0.0734  0.0259  0.0374
14525W        W31373   3.698   0.219  17.339 -0.1502  0.0824 -0.0053
14526W        W31374   7.670   3.178   5.091 -0.1495  0.1633 -0.1179
14527W        W31375   5.740   3.313   5.243 -0.2446 -0.3897  0.3619
14528W        W31376   7.684   8.827   1.755 -0.1064  0.2363  0.1096
14529W        W31377   4.617   8.309   5.699 -0.0757  0.2507 -0.3040
14530W        W31378  13.039   3.048   0.045  0.0500  0.0639 -0.1072
14531W        W31379  13.688  13.881  15.620  0.0165  0.2322  0.0298
14532W        W31380  13.170  11.235   2.426 -0.1482  0.2507 -0.1332
14533W        W31381  11.300   7.766  11.937 -0.2767  0.0487 -0.3771
14534W        W31382  10.653  16.502   2.003  0.2350  0.0776 -0.1188
14535W        W31383   0.539  13.934   4.062  0.1687 -0.1927  0.1901
14536W        W31384   1.729  12.856  13.579  0.0448 -0.1288  0.3422
14537W        W31385  13.504   8.750   3.039 -0.1314 -0.3178  0.0008
14538W        W31386  13.404   9.528  16.366  0.2189 -0.0167 -0.0781
14539W        W31387  13.337  14.983  13.976  0.1747  0.0595  0.1351
14540W        W31388   6.276   5.845   1.241 -0.1569  0.0810  0.1541
14541W        W31389  17.128   0.985  16.814  0.3032 -0.1087  0.0737
14542W        W31390   7.992  16.686   1.114  0.4037 -0.2522  0.0796
14543W        W31391   4.210  12.099  15.872  0.2179  0.0551 -0.2142
14544W        W31392   6.697  13.635   1.899 -0.1323  0.1448 -0.1874
14545W        W31393   0.629   7.736   0.780  0.2166 -0.1491  0.0087
14546W        W31394   6.591   6.058  15.874 -0.0617 -0.0244  0.1643
14547W        W31395   4.413  13.360   6.273  0.2240  0.0078  0.1113
14548W        W31396   4.352  15.610   1.392 -0.0968 -0.0062 -0.0896
14549W        W31397   0.945   6.749  12.168  0.1986 -0.0845 -0.0944
14550W        W31398   4.316   6.908   1.480  0.0996 -0.0700 -0.2502
14551W        W31399   2.049   4.577   4.736 -0.1116  0.0466 -0.2846
14552W        W31400   8.313   1.415  12.232 -0.1615  0.3395  0.0567
14553W        W31401  10.966   7.507   4.160 -0.2856 -0.0950  0.0208
14554W        W31402   5.235  13.635   6.289  0.1526 -0.0731  0.2041
14555W        W31403  12.818  11.797   4.109  0.0967  0.0455  0.0664
14556W        W31404  10.713   4.982  12.834 -0.1368  0.1591  0.0322
14557W        W31405   7.510   7.015  12.626  0.3072 -0.1870  0.2494
14558W        W31406   6.787  13.118   2.117  0.1392  0.0552  0.1512
14559W        W31407   9.576  10.172  14.515 -0.1837 -0.1410 -0.0014
14560W        W31408   1.147   2.012   1.924  0.1208 -0.1822  0.0670
14561W        W31409  13.419   4.302  14.634  0.0782 -0.3071  0.0538
14562W        W31410   1.818   3.447   0.006  0.0904  0.0028  0.2999
14563W        W31411  15.119   7.981   1.920  0.2213 -0.1303 -0.2937
14564W        W31412   6.579  10.857  17.520  0.0850 -0.0649 -0.0836
14565W        W31413  10.833   2.075   2.523 -0.1316 -0.1291  0.3004
14566W        W31414  12.040   3.680  14.971  0.1961 -0.0903  0.0279
14567W        W31415  16.709   2.818  12.405  0.0685  0.2426  0.0897
14568W        W31416  16.540  16.692   5.861 -0.1920 -0.0964 -0.0487
14569W        W31417  10.566  11.517  13.025  0.0946 -0.2515 -0.0851
14570W        W31418   6.513   4.343  15.169  0.1365 -0.2150 -0.0657
14571W        W31419   9.215   2.214  14.455 -0.1105  0.3372  0.0350
14572W        W31420  13.616  11.589  13.859  0.1222  0.0404  0.1988
14573W        W31421  10.382   8.528  15.818 -0.0110 -0.0834 -0.3010
14574W        W31422   3.612   9.022  13.140 -0.0291 -0.2382 -0.0545
14575W        W31423   0.547   8.457   5.190  0.2310  0.0926 -0.0054
14576W        W31424   7.078  15.592  14.967 -0.1927 -0.0270  0.0100
14577W        W31425   8.951   7.847  16.510 -0.0347  0.0190 -0.0438
14578W        W31426   2.516   1.975  13.965  0.2784 -0.2499  0.2808
14579W        W31427   9.499   7.153   1.517 -0.0988  0.1817 -0.0625
14580W        W31428   2.969   4.756   1.095 -0.0679 -0.3043  0.0622
14581W        W31429  11.364   0.310  12.850  0.1961  0.0278  0.1804
14582W        W31430   6.172  15.389   0.082 -0.2135 -0.1601 -0.1690
14583W        W31431   5.565  16.183  14.179 -0.0369  0.1741 -0.0838
14584W        W31432   2.487  16.955   0.763 -0.1724 -0.0734 -0.1260
14585W        W31433  11.050  15.486  14.831  0.0955  0.0179  0.1982
14586W        W31434   3.502  13.934  16.412  0.1629  0.1804  0.3400
14587W        W31435  15.320  14.586   3.498  0.1358  0.1639  0.0973
14588W        W31436   2.893  10.889   0.105  0.1634  0.0981  0.3477
14589W        W31437  15.006   3.946  16.254 -0.0642  0.0782 -0.0423
14590W        W31438   2.799   0.161  15.305 -0.1233 -0.0212 -0.3685
14591W        W31439  11.369  12.032  13.978 -0.1462 -0.1640 -0.1943
14592W        W31440   1.290  14.628   5.501 -0.3925  0.1418 -0.1096
14593W        W31441   4.598   5.930   0.162 -0.1212 -0.2242  0.1114
14594W        W31442  15.232  15.095   2.014  0.1849  0.1304  0.1583
14595W        W31443   4.359   0.673   5.406 -0.0453 -0.2369  0.1424
14596W        W31444  11.839   8.282  11.094 -0.0125 -0.0580  0.2932
14597W        W31445   6.024   8.848   2.672  0.0857  0.2834 -0.2953
14598W        W31446   4.630   3.754  15.066  0.0824 -0.0697 -0.2386
14599W        W31447   5.319  15.159  16.224  0.1940  0.2452  0.2173
14600W        W31448  15.433   5.379  13.293 -0.1669 -0.0966 -0.0810
14601W        W31449  14.343  13.484   3.378  0.0994  0.4639 -0.2201
14602W        W31450   8.749  15.233   1.295  0.0144 -0.2035  0.1005
14603W        W31451   5.894   7.043  15.029 -0.1745 -0.0084  0.0102
14604W        W31452   3.364  12.987  12.044  0.1278  0.2742 -0.2890
14605W        W31453   6.307  16.794   4.388  0.0839  0.0664  0.0708
14606W        W31454   5.493   1.528  15.460  0.3551 -0.1195 -0.0067
14607W        W31455   7.651  11.041   4.288 -0.4720 -0.0519 -0.1337
14608W        W31456   3.603  10.328  15.718  0.0303  0.2180  0.1702
14609W        W31457   8.606  15.678   0.493 -0.2903 -0.0781  0.2750
14610W        W31458  10.266   9.551   2.683  0.0942 -0.2666 -0.1167
14611W        W31459   4.242  13.761   4.504 -0.1350  0.1835 -0.2470
14612W        W31460  15.535   0.378   3.663 -0.1382 -0.1680 -0.0894
14613W        W31461   9.153  14.240   4.884 -0.0027  0.1757 -0.1031
14614W        W31462  10.587  13.901   2.558  0.3839 -0.1127 -0.2076
14615W        W31463   2.761  14.151   1.430  0.0873  0.0213 -0.2764
14616W        W31464   8.268  10.422   5.210  0.1166  0.2311 -0.2278
14617W        W31465   8.587   0.502   4.249 -0.0266  0.1314  0.1448
14618W        W31466   6.091  16.490   4.793 -0.3322  0.0918 -0.1076
14619W        W31467  14.166   9.271  13.417 -0.1967  0.3786 -0.1863
14620W        W31468   3.545  13.929   5.699  0.0116 -0.2375  0.4139
14621W        W31469  11.588  13.326   5.373  0.2623  0.3472  0.0588
14622W        W31470  11.672  16.958  16.058 -0.2396 -0.0176  0.2157
14623W        W31471   3.515   1.274   2.709 -0.1613  0.2751 -0.0964
14624W        W31472  11.390   3.039   4.705  0.0415  0.1093  0.2494
14625W        W31473   1.601   9.458  17.456  0.1183 -0.1138 -0.1859
14626W        W31474   1.458   1.513  16.491 -0.1080  0.1243 -0.0510
14627W        W31475  13.958   6.095   4.938 -0.2304  0.1564  0.2684
14628W        W31476  16.833   5.724   2.606  0.0527  0.3088 -0.2280
14629W        W31477   7.942   1.628   2.298 -0.1613  0.0472 -0.0717
14630W        W31478   5.182   3.386   2.199  0.1081 -0.5387  0.0698
14631W        W31479  15.219   6.437  15.361  0.1682 -0.0482  0.0176
14632W        W31480  15.507   4.567  15.185 -0.0968  0.0542 -0.2810
14633W        W31481   1.620   5.065  17.151 -0.0490  0.0611 -0.2170
14634W        W31482  12.200   4.714  13.299  0.4137  0.0564 -0.0485
14635W        W31483   1.289   0.042   1.977  0.2472 -0.0998 -0.0676
14636W        W31484   2.186   1.919  17.565 -0.0004  0.3436  0.2300
14637W        W31485   8.787  11.886  16.812  0.0641  0.0028  0.1950
14638W        W31486   5.728  10.081   0.175 -0.2121  0.0247  0.1130
14639W        W31487  11.547  11.481  12.772 -0.0397 -0.0349 -0.0565
14640W        W31488  14.030  12.545  12.309  0.3246 -0.1278  0.4713
14641W        W31489  16.322   9.994   2.469 -0.1699 -0.2429  0.2384
14642W        W31490  14.298   3.426   5.160 -0.1580  0.1108  0.2879
14643W        W31491  14.303  16.734  15.059  0.3529  0.0607  0.4532
14644W        W31492   4.173  10.336  17.523 -0.0179 -0.1088  0.0775
14645W        W31493   4.074  15.009   3.444 -0.1137 -0.0865  0.0418
14646W        W31494   1.074   2.561   0.282 -0.4679  0.0171  0.0321
14647W        W31495   3.188   5.804   0.260 -0.1935  0.1043 -0.0610
14648W        W31496  15.985   6.310  16.600 -0.2572  0.3158 -0.0137
14649W        W31497   8.881  12.541  17.446 -0.0257  0.0022  0.1613
14650W        W31498   7.876   1.431   0.506 -0.0025  0.0567  0.1002
14651W        W31499   0.633  12.114  17.335 -0.0218  0.0946 -0.1562
14652W        W31500  10.337   8.348  11.035  0.1308  0.1557  0.0592
14653W        W31501   8.470   2.811  12.347  0.1413 -0.0459  0.4899
14654W        W31502   5.276   8.547  15.219  0.0429 -0.2557  0.2321
14655W        W31503   3.746  11.720   0.111 -0.0925  0.1260 -0.0763
14656W        W31504  16.498  12.786   5.722 -0.0565 -0.1233 -0.3093
14657W        W31505  11.988  12.272   4.077  0.1433  0.0283  0.1683
14658W        W31506   6.973   3.311  17.450  0.2015  0.0666 -0.0712
14659W        W31507  12.956   2.500  16.351 -0.4844  0.0297 -0.1084
14660W        W31508   2.165   5.799  15.865  0.1864  0.1239  0.1050
14661W        W31509  16.417   0.838  12.726 -0.0080  0.2138 -0.0995
14662W        W31510   8.365   5.161  15.760  0.1805 -0.1123 -0.1806
14663W        W31511   3.219   1.994  14.629 -0.0142 -0.0447 -0.1827
14664W        W31512  11.920   6.044   1.434  0.0729 -0.2467 -0.1835
14665W        W31513   1.991   4.495  14.534  0.0923  0.1222 -0.1284
14666W        W31514   9.858  15.980   4.735  0.1649  0.2043  0.1716
14667W        W31515  12.642  13.405   2.168  0.1330  0.1384 -0.3771
14668W        W31516   7.492   9.386   4.644  0.0969  0.1784 -0.2120
14669W        W31517  12.487  15.504  13.950  0.0487 -0.2957  0.2358
14670W        W31518   7.206  10.534  16.810  0.0640  0.0729  0.1338
14671W        W31519  14.595   8.465  13.542  0.0044 -0.2915  0.0222
14672W        W31520   2.652   4.348   3.238  0.0885 -0.0469 -0.1426
14673W        W31521  12.930   3.355   3.933  0.3899 -0.2006 -0.1203
14674W        W31522  15.507   7.660  16.553  0.0588  0.0206  0.0638
14675W        W31523   9.112   7.157  11.991  0.2977  0.0087  0.1722
14676W        W31524   2.258   1.698   0.316  0.2176 -0.0073  0.0826
14677W        W31525   6.827   0.869  14.264  0.1181 -0.2446  0.2488
14678W        W31526  15.715   6.006  13.588  0.0331 -0.2514  0.0908
14679W        W31527  11.200   2.051  16.148 -0.2225 -0.1343  0.0339
14680W        W31528  14.733  13.484   2.098 -0.1272  0.1400  0.2796
14681W        W31529  12.438  13.115   4.158 -0.0219 -0.1131  0.0098
14682W        W31530   4.885   2.871   4.165  0.0766  0.2751  0.3890
14683W        W31531  12.926   9.963   1.969 -0.1997  0.0102  0.0150
14684W        W31532   1.453   8.354   3.213  0.0085 -0.2921  0.0037
14685W        W31533   3.225  12.871  14.993 -0.4012  0.1121 -0.0306
14686W        W31534  15.399  13.163   3.486  0.1087 -0.0090 -0.0692
14687W        W31535   4.152  15.789  17.161  0.2669 -0.3298  0.0046
14688W        W31536  16.052  10.909   0.812 -0.2336 -0.3040 -0.0036
14689W        W31537   1.241   7.448   0.515 -0.2023  0.4042  0.0281
14690W        W31538   2.314   8.427  13.417 -0.2112 -0.1285  0.0292
14691W        W31539  13.647   8.025   3.610  0.1431  0.0795  0.0888
14692W        W31540  16.915  10.019   0.859  0.2285  0.1425  0.0198
14693W        W31541  11.512  13.610  14.739  0.1408  0.0948  0.0610
14694W        W31542  16.794   0.950  14.361  0.0247  0.0054  0.2643
14695W        W31543  15.821   3.481   3.425  0.5130  0.1225  0.3124
14696W        W31544   5.688   2.432   5.515 -0.2564 -0.3972  0.1774
14697W        W31545  13.350   2.414   2.015 -0.1411  0.0019 -0.2934
14698W        W31546  16.089   5.600   3.768 -0.0178  0.0784 -0.3412
14699W        W31547   9.194   9.521  16.814  0.2169  0.0165  0.1502
14700W        W31548  11.981   0.278  16.839  0.0056 -0.1005 -0.2317
14701W        W31549   3.352   6.810   2.568  0.1865  0.3220  0.0672
14702W        W31550   3.281   4.574  13.875  0.0566  0.3123  0.1767
14703W        W31551   8.943  11.626   0.418 -0.2773  0.0292  0.1571
14704W        W31552   0.930  15.852   4.334 -0.1342  0.0123  0.0721
14705W        W31553  14.243  11.740   0.191 -0.1098  0.1186  0.1060
14706W        W31554  13.822   9.380   1.698  0.0638 -0.0045 -0.0699
14707W        W31555   7.812   4.438  13.705 -0.0283  0.2432 -0.1220
14708W        W31556  15.768   7.519  14.614 -0.2231 -0.2672 -0.0025
14709W        W31557   4.641  10.883   1.717 -0.3000 -0.2004 -0.0581
14710W        W31558  14.067   3.221   5.544  0.1064  0.1826  0.1019
14711W        W31559   1.538   8.325   0.248  0.0282  0.3749  0.0131
14712W        W31560  12.878  10.327   2.382 -0.0644  0.0888 -0.0190
14713W        W31561   4.203  12.862   0.168 -0.3660 -0.0479  0.0003
14714W        W31562  16.926   0.030   5.266 -0.0399  0.0535  0.0582
14715W        W31563  13.870   5.458   2.288 -0.0259 -0.2888 -0.1332
14716W        W31564  11.170   6.012  15.056  0.1354  0.1348  0.0873
14717W        W31565   0.964   9.412   4.902 -0.2864  0.0815 -0.3351
14718W        W31566   5.153  12.411   2.667 -0.0325 -0.0523 -0.0262
14719W        W31567  12.994   3.830   3.070 -0.2446 -0.3550 -0.1134
14720W        W31568   2.148   5.538   4.414  0.3193 -0.3867 -0.2206
14721W        W31569   5.628  12.310  16.663 -0.0576 -0.3033  0.0421
14722W        W31570  16.070   5.048  14.953 -0.0324 -0.3554 -0.0232
14723W        W31571   9.180  11.142   4.889  0.0817  0.1649  0.0139
14724W        W31572  12.145   7.252  14.231 -0.1284  0.0350 -0.2260
14725W        W31573  16.437   9.637  13.573  0.4061 -0.0788 -0.0366
14726W        W31574  12.063   0.831  15.367  0.1660 -0.0716 -0.2762
14727W        W31575   8.408  13.088   3.994  0.0431 -0.4776 -0.1316
14728W        W31576  15.727   7.303   3.442 -0.0928  0.0137  0.1409
14729W        W31577   0.145   1.391  15.029 -0.0884  0.1706 -0.1044
14730W        W31578  10.567  14.743   4.605  0.1880 -0.0980 -0.2216
14731W        W31579   7.841   6.547  11.833  0.0072  0.0116 -0.1261
14732W        W31580  13.807   8.348   3.263  0.1638  0.1148  0.0194
14733W        W31581   3.441  13.136  15.365  0.3771 -0.0358 -0.2682
14734W        W31582   2.321   9.996   2.547 -0.2231 -0.1347  0.1002
14735W        W31583   3.766  14.473   2.463 -0.0567  0.2127 -0.0964
14736W        W31584  10.023   1.819  13.521 -0.0232 -0.1354 -0.0892
14737W        W31585  12.853   7.545  14.093  0.1649 -0.2586  0.0839
14738W        W31586   3.527   7.808  14.944  0.1785 -0.1811 -0.1567
14739W        W31587   4.087  13.655   6.043 -0.1343  0.1330  0.2507
14740W        W31588  10.902   6.177  13.972 -0.1899  0.2756 -0.1711
14741W        W31589  16.736   9.761   3.687 -0.0117  0.0620  0.0875
14742W        W31590   4.266  14.659   2.495 -0.1993 -0.1010  0.0270
14743W        W31591   0.549   6.772  12.548 -0.2272  0.2804 -0.0487
14744W        W31592   2.498   8.519  14.335  0.0727 -0.2794  0.3361
14745W        W31593  16.493  16.403  13.019 -0.1001 -0.3280  0.0253
14746W        W31594  16.565   5.978   3.052 -0.0474 -0.3891  0.1645
14747W        W31595   9.958   3.281  11.877 -0.1191 -0.1322 -0.1185
14748W        W31596  13.490  14.409   0.078 -0.0006 -0.0051  0.3707
14749W        W31597   0.595  15.652  13.963 -0.0049 -0.0757  0.0735
14750W        W31598   0.515  11.055   1.307 -0.2217  0.2348  0.2212
14751W        W31599   9.724   4.353  14.090 -0.2123 -0.2696 -0.1626
14752W        W31600  11.213  10.905   5.319 -0.0255 -0.1103  0.1920
14753W        W31601   8.445  15.140  15.995  0.0424  0.0744  0.2431
14754W        W31602  11.373   4.896   0.928 -0.0232  0.0234 -0.0877
14755W        W31603  16.643  11.895   2.167 -0.0565  0.1073 -0.1485
14756W        W31604  10.105   9.921   0.061  0.0911 -0.0556  0.0938
14757W        W31605   0.727  15.190   4.146 -0.0756  0.0989  0.0294
14758W        W31606   5.050   3.531  14.754 -0.1432 -0.2667 -0.2296
14759W        W31607  15.132   7.758   4.023 -0.2874 -0.3106  0.1443
14760W        W31608   6.103  12.643   2.383 -0.2472  0.1640 -0.0288
14761W        W31609   3.554   1.534   4.669 -0.0652 -0.1767 -0.1577
14762W        W31610   8.858  10.724  12.529 -0.1159  0.0956 -0.1987
14763W        W31611  16.698   0.499   0.082  0.2056  0.3066  0.2856
14764W        W31612   6.930  12.659   1.947  0.0209  0.0341  0.1111
14765W        W31613   3.488  10.711   0.180 -0.1996 -0.1722  0.0721
14766W        W31614  14.225  16.117  12.892  0.0607  0.1177 -0.1992
14767W        W31615   8.584  13.652  15.391 -0.2289 -0.3382 -0.0254
14768W        W31616   6.042  14.747   2.594 -0.1195  0.0504  0.1400
14769W        W31617   7.145   2.393   5.900  0.0890 -0.0608 -0.0119
14770W        W31618   5.603   3.806   5.314 -0.1595  0.0645  0.1504
14771W        W31619   4.467   5.883  12.912 -0.1349 -0.1127 -0.1033
14772W        W31620  11.431  10.331   2.703  0.0220 -0.0667  0.0077
14773W        W31621   5.295   8.804  13.767 -0.2354  0.1583 -0.0516
14774W        W31622  16.275   0.899   2.985 -0.1618 -0.1150 -0.1954
14775W        W31623   5.916   5.664   3.467  0.1207  0.0908  0.0003
14776W        W31624   3.398  11.683   3.314 -0.1782  0.1209 -0.2695
14777W        W31625  15.014   8.352  12.641  0.1188  0.0084  0.1480
14778W        W31626   9.671  16.306  16.334  0.2106 -0.0163  0.1415
14779W        W31627  13.915  12.005   5.094 -0.0625  0.1801  0.1998
14780W        W31628   4.588   9.929   0.387  0.4066  0.0293  0.0252
14781W        W31629   5.396  15.625   5.875  0.0121  0.0963  0.0749
14782W        W31630  12.766  14.305  12.457 -0.1767 -0.0298  0.0478
14783W        W31631   1.749   8.750   3.234  0.2667 -0.1772 -0.3229
14784W        W31632  15.022   2.127   6.060  0.0968  0.1118 -0.1565
14785W        W31633  16.155   1.823   1.916  0.1042  0.0950  0.1344
14786W        W31634  14.737   3.839  14.933  0.1020 -0.0567 -0.0583
14787W        W31635  10.507   1.216  17.033 -0.0431 -0.0381 -0.1411
14788W        W31636   3.561  12.642  16.193  0.0414  0.1394 -0.2150
14789W        W31637   2.593   4.895  12.817  0.1533  0.1150 -0.0189
14790W        W31638   0.306   2.105   4.925 -0.0753  0.3686  0.0263
14791W        W31639   7.814   9.607   2.421 -0.0521 -0.1867  0.2509
14792W        W31640   2.016   1.750  12.555 -0.0850  0.1801  0.2254
14793W        W31641   3.673  13.422   2.851 -0.0082 -0.1871  0.0461
14794W        W31642  13.277  17.081  16.128 -0.0249 -0.0884  0.2726
14795W        W31643   7.334   2.306  14.475 -0.1453  0.0190 -0.0998
14796W        W31644  14.214  13.776  15.634 -0.3063 -0.0970  0.2341
14797W        W31645  11.014  15.973   0.829  0.1535  0.0770 -0.0934
14798W        W31646   1.743  14.671   5.277  0.2673  0.0855 -0.0331
14799W        W31647   9.235   1.315   3.318 -0.4254 -0.0824  0.1047
14800W        W31648   7.810  13.696   3.881  0.2933 -0.2737 -0.0929
14801W        W31649   1.413  12.148  14.987 -0.1651  0.0042 -0.0058
14802W        W31650   9.671  14.534  14.745 -0.0940  0.0043 -0.4232
14803W        W31651  13.371   7.378   4.286 -0.0793 -0.4137 -0.1485
14804W        W31652   6.644  14.798  15.897  0.0743  0.0671 -0.0869
14805W        W31653   7.571   0.358  17.513 -0.2920  0.1276  0.1759
14806W        W31654  17.156  13.930   3.812 -0.0523  0.1101  0.1265
14807W        W31655  16.957   9.405   0.905 -0.2574 -0.2131  0.1008
14808W        W31656  10.057   9.114   0.013 -0.0639 -0.1622  0.1057
14809W        W31657   5.382  13.473  15.110 -0.0501 -0.2853 -0.0726
14810W        W31658  14.028  10.449  11.981 -0.2312 -0.0762  0.1786
14811W        W31659  13.111   2.155  11.347 -0.0859  0.1919  0.1852
14812W        W31660   2.896   5.341   5.581 -0.1437 -0.0893 -0.1138
14813W        W31661   9.979   0.516  15.610 -0.1364 -0.3069 -0.0109
14814W        W31662   0.328   0.041   4.118 -0.2419  0.1769 -0.1647
14815W        W31663   9.837  16.110  13.619  0.0617 -0.1064 -0.2442
14816W        W31664   8.167  15.428   0.328 -0.1149 -0.0232  0.0836
14817W        W31665  15.136  11.539  13.631 -0.0693  0.4211 -0.2878
14818W        W31666  13.389  15.411   3.268  0.0254 -0.0125 -0.2678
14819W        W31667   4.720   5.787  13.375 -0.1741  0.0689 -0.1783
14820W        W31668   9.096  15.843  17.051  0.1323  0.2685  0.1057
14821W        W31669   3.480   4.690   1.033 -0.1203 -0.0413  0.0319
14822W        W31670  12.895   8.337  13.101  0.3700 -0.2413 -0.1023
14823W        W31671  15.926  16.193  17.746  0.0085  0.2005 -0.1466
14824W        W31672   2.038   6.551  16.921 -0.0355  0.0608  0.3874
14825W        W31673  14.797   4.597  16.864 -0.2940  0.1310 -0.2754
14826W        W31674  11.114  16.818   1.079 -0.1666 -0.3420 -0.0527
14827W        W31675  13.584  10.632   5.432 -0.0493  0.1857  0.0457
14828W        W31676   2.748  10.272  14.872 -0.3054  0.0271  0.0074
14829W        W31677  16.605  13.159   0.604 -0.0640  0.1741 -0.0820
14830W        W31678  13.355   4.916  14.723 -0.2578 -0.0371 -0.0776
14831W        W31679   5.381  14.413   1.568  0.1773  0.1228  0.0085
14832W        W31680   7.172  16.525  15.982  0.1259  0.1057 -0.2775
14833W        W31681  15.562  16.957  12.440 -0.0801  0.0640 -0.1277
14834W        W31682   2.843   6.587  13.265  0.0331  0.3624  0.1402
14835W        W31683   7.932  12.153  15.701  0.0772  0.0658 -0.0303
14836W        W31684   8.335  16.251   4.355 -0.1728 -0.0963 -0.2310
14837W        W31685   1.803  16.673  16.887 -0.0368  0.3043  0.0916
14838W        W31686   4.907  12.979   1.881  0.0733  0.1633 -0.0639
14839W        W31687   2.905  10.775   4.900  0.1923  0.0162  0.0910
14840W        W31688  12.195   6.474   5.604 -0.0905 -0.1756  0.0110
14841W        W31689   2.012   1.572   2.005  0.0166  0.2270  0.0868
14842W        W31690   0.089   0.869   5.477 -0.2500 -0.1607  0.2968
14843W        W31691  11.092   6.069   0.682 -0.0188  0.3997 -0.0234
14844W        W31692  12.189  11.412  12.163  0.0017 -0.0856  0.2084
14845W        W31693   4.104   3.785  15.004 -0.1097  0.0595  0.0403
14846W        W31694   8.574   8.061  11.746  0.1132 -0.0799  0.1412
14847W        W31695  11.063   1.171   4.833  0.1315  0.1070  0.0383
14848W        W31696  10.135   4.859  14.664  0.0702 -0.0141  0.1666
14849W        W31697   2.342  11.245   2.716 -0.0174  0.0285 -0.1353
14850W        W31698   3.160  11.018   4.557 -0.0705  0.0291  0.0015
14851W        W31699  13.651   4.022   3.981 -0.1987  0.2776 -0.2077
14852W        W31700   6.317   7.076   1.080 -0.0980  0.1596 -0.0339
14853W        W31701  16.346   2.204   2.721 -0.0167 -0.1313 -0.0477
14854W        W31702   2.197   6.284  15.816  0.0322 -0.3573 -0.3366
14855W        W31703  14.515   4.434   1.692 -0.2305 -0.0704 -0.0635
14856W        W31704   4.234   6.064  14.195 -0.1354  0.3308 -0.1041
14857W        W31705  10.853   0.987  11.691  0.1443 -0.0541 -0.2964
14858W        W31706   9.061   9.380   3.556  0.1931 -0.2577  0.3421
14859W        W31707  14.098  12.374  14.186  0.1055 -0.1312 -0.1329
14860W        W31708   3.244  10.151   3.533  0.4134  0.0347 -0.2402
14861W        W31709   7.991   0.458   5.431 -0.1895  0.1978 -0.1201
14862W        W31710  16.487  13.695  13.587 -0.0956 -0.1996  0.0563
14863W        W31711  14.289   0.224  15.382  0.1492 -0.0846 -0.0994
14864W        W31712   0.056  12.114  16.307 -0.2516  0.0945 -0.1198
14865W        W31713  16.058   1.643  12.875  0.1184 -0.0422 -0.1569
14866W        W31714   3.048   7.984  16.960  0.1226 -0.1739 -0.1459
14867W        W31715  14.038   2.194   2.657 -0.0545  0.3095  0.1965
14868W        W31716   6.083  14.036   3.506  0.2325 -0.0835 -0.3455
14869W        W31717  10.157   1.436   0.048 -0.1324  0.3131 -0.0835
14870W        W31718   2.005  14.734  13.677 -0.5572  0.1747  0.1317
14871W        W31719   3.902   6.764   5.140 -0.1412 -0.0975  0.0502
14872W        W31720   4.508  14.861  15.690 -0.1287  0.0069  0.0317
14873W        W31721  15.114   3.207  17.082  0.1356  0.1592  0.2651
14874W        W31722  10.023  16.768  15.639  0.1452 -0.4147 -0.1376
14875W        W31723  15.184   1.093  16.824  0.1036  0.1602 -0.0919
14876W        W31724   4.883   8.940  15.945  0.3033  0.2370 -0.1403
14877W        W31725   1.032  16.557  14.808  0.0159  0.1308 -0.1298
14878W        W31726   1.473   8.786  12.323 -0.1233  0.1980 -0.2151
14879W        W31727   4.995   4.469  13.637 -0.0773 -0.2617  0.1676
14880W        W31728   7.937   4.690   3.838 -0.2874 -0.2263 -0.1972
14881W        W31729   1.387  16.728   4.818  0.2675  0.0449 -0.1082
14882W        W31730  14.191  15.652   3.005 -0.1283 -0.2241 -0.1736
14883W        W31731   2.952  14.996  12.701  0.0278 -0.4296  0.0613
14884W        W31732  16.418   1.736   0.927  0.0430  0.2490 -0.0793
14885W        W31733   1.495  16.897   3.401 -0.4626 -0.0471  0.0947
14886W        W31734   7.067   6.656  13.723  0.1980 -0.0928 -0.0382
14887W        W31735   9.036   1.416   1.711 -0.4160 -0.1252 -0.3408
14888W        W31736  12.357   4.181   3.701 -0.2862  0.0336 -0.0433
14889W        W31737  14.532  16.935  15.594 -0.0705  0.1324 -0.0323
14890W        W31738   8.195  11.255   5.161  0.1197 -0.1699 -0.3324
14891W        W31739  11.549   4.095   0.273 -0.0706 -0.0414 -0.2845
14892W        W31740  16.392   8.247   4.976 -0.0078  0.1512  0.2111
14893W        W31741   3.617   1.493  13.566 -0.1399  0.0693  0.2064
14894W        W31742  14.823  11.952   1.971  0.0376  0.3882 -0.4845
14895W        W31743   7.224   2.823   1.571  0.0017 -0.0611  0.0451
14896W        W31744   9.472   9.411  14.365  0.2649  0.0503 -0.0916
14897W        W31745   1.908  16.511  14.826  0.0151 -0.2321 -0.2119
14898W        W31746   2.451  11.267  15.099  0.0640  0.0350  0.2042
14899W        W31747   0.172  11.727  15.606  0.3151 -0.1197 -0.3098
14900W        W31748   9.762   0.654  14.331 -0.2151 -0.0750  0.2034
14901W        W31749  16.186   1.128  16.322 -0.2109 -0.0655  0.1205
14902W        W31750   0.254  10.700   2.249  0.0052 -0.0267  0.0769
14903W        W31751   9.502  11.345  12.335 -0.0197 -0.0090  0.0291
14904W        W31752   6.157  10.433   0.984 -0.2566  0.3314  0.1904
14905W        W31753   1.920   9.295  17.016  0.0417  0.2258 -0.2182
14906W        W31754  13.952  14.363  17.711  0.2543 -0.0737 -0.1712
14907W        W31755   9.915   1.580   4.374 -0.0877 -0.4046 -0.1593
14908W        W31756   7.684   7.618  12.067 -0.2147  0.3872  0.2089
14909W        W31757   2.235   2.121  12.811 -0.2321 -0.1449 -0.0067
14910W        W31758  12.214  14.033   5.414  0.0853 -0.1948  0.1600
14911W        W31759   0.630  11.167   5.240 -0.1678 -0.0422  0.1417
14912W        W31760   9.849  14.345  13.256 -0.0687 -0.0591 -0.1409
14913W        W31761   4.455  14.920   0.640 -0.0075  0.0705 -0.0014
14914W        W31762  14.675  17.045   1.466 -0.2224  0.2994  0.1655
14915W        W31763   5.850  10.795   2.321  0.1684  0.0943 -0.3140
14916W        W31764   2.357   9.906   3.127  0.3231  0.3329  0.1187
14917W        W31765  14.295  16.057   2.739 -0.0509  0.0721  0.1489
14918W        W31766  13.204  12.513   1.129  0.2164  0.3411  0.0031
14919W        W31767  14.022   6.104   1.107 -0.2834 -0.2122  0.2593
14920W        W31768   2.326   2.914  16.088  0.0719 -0.2358 -0.1608
14921W        W31769   1.835  12.769   2.339  0.0286 -0.1766  0.1798
14922W        W31770   5.613  12.501   3.473  0.0172 -0.1471 -0.1692
14923W        W31771  14.700   8.196   4.882  0.1639  0.2553 -0.1504
14924W        W31772  11.152   2.098   4.729 -0.1689 -0.0798  0.0197
14925W        W31773   5.347   1.479  16.939 -0.2491 -0.0422 -0.1283
14926W        W31774   1.837  14.204  13.834  0.1458 -0.0231  0.0224
14927W        W31775  11.212   5.364  11.724 -0.0808  0.1267 -0.0368
14928W        W31776  12.622   6.848  12.389  0.0596 -0.0214  0.3376
14929W        W31777  15.870   6.888  17.192  0.0490 -0.0185  0.2033
14930W        W31778   2.798   2.663   3.309  0.1716 -0.0710  0.1729
14931W        W31779  13.927   8.866  15.702  0.1819 -0.0180  0.1502
14932W        W31780   3.522   1.089   0.032 -0.1146 -0.1361 -0.1923
14933W        W31781  13.266   3.827  15.005 -0.2025 -0.0206 -0.0839
14934W        W31782  15.428  15.149  13.963 -0.0321 -0.0990 -0.0742
14935W        W31783  13.085   7.092  14.094  0.1821  0.3030 -0.0472
14936W        W31784  15.191  13.268   2.210 -0.0482  0.1724 -0.0492
14937W        W31785  14.526   9.442  17.271  0.1114  0.1179  0.1766
14938W        W31786  14.386  16.298  17.640 -0.3060 -0.3994 -0.0358
14939W        W31787  11.190  15.677  15.713  0.0104  0.1591 -0.0237
14940W        W31788   3.777   5.313   0.370  0.2209 -0.1544 -0.1206
14941W        W31789   6.249   8.030  16.728  0.0365  0.2134 -0.0388
14942W        W31790   0.057  16.716  15.033 -0.1147 -0.1949  0.3625
14943W        W31791   5.741  16.944  15.871 -0.0281 -0.2969 -0.2366
14944W        W31792   8.490   5.509  14.402 -0.0698 -0.0129 -0.2670
14945W        W31793   9.786  17.155  14.348  0.1614 -0.1656 -0.0956
14946W        W31794   4.784   2.449  15.536 -0.1009  0.2331 -0.1202
14947W        W31795   3.083   9.653   3.580  0.0630  0.0465  0.1166
14948W        W31796   9.546  15.735   4.379  0.0938 -0.0433  0.0481
14949W        W31797   9.846   6.094   1.106 -0.0657  0.0264  0.5638
14950W        W31798  13.223  12.482  14.931 -0.1397  0.2608 -0.1151
14951W        W31799  14.870  10.563   3.162  0.1445 -0.0050  0.0024
14952W        W31800  14.034  13.196   4.745  0.2460  0.2690  0.1887
14953W        W31801  13.616   8.218   2.344  0.1674 -0.0133  0.1231
14954W        W31802  15.272  15.193   5.281 -0.0225 -0.1519  0.0777
14955W        W31803   6.547  10.235  14.670  0.0392 -0.0527  0.1069
14956W        W31804   2.764  12.594   4.664  0.0734  0.2884 -0.3816
14957W        W31805   6.840   1.235   0.500 -0.1272  0.2375  0.1074
14958W        W31806  10.855   0.565   3.219 -0.1463  0.0116  0.3149
14959W        W31807   0.186  14.129   0.143  0.1792  0.4794 -0.2426
14960W        W31808  14.464  10.648   5.034 -0.1620  0.1331 -0.2666
14961W        W31809   0.359   2.168  17.646  0.2582  0.1883  0.0645
14962W        W31810   0.233   4.283   2.967 -0.2397 -0.0188 -0.0116
14963W        W31811  15.424  10.843   1.562 -0.0708 -0.0934 -0.0819
14964W        W31812  13.297   0.616  12.145  0.3329 -0.1252 -0.1317
14965W        W31813   2.334  13.782   1.172 -0.1806 -0.0640  0.1204
14966W        W31814  13.239   9.081  13.016  0.0624  0.1923  0.0027
14967W        W31815   3.726  13.415  15.023 -0.1875  0.0189 -0.0068
14968W        W31816  14.233   6.685   4.390 -0.3317  0.4154 -0.0971
14969W        W31817   8.957   8.187  11.983 -0.0942  0.0041  0.1595
14970W        W31818   7.207   3.913   3.944  0.1069 -0.3285 -0.0012
14971W        W31819   6.889   7.559  16.284  0.1264 -0.0920  0.0902
14972W        W31820  14.931   7.861  11.827 -0.1343 -0.5447 -0.0532
14973W        W31821  14.104  15.314  17.663  0.0409  0.0164 -0.1054
14974W        W31822   1.207  16.796  14.376  0.1108  0.0707  0.3057
14975W        W31823   8.943   4.465   2.429  0.1657  0.3012 -0.1113
14976W        W31824  13.989  15.679  12.963  0.0084 -0.0048 -0.1065
14977W        W31825   4.888  16.886  15.264  0.0760  0.2037 -0.0849
14978W        W31826   3.987   0.005  12.938  0.1051  0.2646  0.0576
14979W        W31827   4.484   9.352  12.194 -0.2937 -0.1746  0.0687
14980W        W31828   8.307   1.608   4.117  0.1018  0.3201 -0.0821
14981W        W31829  10.822   8.124  13.774 -0.1876 -0.0881 -0.1082
14982W        W31830   9.511  16.317  13.275  0.1917  0.0962  0.0676
14983W        W31831  14.251  16.431  15.604  0.0461  0.2803 -0.0809
14984W        W31832  14.616   3.904   1.853 -0.2109  0.0283  0.0167
14985W        W31833  13.420   5.655   2.126 -0.1884 -0.0059 -0.2497
14986W        W31834   2.149   4.256   3.817  0.3310 -0.3357 -0.0061
14987W        W31835  10.104   1.377  13.747  0.0434 -0.0674  0.0970
14988W        W31836  10.408   3.073  11.807 -0.1958  0.0070  0.2868
14989W        W31837   1.463   6.753   2.617  0.1692 -0.2007 -0.0763
14990W        W31838   9.851   9.788   2.931 -0.0350  0.0089  0.2012
14991W        W31839  11.255   4.490  13.919  0.1237 -0.1439  0.3562
14992W        W31840  10.767   6.367   2.705 -0.1608 -0.2714 -0.1226
14993W        W31841   3.819  16.545   1.602 -0.3189 -0.1868 -0.0307
14994W        W31842  10.699   8.403   0.857 -0.0132 -0.0763 -0.1376
14995W        W31843  15.726   8.785  15.102  0.2161 -0.1269  0.2136
14996W        W31844  15.838   6.870  13.575  0.0703  0.2354 -0.0766
14997W        W31845  11.264  16.679  15.167 -0.1602  0.0424  0.1579
14998W        W31846  14.659  10.151  13.147 -0.2873 -0.1676 -0.1218
14999W        W31847   1.325   1.930   5.715  0.1020  0.0780 -0.0447
15000W        W31848   1.187   8.345   5.670  0.0495  0.4283 -0.2856
15001W        W31849   5.121  15.750  15.670 -0.2253  0.0248 -0.0953
15002W        W31850   9.851   5.875   1.551 -0.0739 -0.1952  0.1809
15003W        W31851   5.733   1.042   5.424 -0.0693 -0.2064  0.0855
15004W        W31852   7.942  10.542  12.382 -0.1621  0.1888 -0.0552
15005W        W31853   4.842   2.940   1.419 -0.0142  0.0797 -0.1155
15006W        W31854   2.530   8.852  17.346  0.0007  0.1729 -0.0675
15007W        W31855   6.454  10.556  16.433  0.0771 -0.0509 -0.0751
15008W        W31856   0.898  10.488  15.878 -0.2025 -0.3027  0.1331
15009W        W31857  12.686   1.118  13.461  0.3484 -0.1088 -0.1516
15010W        W31858   1.874  14.826   3.646  0.0956 -0.1242 -0.0800
15011W        W31859   3.460   5.113  12.526  0.0950 -0.4426 -0.1438
15012W        W31860   4.574  12.844   6.359 -0.0403  0.2032 -0.0231
15013W        W31861  11.125  15.488  13.874 -0.1655 -0.0846  0.2810
15014W        W31862  13.808   5.296   6.144  0.1065 -0.2185  0.0656
15015W        W31863  11.715   1.732   3.531  0.0428  0.1085 -0.1819
15016W        W31864  12.468   9.765  13.420 -0.0783  0.1485 -0.0819
15017W        W31865   3.033  16.667  14.019  0.1485 -0.0404 -0.0642
15018W        W31866  13.309  13.524   4.381  0.3025 -0.0349 -0.0654
15019W        W31867  16.140  16.258   5.390  0.0087  0.0884 -0.2216
15020W        W31868   1.128  14.887  16.611  0.0807  0.1217  0.0097
15021W        W31869  15.821  13.894   3.768 -0.1387  0.2474  0.2514
15022W        W31870   6.058  11.506   5.340 -0.0082 -0.5157  0.0116
15023W        W31871   1.180   4.495  16.610 -0.1787 -0.1168  0.1585
15024W        W31872   7.388   6.499  16.922 -0.2485 -0.1771 -0.3124
15025W        W31873   9.136  14.456  12.592  0.0099  0.1905  0.1277
15026W        W31874   0.642  14.858   1.350  0.0636  0.3173 -0.1016
15027W        W31875  10.017  14.631   0.128 -0.0195 -0.0679 -0.1714
15028W        W31876   2.059   2.552  14.448  0.1183 -0.2374 -0.2730
15029W        W31877  10.981  13.932   5.127 -0.0634  0.0943 -0.3062
15030W        W31878  14.525   8.456   4.023  0.0785  0.0478  0.4655
15031W        W31879   5.365   4.951   3.199  0.1097 -0.1386  0.2812
15032W        W31880   0.226   2.251  12.422 -0.0021  0.4669 -0.1622
15033W        W31881   6.078   1.787   3.574  0.1035  0.0319 -0.1982
15034W        W31882   3.128   6.463  14.517  0.4195 -0.0215 -0.0217
15035W        W31883  16.512   5.158   3.355  0.1700  0.0349 -0.2493
15036W        W31884   2.847   8.672  11.581 -0.2447  0.1695 -0.1804
15037W        W31885   1.673  12.096  17.218  0.0656  0.0538  0.5298
15038W        W31886   6.218   0.813  13.606 -0.2345  0.2579  0.5291
15039W        W31887   1.365  12.542   2.665 -0.2800 -0.1667  0.0088
15040W        W31888  15.927   4.246   1.381 -0.1381 -0.0887  0.1715
15041W        W31889   8.491   4.650   1.678  0.2121  0.0261 -0.3222
15042W        W31890   4.730   6.615  13.213  0.3392  0.0462  0.0973
15043W        W31891   7.121   7.838   1.142 -0.1207  0.2027  0.0383
15044W        W31892  16.158  12.421   5.555 -0.1880 -0.1486 -0.1773
15045W        W31893   6.348   3.537   2.672  0.1350  0.0607  0.1329
15046W        W31894   0.459  10.751   3.526 -0.0406 -0.1797 -0.2145
15047W        W31895  13.940  13.712  12.711  0.0005  0.1959 -0.0484
15048W        W31896   6.793   9.629  16.097 -0.1154 -0.0220 -0.2097
15049W        W31897   5.947  12.161  17.080  0.2414 -0.1324 -0.1699
15050W        W31898   6.206  10.952  12.501  0.2040 -0.1793  0.1216
15051W        W31899   0.017   6.990   2.051 -0.1234 -0.2115  0.3109
15052W        W31900  10.683  12.971   4.714  0.0042 -0.0081  0.0359
15053W        W31901   7.223   8.281   4.221  0.0191 -0.2982 -0.0458
15054W        W31902   7.101  11.106  17.527 -0.0559  0.3955  0.2571
15055W        W31903   0.911   3.079  13.931 -0.2148 -0.2312 -0.1060
15056W        W31904   3.548  11.080   0.555  0.1662  0.1143 -0.1810
15057W        W31905  16.827  16.152  16.140  0.0058  0.1531 -0.1343
15058W        W31906  12.484   6.266  16.494  0.0227 -0.0437 -0.0846
15059W        W31907  10.659  12.948  16.882 -0.0996 -0.0359  0.0301
15060W        W31908   7.918  14.752  17.581 -0.0839  0.2599 -0.0703
15061W        W31909   0.664  10.443  17.327  0.2817 -0.2878 -0.1378
15062W        W31910   2.767   7.612   1.787  0.1672 -0.0274  0.1269
15063W        W31911  15.799  11.326   5.602  0.0244  0.2448 -0.1268
15064W        W31912   1.038  10.217   3.064 -0.0280  0.1432 -0.1390
15065W        W31913  14.150   0.343  17.436 -0.2505  0.0045  0.0660
15066W        W31914   3.146  10.183   5.575 -0.3460 -0.1812 -0.3087
15067W        W31915  15.583  12.695   3.494 -0.1922 -0.3614  0.3767
15068W        W31916   9.290   2.491  17.577  0.0728 -0.2701 -0.3069
15069W        W31917   8.068   6.842  16.492  0.0189  0.2258  0.3239
15070W        W31918  13.447   4.497  11.757  0.0261  0.1855 -0.4592
15071W        W31919   6.381   5.364   5.497 -0.0527  0.3575  0.1090
15072W        W31920   8.292  14.853   2.046  0.0435  0.0005 -0.1861
15073W        W31921   0.873  12.262  15.185 -0.1113 -0.2433 -0.2242
15074W        W31922  12.416   1.656  17.336  0.1594  0.2114  0.2613
15075W        W31923  16.928  16.493   0.161 -0.1945 -0.0430  0.0935
15076W        W31924   9.756  12.247   4.032 -0.4392  0.0658  0.1469
15077W        W31925   9.018   0.002   4.122 -0.1897 -0.2497  0.0708
15078W        W31926  11.489  14.244  16.634  0.2674 -0.0327  0.0718
15079W        W31927  14.711   6.717  13.383 -0.0403  0.0058 -0.1914
15080W        W31928   3.181  15.055   0.045 -0.4730  0.2690 -0.0280
15081W        W31929   6.950  16.302  14.498  0.0502 -0.0958 -0.4604
15082W        W31930  17.081  15.640  15.039 -0.4298 -0.1097 -0.3107
15083W        W31931   6.256   9.737  14.639 -0.0471  0.1336 -0.2851
15084W        W31932   5.716   9.227   2.663 -0.1950  0.1100 -0.3756
15085W        W31933  16.228  15.316   3.754  0.0195  0.0302  0.0689
15086W        W31934  13.449   0.530   1.538  0.1783  0.3519  0.1619
15087W        W31935   1.991  13.120   0.866 -0.1249 -0.1939  0.2494
15088W        W31936   3.362   7.308   0.682 -0.0039 -0.3009 -0.2433
15089W        W31937   2.607  10.326   2.186 -0.0015  0.0712 -0.0720
15090W        W31938   6.545   8.819  14.887 -0.2680  0.2642  0.3101
15091W        W31939   0.038   4.798  17.710  0.3356 -0.1443 -0.2221
15092W        W31940   3.201  12.843   1.828  0.2236  0.0642 -0.1809
15093W        W31941   6.205  12.254   0.311  0.1184  0.1023  0.1179
15094W        W31942  11.048  16.834  13.351  0.0443  0.5858 -0.2685
15095W        W31943  14.907   4.674  15.666  0.1540  0.4035  0.0626
15096W        W31944   4.702  16.046  12.523 -0.0511  0.5386  0.1500
15097W        W31945   5.694   3.203  17.040 -0.2089  0.1341  0.0754
15098W        W31946  12.760   1.542  11.790  0.1628 -0.1557 -0.3209
15099W        W31947   1.093   3.867  15.037 -0.2117 -0.1360  0.0169
15100W        W31948   9.984  13.123  12.009  0.2790  0.1938 -0.0285
15101W        W31949  11.219   4.027   5.265  0.0990 -0.0533 -0.0769
15102W        W31950  11.443  15.111  16.356 -0.3451  0.1595 -0.0662
15103W        W31951   6.663  11.747   0.612  0.0718  0.2512 -0.0924
15104W        W31952   1.797   9.512  15.010  0.1156  0.1952 -0.0642
15105W        W31953  13.028  16.505  14.388 -0.1575 -0.0225 -0.4280
15106W        W31954  11.948  11.968  14.087 -0.0527 -0.0561 -0.3559
15107W        W31955  10.820   9.819   1.776  0.2043  0.3955 -0.0110
15108W        W31956  11.209   2.710  13.797  0.0963 -0.0661  0.0785
15109W        W31957  15.209   1.071  15.953 -0.1459  0.1780 -0.1641
15110W        W31958  11.741   8.103   0.353  0.2706  0.0037  0.0693
15111W        W31959   0.575  12.385   3.067 -0.3833 -0.0154  0.1314
15112W        W31960   4.533   6.944   3.572  0.3297  0.0399  0.1077
15113W        W31961   9.180   1.412   0.776  0.0857 -0.0060 -0.2545
15114W        W31962   5.617   6.406  15.407  0.2463 -0.0345 -0.0981
15115W        W31963   0.983  15.366   6.051 -0.0859  0.1638  0.0592
15116W        W31964   3.485  12.077   0.481  0.0251  0.0575  0.1123
15117W        W31965  16.572  14.132   1.725  0.0258  0.0392  0.1318
15118W        W31966   6.508   2.520   0.225  0.0332 -0.0579  0.0721
15119W        W31967  13.341  10.063   1.696 -0.2171 -0.4707 -0.0878
15120W        W31968  13.455  14.048   5.957 -0.1229  0.0551  0.0592
15121W        W31969  14.608  15.529   1.341 -0.3178 -0.2131 -0.2358
15122W        W31970   8.262  10.352   2.765  0.0086 -0.0659  0.0905
15123W        W31971  11.347  15.081  11.764  0.0550 -0.1483  0.0301
15124W        W31972   6.677   9.071  11.810  0.2391 -0.0634  0.0534
15125W        W31973   1.055  13.607   4.588  0.2686 -0.1164  0.1347
15126W        W31974   6.761   5.536   3.759 -0.0370 -0.1357 -0.0200
15127W        W31975  16.204   6.947   5.399  0.2271  0.0664 -0.1936
15128W        W31976  12.003  10.644   0.592 -0.0329  0.2549 -0.0472
15129W        W31977  10.921   2.374   1.987  0.0117 -0.3359  0.1103
15130W        W31978  14.054  16.142   1.042 -0.2470  0.0963 -0.3462
15131W        W31979  11.734  15.440   1.682 -0.0568  0.1542 -0.3248
15132W        W31980  11.235  14.634   1.146  0.0846  0.2421 -0.0778
15133W        W31981  14.576  14.090  15.793 -0.1539  0.2490  0.4359
15134W        W31982  15.993   0.126   5.579  0.2922 -0.1390 -0.1697
15135W        W31983   4.170   1.846   2.135  0.1344 -0.0014  0.3377
15136W        W31984   2.584   9.568   5.695 -0.3703 -0.0600  0.1640
15137W        W31985  10.259   2.447   2.695 -0.0517 -0.2146 -0.0605
15138W        W31986   0.465  15.980   4.863  0.1636  0.0099  0.1373
15139W        W31987   8.964  16.231   5.060 -0.1470 -0.0313 -0.0569
15140W        W31988  16.585   3.320  14.374  0.1117  0.1392  0.0239
15141W        W31989  14.373  12.106  16.329 -0.3855 -0.1225 -0.0340
15142W        W31990   3.433   2.921   4.036 -0.2270 -0.6163  0.1429
15143W        W31991  15.980   9.217  17.135 -0.1082 -0.1346  0.2477
15144W        W31992   4.604  10.226   5.514  0.0205  0.0046 -0.1610
15145W        W31993  14.737  14.791   2.212  0.1772  0.0203 -0.3050
15146W        W31994  16.070  11.911   3.361 -0.0484 -0.1232 -0.1800
15147W        W31995   8.035   4.610  14.774 -0.1724  0.0189 -0.2893
15148W        W31996   7.100   8.430   0.977  0.1307 -0.2527 -0.2741
15149W        W31997   3.776   1.282   4.135 -0.0539 -0.0610  0.0271
15150W        W31998   4.566   1.456  13.921 -0.2815  0.0198  0.0938
15151W        W31999   7.887   8.656   1.314 -0.1740 -0.1678 -0.0039
15152W        W32000   3.186   2.892  13.624 -0.1494  0.0461 -0.2472
15153W        W32001  12.521  16.091  12.046 -0.1978  0.2220  0.2000
15154W        W32002  16.757   2.960   2.336  0.1489 -0.1729  0.3118
15155W        W32003  13.216   0.282   3.001  0.0358 -0.1678 -0.0364
15156W        W32004   0.812   1.281  17.263 -0.0553  0.2676 -0.2409
15157W        W32005   6.485  13.229  16.641  0.0363 -0.0932  0.1541
15158W        W32006  12.474   4.222  11.813 -0.2678  0.0384  0.4077
15159W        W32007   0.045   6.785   3.521  0.0712 -0.2742  0.1221
15160W        W32008  10.359   0.131  16.250  0.1383 -0.1808  0.1120
15161W        W32009   5.200  11.487   4.341 -0.0823 -0.0770 -0.0551
15162W        W32010  16.237  11.440   5.451 -0.2090 -0.1756  0.0580
15163W        W32011   0.192   6.382  15.773 -0.0532 -0.0543 -0.5354
15164W        W32012  16.895  17.065  14.777  0.0758  0.1428 -0.0668
15165W        W32013  11.634   3.879   3.195 -0.1395  0.0707  0.0215
15166W        W32014   5.893   4.140  13.725  0.2713 -0.0397  0.0755
15167W        W32015   4.737  12.007  14.330 -0.2189 -0.1996 -0.0881
15168W        W32016   1.903   8.592   4.152 -0.2113 -0.0003 -0.1573
15169W        W32017   0.493   7.547   6.349  0.0203  0.1262  0.2757
15170W        W32018  11.862  11.013  13.500  0.0239  0.0377 -0.1965
15171W        W32019   6.026  11.233  12.959  0.0296 -0.0822  0.2168
15172W        W32020  16.824   3.741  15.734 -0.1055  0.1748 -0.1512
15173W        W32021  12.507   5.602   0.785  0.2266 -0.0169  0.1285
15174W        W32022  15.845  13.040  17.540  0.1116  0.2114 -0.4313
15175W        W32023   1.752  11.783   3.300 -0.1213  0.3612 -0.2534
15176W        W32024   9.518   3.484   0.512 -0.2047  0.0697  0.1057
15177W        W32025  14.933   3.823   4.411  0.1167  0.0445  0.1481
15178W        W32026   7.020  12.531  17.730  0.0893  0.0910 -0.0003
15179W        W32027  11.123  16.494   0.169  0.1444 -0.0944  0.2027
15180W        W32028   7.807   8.114   2.568 -0.0479 -0.1671  0.2533
15181W        W32029   9.996   2.519   4.782  0.0405 -0.2283 -0.0037
15182W        W32030  16.964   3.340  14.731 -0.0001  0.0004 -0.1752
15183W        W32031  12.354   6.694  16.213 -0.1177  0.0715 -0.2599
15184W        W32032   1.016   7.774  15.567  0.0574  0.1529  0.0495
15185W        W32033   3.579  10.004   1.983  0.0053 -0.1199  0.4494
15186W        W32034   1.966  11.534   4.887  0.0358 -0.1460 -0.5306
15187W        W32035  16.210   9.708   1.422  0.1928 -0.1214 -0.3242
15188W        W32036   0.247  13.417  12.798  0.0460  0.2211  0.1273
15189W        W32037  15.200   3.807   5.531 -0.3095  0.1272  0.0586
15190W        W32038   2.259   2.419   2.531  0.3989 -0.0343  0.1019
15191W        W32039   7.029   9.366  12.656 -0.1311  0.0609  0.0384
15192W        W32040   2.713   0.396   2.122 -0.2230  0.0288  0.0032
15193W        W32041   8.340  15.008  12.726 -0.0310  0.0714  0.0015
15194W        W32042   0.115   3.064   1.519  0.0943  0.3993 -0.0173
15195W        W32043  10.585   2.994   3.784 -0.0986 -0.0845  0.0443
15196W        W32044   8.450   7.972   4.622  0.2206 -0.1899  0.0176
15197W        W32045   3.170   4.266   3.052 -0.1852  0.0252 -0.2717
15198W        W32046  10.273  10.835   2.110 -0.1760  0.0004  0.2903
15199W        W32047   5.700   0.535  16.011  0.0169 -0.1108 -0.2874
15200W        W32048   6.899   4.334   1.141 -0.1479 -0.1919 -0.2103
15201W        W32049   2.240   9.463   0.808  0.1442  0.1963  0.0467
15202W        W32050   5.193   7.665  14.922 -0.1276 -0.0860 -0.2193
15203W        W32051   9.501   0.319   4.031  0.0530 -0.1792  0.2655
15204W        W32052   9.943  15.206   3.358  0.0471  0.2885  0.1294
15205W        W32053  11.740  15.286   2.889 -0.0017  0.0423 -0.3919
15206W        W32054   9.221  14.282  15.926  0.0320 -0.3214  0.0426
15207W        W32055  14.021  13.551  12.251 -0.2371  0.1623 -0.2683
15208W        W32056  14.909   3.420   5.737  0.0325  0.0340 -0.0636
15209W        W32057  13.115   6.571   3.135 -0.1522 -0.0103 -0.1916
15210W        W32058   1.655  10.389   4.111 -0.1262  0.0412 -0.0834
15211W        W32059   9.808   7.730  15.018 -0.0363 -0.0425  0.0899
15212W        W32060   1.020   5.598   2.494  0.0474 -0.0166  0.0499
15213W        W32061   1.186   0.443  14.095  0.0066  0.3014 -0.1550
15214W        W32062   2.609  14.682   5.586  0.0910 -0.0656 -0.0740
15215W        W32063   4.683  11.470   4.546  0.1812  0.0676 -0.1474
15216W        W32064  14.720   8.418   0.741  0.0213 -0.0840  0.0815
15217W        W32065   6.480   0.405  16.405 -0.2029 -0.0949 -0.0334
15218W        W32066   1.629   7.152  17.639  0.0588  0.0718  0.0991
15219W        W32067   3.785   6.845  16.843 -0.0167  0.0482  0.0954
15220W        W32068   2.446  12.360   1.361  0.3997  0.0176  0.0733
15221W        W32069   3.009   4.208   3.596 -0.0060 -0.0076  0.0897
15222W        W32070   9.199   0.671  12.327 -0.5365  0.2338 -0.0247
15223W        W32071   7.867   9.572   0.030  0.2658  0.2451  0.1494
15224W        W32072  16.431   0.357  12.417  0.2753 -0.1771 -0.0344
15225W        W32073  10.753   3.020  15.191 -0.2273  0.0465  0.2058
15226W        W32074   4.290   9.774   3.417  0.0050 -0.4254 -0.2074
15227W        W32075  11.960  11.314  13.024  0.0137  0.2365 -0.0199
15228W        W32076  12.140   9.227   1.632  0.1159 -0.1254  0.2686
15229W        W32077   3.760  17.164   0.289 -0.0084  0.0343  0.0288
15230W        W32078  12.014   5.797  13.692 -0.1159  0.2227  0.3437
15231W        W32079   7.543   3.085   1.866 -0.1541  0.1266 -0.1409
15232W        W32080   0.389  13.843   5.423  0.0294 -0.0119  0.2243
15233W        W32081   9.093   8.501   4.593  0.2516 -0.0115  0.2855
15234W        W32082   4.695  12.320  15.673 -0.1497  0.0135  0.3563
15235W        W32083   1.491   5.136   4.034  0.0457  0.1290 -0.0620
15236W        W32084  11.631   4.946  11.836 -0.2496  0.2366 -0.0859
15237W        W32085   5.569   4.468  14.465 -0.1759 -0.2144  0.0954
15238W        W32086  14.164  10.982   3.712 -0.1374 -0.0053 -0.3358
15239W        W32087   8.015  15.222   2.115  0.0741  0.0151  0.1786
15240W        W32088   5.055  15.181   1.114  0.0355  0.0621  0.2504
15241W        W32089  10.659  13.272  14.167 -0.1839  0.1278 -0.1702
15242W        W32090  15.249   2.389  14.184 -0.1090 -0.0012 -0.0821
15243W        W32091   1.671  12.311  12.536  0.0584 -0.1263 -0.4184
15244W        W32092  16.136  15.651   0.203 -0.1255  0.0829  0.0756
15245W        W32093  14.928  12.115  14.427  0.1204 -0.0129  0.0725
15246W        W32094   7.281   0.456  15.733 -0.2508  0.2786  0.0125
15247W        W32095   5.111   3.905   3.127 -0.0692 -0.1291 -0.0068
15248W        W32096  10.025   1.210   1.818 -0.2464  0.0901  0.0437
15249W        W32097   2.417   2.739   5.354  0.0187  0.2825 -0.0909
15250W        W32098  10.662   0.333   4.561 -0.0666 -0.0063  0.0270
15251W        W32099   2.431  11.911  14.486  0.2030 -0.0009  0.1279
15252W        W32100  12.823   5.927  15.056 -0.1885  0.0913  0.0110
15253W        W32101   2.457   7.358   4.591 -0.0325 -0.0578  0.4280
15254W        W32102  14.043   9.356   2.204  0.0609 -0.1993  0.3056
15255W        W32103  13.311   5.874   2.704 -0.0706  0.1583  0.3419
15256W        W32104   2.786   0.938   0.481 -0.1160  0.4546 -0.0354
15257W        W32105   1.147   2.859  14.390  0.1630  0.0032  0.1861
15258W        W32106   2.227   6.961  17.113  0.0902 -0.0791 -0.1400
15259W        W32107  15.060   2.074   2.706 -0.0329 -0.1120  0.0460
15260W        W32108   9.853   3.095  13.018  0.1057 -0.2135  0.2586
15261W        W32109  11.961  10.086  12.929  0.2588 -0.0675  0.1151
15262W        W32110   2.972  15.359  16.652 -0.1125 -0.3267  0.3442
15263W        W32111  13.375  10.728  12.788  0.3761  0.3520  0.1705
15264W        W32112   7.913  10.068   3.415 -0.2111 -0.0976 -0.0162
15265W        W32113   1.090   3.960   1.920 -0.2575 -0.2095  0.1130
15266W        W32114   7.075  12.916  14.346  0.1385 -0.0371 -0.1818
15267W        W32115   1.729   7.534   0.377  0.0485 -0.0127 -0.0936
15268W        W32116   9.513   3.146   2.921  0.1455  0.0610 -0.2019
15269W        W32117   7.818   0.597  17.159 -0.2718 -0.0645 -0.0869
15270W        W32118  15.084  16.662   2.498  0.1191 -0.0008  0.1256
15271W        W32119  12.000   3.988  16.643  0.1324  0.0180 -0.1040
15272W        W32120   2.578  13.080   3.632  0.0174  0.3016  0.0568
15273W        W32121   9.883  17.118   4.841 -0.1538 -0.0816 -0.0404
15274W        W32122  14.922  10.952   0.317  0.1434  0.2478  0.0144
15275W        W32123  14.701  12.409  15.814 -0.2396 -0.0554  0.0974
15276W        W32124  14.906  16.597  12.910  0.0423 -0.4478  0.1289
15277W        W32125   9.636   3.169  12.563  0.0120 -0.2400  0.1068
15278W        W32126   0.273   4.313  15.935  0.1708  0.1511 -0.1200
15279W        W32127  17.136  13.966  17.075  0.1158 -0.1210 -0.0628
15280W        W32128   7.726  14.358  16.892 -0.4538  0.1153  0.0557
15281W        W32129   1.208   1.587  17.343  0.0725  0.3217  0.1396
15282W        W32130  11.556  12.694   2.678  0.3834  0.3263 -0.2566
15283W        W32131   3.673  11.362   4.811  0.0776 -0.2844 -0.4294
15284W        W32132   7.815   6.155  14.128 -0.1261 -0.1183  0.1926
15285W        W32133   1.867   6.917  15.352  0.1720  0.0989  0.2280
15286W        W32134  10.928   7.644  13.902 -0.0709 -0.1945  0.0959
15287W        W32135   3.860  10.793  14.053 -0.1018 -0.2408  0.0213
15288W        W32136  16.859  16.652  15.417  0.2741  0.0907  0.3299
15289W        W32137   2.955   0.076   5.388 -0.0523  0.0318  0.0652
15290W        W32138  10.767   3.121   1.521 -0.0074  0.3386 -0.0121
15291W        W32139   2.566  10.357   4.072 -0.1342  0.0228 -0.2620
15292W        W32140  10.487  14.226   4.343  0.0200 -0.0675 -0.1616
15293W        W32141   2.651  14.472   5.081  0.2545  0.1177  0.3549
15294W        W32142   2.357   8.757   4.085  0.2424 -0.3086 -0.1023
15295W        W32143   5.459   7.694  13.460 -0.0898  0.1364  0.1891
15296W        W32144   1.803  14.374   3.818 -0.4772  0.0596 -0.0243
15297W        W32145  15.894   4.695  15.476 -0.2060  0.0149  0.1355
15298W        W32146   2.919   4.228   4.381  0.1996 -0.1072 -0.1374
15299W        W32147  13.450   6.817  16.598 -0.1219 -0.1210 -0.3901
15300W        W32148  12.237   6.910   2.486  0.1566  0.1318  0.1630
15301W        W32149  15.898  13.501   1.005  0.4907  0.2163  0.1129
15302W        W32150   4.784   4.506   3.028 -0.2491  0.0813  0.0026
15303W        W32151   9.138  16.511   2.417  0.3001 -0.2459  0.1219
15304W        W32152   2.495   7.827  14.741 -0.0327  0.0029 -0.0044
15305W        W32153   2.120   1.223   5.857 -0.0436  0.1513  0.0380
15306W        W32154  14.719   6.801   5.915  0.1240 -0.1455 -0.1078
15307W        W32155  15.506   4.072  17.068 -0.0656 -0.1457  0.3817
15308W        W32156   1.401  13.727  13.830  0.4929  0.1385  0.1277
15309W        W32157  11.701   3.723  16.919  0.1370  0.2206 -0.0595
15310W        W32158   6.142  16.245   2.802 -0.2723  0.4267 -0.3057
15311W        W32159   0.111   2.368  16.403 -0.1530  0.0459  0.0695
15312W        W32160  16.031   7.647   1.673 -0.2364  0.0028  0.2110
15313W        W32161   2.214  11.927   5.471 -0.1357 -0.3122 -0.1139
15314W        W32162  11.136  16.467  12.949 -0.1600  0.1367 -0.0777
15315W        W32163   0.116   9.805  15.895  0.0109 -0.0782 -0.2507
15316W        W32164   6.758   2.954  16.460  0.0906  0.0122  0.2581
15317W        W32165  12.004   1.233  14.549  0.0337 -0.0883  0.0100
15318W        W32166  15.234   3.310  16.564 -0.1511  0.2604 -0.0062
15319W        W32167   3.958   7.185   5.529  0.0385  0.0062 -0.1089
15320W        W32168   5.148   4.176  14.322 -0.1192 -0.1767  0.3578
15321W        W32169   4.609   3.718  13.862 -0.1112  0.1592  0.1974
15322W        W32170   3.808  15.133   5.634  0.0293 -0.1324 -0.0579
15323W        W32171   8.404  12.368  14.432 -0.2934 -0.2252 -0.0747
15324W        W32172   3.230   2.466   5.552  0.1711 -0.2423 -0.1660
15325W        W32173  13.855   0.798   2.504  0.0832 -0.2208  0.0140
15326W        W32174  11.514   3.631  14.845  0.0184 -0.2920  0.1563
15327W        W32175  12.537  11.849  13.233  0.2285 -0.1534  0.0261
15328W        W32176   7.338   3.523  16.767 -0.1343 -0.1542 -0.1326
15329W        W32177   8.630   5.983   1.036 -0.3708 -0.1134  0.1990
15330W        W32178   2.696   8.171   1.626 -0.0644 -0.1041  0.1175
15331W        W32179   9.290  16.892   0.648  0.1790 -0.0853 -0.1980
15332W        W32180  12.361   2.973  12.639  0.2246  0.0692  0.3253
15333W        W32181  13.852   1.517  13.073  0.1299 -0.2130 -0.3246
15334W        W32182   8.196   4.640   4.842  0.4305  0.1124  0.0592
15335W        W32183   2.098  13.711  16.822  0.0521 -0.1908 -0.0413
15336W        W32184  12.714  10.700   3.703 -0.0001 -0.2735  0.1537
15337W        W32185  14.669  11.640  16.250  0.1413  0.2069 -0.1197
15338W        W32186   3.206  10.087  15.977  0.1370  0.1085  0.0789
15339W        W32187   4.224  16.586  14.349  0.0944 -0.1308  0.2692
15340W        W32188  12.764   1.915   4.914 -0.1044  0.0677  0.0844
15341W        W32189   6.136   5.401   3.036 -0.0852  0.0827 -0.0217
15342W        W32190  14.418  12.302  16.769  0.1505  0.1076  0.3755
15343W        W32191   4.414   9.263   4.642 -0.1891 -0.0169 -0.1446
15344W        W32192  13.215  11.963  17.220 -0.1207 -0.0424 -0.2567
15345W        W32193  15.357  13.963   2.871 -0.2924  0.1085  0.1405
15346W        W32194   3.443   4.049   2.696  0.0004 -0.3026 -0.1716
15347W        W32195   9.805   3.763   4.126  0.0919 -0.1065  0.0087
15348W        W32196   3.997   9.730   1.904  0.1022 -0.1225 -0.1515
15349W        W32197   7.653  14.657   2.785  0.0500 -0.0133 -0.2238
15350W        W32198  11.473   3.829   1.910 -0.1329  0.0026  0.3078
15351W        W32199  13.230   6.683  14.305  0.1835  0.0487 -0.2211
15352W        W32200  12.122   6.093  12.021 -0.0558  0.1524 -0.0728
15353W        W32201   7.038  15.518  15.572  0.0577 -0.0458  0.1860
15354W        W32202   7.291   4.515  16.137 -0.0977  0.0156  0.0643
15355W        W32203   0.302   0.922  15.766 -0.1591 -0.0273  0.2229
15356W        W32204  12.030   8.382  13.262 -0.0498  0.0926 -0.0644
15357W        W32205  10.925   1.989   5.187 -0.1940 -0.1428 -0.0551
15358W        W32206   7.500   9.888   1.219 -0.2829  0.1474  0.0017
15359W        W32207  12.687   5.144  13.999 -0.2093  0.0296  0.2267
15360W        W32208  13.189   0.849   1.254 -0.0164 -0.0479  0.0208
15361W        W32209  13.111   5.390  12.644  0.2147 -0.0682  0.2303
15362W        W32210  11.165  14.254  13.420  0.2323  0.0935  0.1261
15363W        W32211   2.671  10.815  15.087  0.1320 -0.1920 -0.0006
15364W        W32212  16.576   2.607   1.991 -0.0400  0.1963 -0.5483
15365W        W32213   4.936  13.231   6.319  0.3801 -0.0347 -0.0461
15366W        W32214   1.472  17.014   2.436  0.0217  0.0874  0.2193
15367W        W32215   5.465  13.396   0.378 -0.0419  0.0057 -0.1390
15368W        W32216   2.455  11.693  17.586 -0.0486  0.0571  0.0817
15369W        W32217   6.033   0.287  11.999 -0.1550  0.1945 -0.2108
15370W        W32218  16.526  13.736   4.719  0.0965 -0.2263 -0.1305
15371W        W32219   7.094  16.277   6.388 -0.1403 -0.2049  0.1915
15372W        W32220   8.010   4.453   5.282  0.0387 -0.1912 -0.0545
15373W        W32221  13.641   5.711  17.595 -0.2064 -0.1236 -0.0269
15374W        W32222  13.645   7.261  12.468  0.0634 -0.2252 -0.0571
15375W        W32223   3.396  14.888   5.792  0.0129 -0.1200 -0.1086
15376W        W32224  11.736   1.393  15.960 -0.0965 -0.1358 -0.3399
15377W        W32225  15.534  14.311   4.748 -0.1750 -0.0665  0.0258
15378W        W32226   2.334   3.067  12.958  0.1304  0.0125 -0.1983
15379W        W32227  12.503   8.931  15.359  0.3057 -0.3304  0.2326
15380W        W32228   7.859   2.636  14.121  0.1427 -0.3875  0.0353
15381W        W32229  15.220   9.743   1.212 -0.0502  0.1522 -0.1453
15382W        W32230   1.987  11.894   2.076  0.3557 -0.0138 -0.1136
15383W        W32231  14.974  11.277   4.035 -0.1555 -0.0167  0.2872
15384W        W32232   3.488  12.753   4.700 -0.1157 -0.1027 -0.3483
15385W        W32233   8.188  13.544   1.202  0.3873  0.2021 -0.0617
15386W        W32234  13.288   0.356  14.478 -0.0363  0.1694  0.0368
15387W        W32235   7.394   5.030   4.968  0.0466 -0.1905 -0.1800
15388W        W32236  11.555   7.383   5.396 -0.2178  0.1300  0.0301
15389W        W32237   9.176   8.575   5.371 -0.3482  0.2242  0.4950
15390W        W32238   4.969   0.210  17.382 -0.0415  0.3839 -0.3251
15391W        W32239   1.272   8.136   2.387  0.3826  0.3340 -0.0667
15392W        W32240   5.344   3.030  17.376 -0.0436  0.0218  0.4826
15393W        W32241   3.448  15.115   5.291  0.2354  0.1695  0.2183
15394W        W32242   9.492  14.118  13.602 -0.0159 -0.2311  0.0167
15395W        W32243   0.158   7.911   1.593  0.2642 -0.0969 -0.0612
15396W        W32244   7.746   8.802   5.412 -0.1145  0.0839  0.1337
15397W        W32245  13.021  14.804  13.603 -0.1884  0.2395  0.3225
15398W        W32246   9.164  13.931   1.427  0.0911  0.2869 -0.0514
15399W        W32247  10.616  12.859   0.386  0.1101  0.0369 -0.2471
15400W        W32248   0.943   1.128   5.436 -0.0498  0.0530 -0.3033
15401W        W32249  10.651   7.575  12.661 -0.1509 -0.0256  0.1049
15402W        W32250   9.161   1.952   3.516 -0.1231  0.1407  0.0420
15403W        W32251   6.435   9.928  15.073 -0.1208  0.0651 -0.1862
15404W        W32252  13.170  13.633   2.384 -0.0631 -0.0998  0.0827
15405W        W32253  13.191   5.548   4.794 -0.2541  0.2960 -0.1110
15406W        W32254   3.310  14.368  16.289 -0.1364  0.1741 -0.2118
15407W        W32255   8.916  11.317   2.989  0.1114  0.0760  0.1634
15408W        W32256  16.648  13.559   0.378 -0.2267  0.1942 -0.1136
15409W        W32257  12.213   0.410  14.262 -0.2209 -0.4495 -0.0807
15410W        W32258   4.780  11.710  15.011  0.2901 -0.1407 -0.2189
15411W        W32259   3.856   2.785   3.044 -0.1032  0.0719 -0.0720
15412W        W32260   4.341   3.965   5.223 -0.0686 -0.4832 -0.0339
15413W        W32261  14.851   9.380  16.305 -0.2254 -0.1114 -0.0152
15414W        W32262   1.373   7.619   4.351  0.1135 -0.0195 -0.1119
15415W        W32263   7.704  15.373  17.319  0.0364  0.0160  0.3845
15416W        W32264  13.153   2.714   0.905 -0.1240  0.2581 -0.0413
15417W        W32265  16.502   8.230   2.043  0.0037  0.2598 -0.3363
15418W        W32266  16.097   9.498  14.413  0.0153 -0.0424 -0.1724
15419W        W32267  10.261   5.627  12.233  0.0368  0.0091 -0.0306
15420W        W32268   9.260   7.093   2.468  0.0836  0.2063  0.0767
15421W        W32269  16.319  12.269   1.298  0.0022  0.1114  0.2222
15422W        W32270   8.743  11.008  17.521 -0.6264 -0.1229 -0.0258
15423W        W32271   7.513  10.241   1.587  0.3635  0.2924 -0.0790
15424W        W32272   3.086   9.462   0.377 -0.0354 -0.0699 -0.1572
15425W        W32273   6.768   9.104   4.458 -0.0379 -0.0693  0.0205
15426W        W32274   0.884   2.306   5.807 -0.1145 -0.1985 -0.1751
15427W        W32275   3.844   6.851  11.416  0.1018 -0.2900 -0.0125
15428W        W32276   6.232  16.637   1.514  0.2477 -0.2128 -0.1277
15429W        W32277   1.598   2.053   3.752 -0.0829  0.1874 -0.2411
15430W        W32278  13.771   8.961   1.339  0.1312  0.3033 -0.0757
15431W        W32279  11.533  12.795   0.018  0.0281 -0.1465  0.0086
15432W        W32280  11.605   3.421  13.430  0.2436  0.3234  0.1316
15433W        W32281  10.297   5.367   3.484  0.1575  0.1797  0.1349
15434W        W32282  13.611   0.097   0.526 -0.2051  0.1681  0.1662
15435W        W32283   7.961  16.729   3.140  0.0977  0.1117  0.1861
15436W        W32284  12.137   7.735  15.894 -0.0745  0.0245  0.4093
15437W        W32285  12.437  14.808   2.012 -0.2616  0.3483  0.2535
15438W        W32286  13.953   5.816   4.017  0.0813  0.1914 -0.0690
15439W        W32287  10.411   6.024   4.543  0.1447  0.2374  0.0699
15440W        W32288   7.669  11.144  16.365 -0.1161  0.0912  0.2117
15441W        W32289  11.272   5.626  16.174 -0.3280 -0.2050 -0.1275
15442W        W32290  11.625  10.731  16.610 -0.1844 -0.1099  0.0960
15443W        W32291  11.686   1.803  11.864 -0.3378  0.0309 -0.1240
15444W        W32292   6.186   2.197  12.220 -0.0860  0.2318  0.1573
15445W        W32293   5.345   7.726  15.439  0.0009 -0.3457  0.1604
15446W        W32294  11.985   4.257   1.520 -0.0255  0.0582 -0.3552
15447W        W32295   7.053   8.971   0.927 -0.4229  0.1507 -0.0047
15448W        W32296  13.247   1.875   4.368  0.0267  0.0373 -0.1331
15449W        W32297  16.545  16.085   2.609 -0.0262 -0.0672 -0.1207
15450W        W32298  14.700   5.218  16.869 -0.3927 -0.2009  0.1346
15451W        W32299  10.859   3.762   5.012  0.1691  0.0469 -0.0721
15452W        W32300   3.500   8.438  16.069  0.0287 -0.0461 -0.1327
15453W        W32301  14.117  16.362  12.320  0.1640  0.0958  0.0522
15454W        W32302  12.584   5.410  13.572  0.1941 -0.0853  0.1352
15455W        W32303   5.522   3.851   3.892  0.2368 -0.1835  0.1780
15456W        W32304   0.774  13.317   3.590 -0.0163  0.0805 -0.4040
15457W        W32305  14.495   2.740  12.574 -0.2052 -0.2487 -0.3619
15458W        W32306  15.323  12.430  16.373  0.0554 -0.0990 -0.0425
15459W        W32307  16.513  11.938   3.651 -0.2817 -0.4077 -0.0795
15460W        W32308   2.471  14.053   6.389  0.3053 -0.0235  0.1799
15461W        W32309   3.578   5.840   1.534  0.0648 -0.0796 -0.1295
15462W        W32310   1.215   4.694  12.468 -0.0902  0.2740  0.0259
15463W        W32311   8.770  11.819   1.179 -0.1632 -0.0418  0.0259
15464W        W32312   6.434   9.630  17.506 -0.0477  0.0592  0.3602
15465W        W32313  13.990   4.373   4.365  0.1856  0.2664 -0.4321
15466W        W32314  15.528   3.219  17.400  0.0289 -0.0802  0.1418
15467W        W32315   4.580   4.743   0.205 -0.1185  0.1911  0.1056
15468W        W32316  12.229  13.076  17.656  0.1211  0.0973  0.0081
15469W        W32317  13.700   9.515  11.911 -0.1999 -0.0037 -0.2121
15470W        W32318   6.062   2.058   4.011  0.2763 -0.1965 -0.3406
15471W        W32319  15.578   1.808   1.551 -0.2272 -0.2226  0.4210
15472W        W32320  10.075  11.073   5.309 -0.0249 -0.1318 -0.2567
15473W        W32321  12.251  13.146   1.276 -0.1059  0.0414 -0.4927
15474W        W32322  11.736   5.699   4.943  0.1013  0.2177  0.0170
15475W        W32323   1.571   7.065   0.594 -0.2250  0.0202 -0.0915
15476W        W32324  10.975  12.685   1.269 -0.2726  0.0074 -0.1846
15477W        W32325  14.525  11.412   2.690  0.0831  0.2002  0.0207
15478W        W32326  12.797   1.910   5.383 -0.1834  0.1384  0.0457
15479W        W32327   1.834  13.148  15.854 -0.0281  0.1231 -0.0482
15480W        W32328   6.292   1.573  14.487  0.2207 -0.0897 -0.2101
15481W        W32329   4.996  15.320   5.811  0.1441  0.0891 -0.0327
15482W        W32330  10.488   2.355   3.751  0.2275 -0.1253  0.1693
15483W        W32331   3.942   3.296  14.889  0.2484 -0.1930 -0.0214
15484W        W32332   9.302   6.219  17.466  0.1805  0.3085  0.0373
15485W        W32333  11.440   7.925  14.180 -0.3466 -0.0831  0.2583
15486W        W32334   6.430   5.668  16.189  0.0984  0.0388 -0.1849
15487W        W32335  12.214   2.030   0.349  0.0040  0.0034  0.3275
15488W        W32336   4.476   3.619   3.574 -0.0127  0.2662  0.0141
15489W        W32337   4.553   1.401  16.388 -0.2022  0.1401  0.0641
15490W        W32338   5.084   4.773   4.043 -0.0796  0.0909 -0.3784
15491W        W32339   0.266  13.529   3.601  0.1055 -0.2209  0.3266
15492W        W32340  15.135  10.892  15.094 -0.2212  0.1278 -0.2160
15493W        W32341  16.262   7.711   2.755 -0.0284 -0.2471 -0.3634
15494W        W32342   9.286   0.323   1.590 -0.0627 -0.2602 -0.0725
15495W        W32343   8.537   1.238   5.745  0.1565  0.0292 -0.0297
15496W        W32344  16.900   1.044  14.879 -0.0184 -0.0520 -0.3293
15497W        W32345  15.931   4.285   2.653  0.2318 -0.1337 -0.1339
15498W        W32346   4.957   7.621   4.647  0.0510 -0.0224 -0.1776
15499W        W32347   8.619  15.260   0.118 -0.3666 -0.1507 -0.0622
15500W        W32348   7.498   8.768   5.879  0.3157  0.0115  0.0453
15501W        W32349   1.548  13.788   2.166  0.0237  0.0329 -0.3328
15502W        W32350  16.094   0.327   0.700  0.1140  0.0167  0.1156
15503W        W32351  11.958  16.153   4.598 -0.1540 -0.2572 -0.1483
15504W        W32352   5.415  16.999   2.655  0.1453 -0.1084  0.1670
15505W        W32353  15.946   0.812  14.760  0.1045 -0.2993 -0.0143
15506W        W32354   8.534   2.253   4.866 -0.1103  0.0954 -0.3444
15507W        W32355  10.982  10.033  13.653 -0.0024 -0.0118  0.0349
15508W        W32356   6.864   5.357  16.414 -0.1362 -0.5908 -0.0914
15509W        W32357   7.991  16.232   4.731 -0.1773 -0.2823 -0.0192
15510W        W32358   7.957   4.488   2.532 -0.0291  0.0380  0.2776
15511W        W32359  12.429   7.712   1.373 -0.2167 -0.1119 -0.0280
15512W        W32360   3.716   2.012  14.859 -0.1156 -0.1159 -0.0102
15513W        W32361   2.053   4.936   1.691  0.0685  0.2306  0.0125
15514W        W32362  15.563   2.536   2.098 -0.1956  0.1461  0.0864
15515W        W32363   4.093  12.861   1.895 -0.0209 -0.0781  0.0518
15516W        W32364   9.584   2.711  14.796 -0.0518 -0.4154  0.2336
15517W        W32365   7.491  15.679  12.740  0.0415  0.0159  0.0940
15518W        W32366  12.510   6.948  11.828  0.0098 -0.1388  0.0703
15519W        W32367   0.490   1.689  15.413  0.2350  0.1012 -0.2033
15520W        W32368  10.738   7.418  15.473  0.0866 -0.2345  0.0868
15521W        W32369   5.511  12.728  13.190 -0.3123  0.0753  0.3663
15522W        W32370   3.453  12.939   2.868  0.2447 -0.2402  0.0241
15523W        W32371   5.630   6.464  11.862  0.1010  0.0181  0.3712
15524W        W32372  10.605   7.302   4.482  0.0033  0.1695  0.0879
15525W        W32373  13.414  14.419  13.419  0.0366 -0.0864  0.0863
15526W        W32374  13.507  11.256  15.092  0.0302 -0.1684  0.1365
15527W        W32375  15.896  11.411   3.338 -0.2005  0.0481 -0.1990
15528W        W32376   1.039   5.811  13.075  0.1371  0.1126  0.2429
15529W        W32377   3.547  12.311   5.034 -0.0710 -0.0769 -0.3101
15530W        W32378  12.552  10.410  15.188 -0.0343  0.3157 -0.0016
15531W        W32379  13.787   2.600   2.841  0.2013 -0.1600 -0.1533
15532W        W32380  15.307   8.304  13.100 -0.0965  0.0095 -0.0766
15533W        W32381   2.076  15.938  12.823  0.0095 -0.0992  0.2359
15534W        W32382  11.752  13.800   5.059  0.0254 -0.0150 -0.1191
15535W        W32383   3.018   1.690  11.898  0.3219 -0.2383  0.3346
15536W        W32384   6.360  13.096   5.389  0.0617 -0.2070  0.2432
15537W        W32385  12.720  11.537  13.625  0.1141  0.1449  0.1043
15538W        W32386   9.677   2.126   4.932 -0.0192 -0.1349 -0.0582
15539W        W32387   9.813  13.212   0.353 -0.2117 -0.1907  0.0066
15540W        W32388  11.754   4.070  14.833  0.1636 -0.0511  0.1345
15541W        W32389  12.963  13.142   3.997 -0.0109  0.0967  0.1222
15542W        W32390  14.554   5.761   6.234  0.0179 -0.2619 -0.2101
15543W        W32391  13.252   6.743   2.645 -0.2977  0.1637  0.5993
15544W        W32392   9.475  15.423   3.033 -0.0338  0.2995  0.0059
15545W        W32393   0.354  11.105   1.882 -0.0488  0.2390  0.1146
15546W        W32394   0.721   7.269  14.374  0.3624 -0.0244  0.2306
15547W        W32395   6.989   8.852   2.306 -0.0741 -0.1317  0.1262
15548W        W32396   1.944   8.785   5.753 -0.0206  0.2324 -0.1135
15549W        W32397   8.486  13.262   1.479  0.1626 -0.2185 -0.2560
15550W        W32398  13.161  11.789   0.009  0.3157  0.3537  0.1778
15551W        W32399   3.360  16.645   0.079  0.1750  0.0459  0.5464
15552W        W32400  16.190   2.000   4.212  0.2502 -0.1417  0.4881
15553W        W32401   3.321   4.367  16.203  0.1049  0.0326 -0.1034
15554W        W32402  15.562   3.428  14.372 -0.0827 -0.0082  0.1108
15555W        W32403   3.800   3.759   2.298  0.0469  0.2313 -0.0949
15556W        W32404  11.351  14.806  16.895  0.0110  0.1380 -0.0553
15557W        W32405  10.146  14.434   4.581  0.3161  0.0479  0.1054
15558W        W32406   8.679  15.813  14.846 -0.2455  0.1216  0.3309
15559W        W32407  10.219   6.232  14.705 -0.4159 -0.0711 -0.2654
15560W        W32408  14.656  12.503   3.504 -0.1407 -0.3535  0.0851
15561W        W32409   5.093   6.503  17.513 -0.0556  0.2217 -0.4138
15562W        W32410   8.107   5.776  14.227  0.2524 -0.2066 -0.2047
15563W        W32411   6.124   2.403  15.267 -0.0181  0.1329 -0.2943
15564W        W32412   3.967   7.800  14.072  0.0240  0.0869 -0.2236
15565W        W32413  16.627  10.080  13.387 -0.0871 -0.0272  0.1946
15566W        W32414  11.633   5.454  14.787 -0.2263  0.3279 -0.0584
15567W        W32415  16.650   8.179  15.471 -0.0616 -0.1147 -0.0695
15568W        W32416  14.502  14.358  15.291 -0.1350  0.1370  0.1740
15569W        W32417  15.097  14.771   5.519  0.0195 -0.1940  0.1677
15570W        W32418   2.403  16.054  17.007 -0.1154 -0.2243  0.0561
15571W        W32419   0.466   4.512  17.744  0.1561  0.4053 -0.2787
15572W        W32420   3.704   5.723   2.415 -0.1156  0.1579  0.3411
15573W        W32421  12.956  11.340  14.390 -0.2332 -0.0020 -0.0823
15574W        W32422   5.595  10.993   3.191  0.2096 -0.2859 -0.0635
15575W        W32423   1.509  10.367   5.735  0.0222  0.1801  0.1896
15576W        W32424  10.281  16.232  11.671 -0.2949 -0.1459  0.2684
15577W        W32425   0.891   3.625  16.032 -0.1325 -0.4422 -0.1073
15578W        W32426  15.384  15.918  15.203  0.1340 -0.2527 -0.1533
15579W        W32427  13.957   4.741   5.079 -0.2312  0.1458  0.2801
15580W        W32428   3.763   6.646  15.552  0.1736 -0.0900  0.1744
15581W        W32429   7.879  14.265  12.610  0.0609  0.0585  0.1846
15582W        W32430   2.036   1.212   3.554  0.2797  0.2422 -0.2848
15583W        W32431   0.777   9.878   2.241 -0.1138  0.0509 -0.1068
15584W        W32432   1.016   2.674   4.276  0.2960  0.1502 -0.0642
15585W        W32433   2.982   3.526  14.473  0.0837 -0.0771 -0.0741
15586W        W32434  15.391  16.786   0.942  0.1437  0.3625  0.1209
15587W        W32435   7.606   1.106   3.388  0.1453 -0.0135  0.0881
15588W        W32436  12.209   1.832   4.246  0.1161  0.0056 -0.1566
15589W        W32437   6.917   4.820   4.175  0.1884 -0.1270  0.0315
15590W        W32438   2.487  12.853   0.698 -0.0538 -0.0821 -0.0266
15591W        W32439   6.805   7.292   1.167  0.1043  0.0771  0.2032
15592W        W32440   4.482   3.199  17.584 -0.0567 -0.3832  0.1105
15593W        W32441  12.803  17.061   1.940  0.1830  0.0339 -0.1402
15594W        W32442  10.490  12.591   3.403 -0.3155 -0.0085  0.0272
15595W        W32443   9.902  15.384  16.974 -0.1155 -0.0977  0.1526
15596W        W32444   3.343   1.976  16.478 -0.2274 -0.0303  0.2162
15597W        W32445   2.318   6.325  15.122 -0.0281 -0.0304 -0.3086
15598W        W32446  12.515   3.482   1.057 -0.0677  0.0934  0.1574
15599W        W32447   4.808   9.588  14.329 -0.0217  0.0537 -0.0815
15600W        W32448  10.272  14.526   3.946  0.2234 -0.0709  0.1050
15601W        W32449   2.252  11.945  13.180  0.1105  0.0337  0.1335
15602W        W32450  12.464  13.975   0.876 -0.1269 -0.1263 -0.1461
15603W        W32451  16.296  10.639  15.864 -0.2111 -0.1779 -0.1906
15604W        W32452   2.957  16.460  13.566  0.0372  0.5803  0.0293
15605W        W32453   3.437  10.981  16.523  0.3444  0.0972 -0.3729
15606W        W32454  12.886   7.275  12.009 -0.1181 -0.0888 -0.3670
15607W        W32455   5.534  15.509  17.089  0.0906 -0.0884 -0.0529
15608W        W32456   3.993  14.709   4.149 -0.1368 -0.2699  0.1853
15609W        W32457   3.474  16.907   1.200  0.0115 -0.1777  0.3992
15610W        W32458   0.666   4.989  14.075  0.2272  0.2969 -0.2104
15611W        W32459  15.747  17.157   3.980 -0.0483  0.0054 -0.3753
15612W        W32460   4.654  13.665   1.467 -0.1697  0.0638  0.0748
15613W        W32461   3.634   5.898  12.779  0.1255 -0.1449  0.0859
15614W        W32462   7.133   6.055   0.814  0.0092 -0.1252  0.0089
15615W        W32463  14.087   3.978  17.456  0.0138  0.1584 -0.1240
15616W        W32464  11.708  15.380  13.974 -0.0882 -0.2049 -0.1235
15617W        W32465  15.143  11.633   4.944 -0.2533 -0.0367  0.1243
15618W        W32466   2.406  12.364  14.685 -0.0646 -0.0300 -0.1193
15619W        W32467  11.440  14.163   3.300 -0.1212 -0.0131  0.0433
15620W        W32468  13.355   0.186  16.573  0.1412  0.3008 -0.0193
15621W        W32469  10.673  15.879  15.717 -0.1560 -0.0932 -0.0379
15622W        W32470  11.436   9.193  17.325  0.0809 -0.2082  0.3007
15623W        W32471  11.012   8.216   3.561  0.0473  0.0371  0.1760
15624W        W32472  12.010   4.282  13.187 -0.1839  0.2114 -0.1887
15625W        W32473   6.371  10.849  13.026  0.1112 -0.0923  0.0232
15626W        W32474  17.045  10.681   3.422 -0.3099  0.0745  0.0166
15627W        W32475  12.561  12.474   1.976 -0.0590 -0.1066 -0.0101
15628W        W32476   1.967   5.663  14.591 -0.3175  0.4275  0.0585
15629W        W32477  10.458  10.898  14.993 -0.0660  0.1667 -0.1205
15630W        W32478   3.515  13.528   0.073 -0.4481 -0.1367  0.3058
15631W        W32479  13.529   4.147   2.764 -0.0435  0.0557  0.2457
15632W        W32480   6.016  17.078  15.223  0.4333  0.1687 -0.0012
15633W        W32481  16.955  11.900  13.955 -0.1680 -0.1455  0.0220
15634W        W32482   9.766   7.375   2.407  0.4232 -0.1387  0.1483
15635W        W32483  10.674   4.883  11.935 -0.0582 -0.2006 -0.2291
15636W        W32484   5.222   2.222   3.100 -0.2834  0.0974  0.1066
15637W        W32485   8.931   4.616   0.016 -0.3541  0.0326  0.1988
15638W        W32486   3.877  14.368   5.536  0.0608  0.0835  0.0756
15639W        W32487   7.001   1.803  14.477 -0.1575  0.0503 -0.0442
15640W        W32488   3.245   8.928   5.315 -0.1235 -0.1315  0.1077
15641W        W32489   0.243  12.839   2.894 -0.1789  0.0510 -0.0611
15642W        W32490   1.443   4.272  14.842  0.0295 -0.2244  0.0297
15643W        W32491  11.947   8.807  13.022 -0.0991  0.2383 -0.0142
15644W        W32492  15.548   7.185   4.977 -0.2490  0.0261 -0.2434
15645W        W32493  12.486  15.502   2.956  0.1258 -0.1706 -0.0213
15646W        W32494  14.263   8.810   1.179  0.1082  0.1752  0.1313
15647W        W32495  16.246   6.567   0.801  0.0610 -0.0818  0.1441
15648W        W32496  16.982   8.231  14.995  0.0718 -0.1325  0.0141
15649W        W32497   4.278  13.215  12.806 -0.0434 -0.2280  0.1141
15650W        W32498  14.736   6.345  15.513  0.0013  0.0364  0.2324
15651W        W32499   1.302   1.526  15.143 -0.2024 -0.0095 -0.0636
15652W        W32500  13.722  16.362   1.413 -0.0299  0.2324 -0.1372
15653W        W32501   9.441   4.253   5.182 -0.1360  0.5446 -0.4074
15654W        W32502   3.444   1.268  12.621 -0.0629  0.0874 -0.0019
15655W        W32503   7.329  11.354   4.974 -0.0705 -0.2029  0.4338
15656W        W32504   7.336  10.466  14.380  0.0322 -0.0531  0.2026
15657W        W32505  16.355  13.524  14.316 -0.1253  0.0232  0.1648
15658W        W32506   0.957  10.025   4.901 -0.3027  0.3537  0.0523
15659W        W32507   7.223   0.142   4.976 -0.2102  0.3042 -0.2979
15660W        W32508  11.975  13.174  14.981  0.2308 -0.0373 -0.0341
15661W        W32509  10.758   1.397  16.627 -0.3095 -0.1904  0.1506
15662W        W32510  13.147   4.284  17.023  0.2053  0.0214  0.3104
15663W        W32511   4.791  16.595   5.652  0.1691  0.2352 -0.1523
15664W        W32512  13.807  11.116  14.544 -0.1693  0.0516 -0.0086
15665W        W32513   3.062   1.543   2.707 -0.2062 -0.0307 -0.0101
15666W        W32514   9.759   8.861  17.386 -0.0249  0.1593  0.1621
15667W        W32515   4.962   4.049  13.892 -0.2165  0.0886 -0.0327
15668W        W32516  11.577  12.050   0.444 -0.4520  0.2163 -0.1979
15669W        W32517   3.597   0.311  16.096 -0.2670 -0.4491 -0.0129
15670W        W32518   1.041   1.006  16.119 -0.2786  0.2354  0.1564
15671W        W32519  13.608   3.134  12.379  0.4724  0.0816 -0.2830
15672W        W32520   7.341   2.588   0.502 -0.0664 -0.0757 -0.0390
15673W        W32521  10.939   3.699  12.337  0.1390  0.0571 -0.0451
15674W        W32522  11.865  14.516  14.538  0.2285 -0.3826  0.1316
15675W        W32523  16.058   5.192   3.481  0.1695  0.0651 -0.3977
15676W        W32524  11.744   5.983   2.547  0.2148 -0.1834 -0.1229
15677W        W32525   8.149  14.001  13.049  0.1211  0.0181  0.2574
15678W        W32526  11.514   0.843  16.938  0.1277 -0.1096 -0.2685
15679W        W32527   8.170   7.251  13.190 -0.2106 -0.2601 -0.0013
15680W        W32528   7.082   5.735  13.879 -0.3392 -0.2941 -0.3509
15681W        W32529  13.233  17.005  13.810 -0.2634  0.2435  0.1207
15682W        W32530  15.459  15.283   3.489 -0.2452 -0.2037 -0.0388
15683W        W32531  11.485   9.676  16.996  0.0237 -0.2167  0.2565
15684W        W32532   0.750   0.945  13.113 -0.0869 -0.4082  0.3239
15685W        W32533   1.986  11.133  17.027 -0.1100 -0.0455 -0.3601
15686W        W32534  10.090   6.677   5.026  0.0474  0.7041  0.1627
15687W        W32535   8.007   4.993   5.182 -0.0466 -0.2004  0.0482
15688W        W32536   2.429   2.697   2.952  0.0720 -0.0967  0.0285
15689W        W32537   3.979   9.033   1.195 -0.0871 -0.2682  0.2227
15690W        W32538   5.208   4.760  14.281  0.0230 -0.3987 -0.0260
15691W        W32539  16.557  15.489   2.031  0.0526  0.2806 -0.0548
15692W        W32540  16.870  10.294  14.571  0.0399  0.0917 -0.1761
15693W        W32541   3.858   4.870  16.367 -0.0707 -0.2706  0.4043
15694W        W32542   9.143  12.838  15.698 -0.1749 -0.1411 -0.1168
15695W        W32543   3.535  13.180  14.195  0.0469 -0.0453  0.1844
15696W        W32544  11.898   9.681  14.212  0.2719  0.2304 -0.1157
15697W        W32545   8.936  13.070   1.254 -0.1898 -0.1940  0.2312
15698W        W32546  12.194   8.933  17.103  0.1016  0.0188 -0.1200
15699W        W32547   7.107   6.973   3.150 -0.0984 -0.0301  0.0581
15700W        W32548   3.134   2.737   1.250  0.2474  0.3271  0.0201
15701W        W32549  14.326  17.010   2.344  0.4015  0.0460  0.0261
15702W        W32550   4.823  11.001  12.541  0.2255 -0.2933 -0.1599
15703W        W32551  10.634  11.909   5.725  0.2717 -0.3220  0.1723
15704W        W32552   5.798   2.285   0.524 -0.0838  0.4621 -0.3934
15705W        W32553   7.127  17.154   2.131  0.0457  0.0083 -0.2156
15706W        W32554  13.539   4.640  15.147  0.0850  0.0330  0.0171
15707W        W32555   4.965  16.249  15.610  0.0326  0.0482 -0.0378
15708W        W32556   5.980  11.488  14.802  0.2024 -0.0072 -0.0575
15709W        W32557   1.997   2.637   4.449  0.0343  0.0749 -0.1934
15710W        W32558   6.963   9.109   1.431 -0.1644 -0.0637  0.0863
15711W        W32559  16.493   7.012  17.292  0.2398  0.0626 -0.1619
15712W        W32560  11.373  14.800   2.254  0.0247  0.0617  0.2143
15713W        W32561  13.446  11.070   4.982 -0.2469  0.1108 -0.1769
15714W        W32562   6.150   3.151   4.886  0.0314 -0.0903 -0.0901
15715W        W32563   8.448  14.109  16.921  0.0259  0.1972 -0.0536
15716W        W32564  12.992  10.537  13.851  0.2725  0.0506 -0.0003
15717W        W32565  11.865  12.429  16.805 -0.3103  0.0179 -0.1919
15718W        W32566  10.810  10.891  16.858  0.0957  0.0224  0.1573
15719W        W32567   1.378   5.737   0.206  0.1079 -0.1723 -0.0385
15720W        W32568   6.691   4.036   3.864 -0.0094  0.2099  0.3926
15721W        W32569   7.129  16.816   3.680  0.1662  0.0847 -0.2664
15722W        W32570   4.374  16.266  15.552 -0.4356 -0.0067  0.1570
15723W        W32571   2.494   0.381   5.224 -0.0015  0.0850 -0.0204
15724W        W32572  14.850  15.578  15.613 -0.6302  0.1920 -0.0616
15725W        W32573  11.213  15.231  15.939 -0.1732  0.1974  0.4643
15726W        W32574  14.865  13.418  17.677 -0.1256  0.1286  0.0316
15727W        W32575   0.302   8.288   3.510 -0.2355  0.1280  0.1291
15728W        W32576   5.376  10.621   0.541  0.0573  0.2065  0.0720
15729W        W32577  14.876  15.976  15.933  0.0732 -0.2293 -0.0930
15730W        W32578   8.184  14.887   0.216 -0.3748  0.0789  0.0441
15731W        W32579   4.278   0.098  17.196  0.0352  0.0005  0.3117
15732W        W32580  14.324   2.628   2.808 -0.0448  0.0511  0.0691
15733W        W32581  15.629   6.962   2.783  0.0447 -0.0673  0.1692
15734W        W32582   0.501   2.743  15.673 -0.0326 -0.1047  0.0523
15735W        W32583   4.529   4.348  16.917 -0.1549 -0.1129 -0.1465
15736W        W32584  11.432   0.130  16.308 -0.1430  0.1237 -0.1929
15737W        W32585   6.370   0.749  14.045 -0.2281 -0.0469 -0.0399
15738W        W32586   3.630   9.811   5.562 -0.1639 -0.2171 -0.0029
15739W        W32587   4.972   2.470   1.554 -0.0901 -0.0815 -0.0389
15740W        W32588  11.950   9.943   4.942 -0.0691 -0.2399 -0.2147
15741W        W32589   6.717  14.496   5.272 -0.0692  0.0790  0.0364
15742W        W32590  11.569   7.312   0.950 -0.0721 -0.1171 -0.1784
15743W        W32591   0.755  14.267  14.171 -0.2139 -0.1922 -0.3403
15744W        W32592  11.725  11.134   1.388 -0.2855  0.2107  0.0669
15745W        W32593   0.849  10.041   3.979 -0.3761  0.0063 -0.0292
15746W        W32594   3.151  11.556  14.986 -0.2064 -0.0734 -0.1531
15747W        W32595  16.580  14.781   5.651  0.0286  0.0709  0.0570
15748W        W32596  10.490  12.271   2.326  0.0453  0.2073 -0.0124
15749W        W32597  14.358  11.706  12.512  0.1419  0.0660 -0.3547
15750W        W32598   6.455   8.113   0.779 -0.1498 -0.0433  0.0551
15751W        W32599  13.188  11.442  15.820 -0.1199 -0.1134  0.2047
15752W        W32600   9.610  14.517   1.793  0.2704 -0.0992  0.1255
15753W        W32601  16.777   6.726  13.103  0.1522  0.1102  0.2240
15754W        W32602  15.994   5.224   1.419 -0.1536 -0.0339 -0.2352
15755W        W32603  16.624  10.190   4.539 -0.0294  0.2211 -0.0481
15756W        W32604  11.345  12.421   0.655  0.2514 -0.2673 -0.0018
15757W        W32605   0.807  14.349   4.079 -0.1365  0.3693 -0.0026
15758W        W32606  15.327  17.136  16.976  0.4467 -0.0941  0.1304
15759W        W32607   3.171   3.928   0.943  0.3786 -0.3903 -0.1201
15760W        W32608  11.464   9.806  12.526  0.0789 -0.1148  0.1719
15761W        W32609   6.539  12.020  13.947  0.0471 -0.1793 -0.3482
15762W        W32610  13.359   7.105  15.093 -0.4810 -0.0443 -0.1027
15763W        W32611  16.038  10.279   2.778  0.1168 -0.1262  0.2957
15764W        W32612  10.930   3.725   0.276 -0.1073 -0.3656  0.0420
15765W        W32613  16.904   4.747  15.849 -0.0199  0.1381  0.0336
15766W        W32614   8.610  14.285   1.815  0.1121  0.0476  0.1507
15767W        W32615  10.660   9.351   2.899  0.1108 -0.0239 -0.1385
15768W        W32616   8.314   3.343  16.392 -0.1635 -0.1047 -0.1428
15769W        W32617  10.398  14.743  15.013  0.0455 -0.0324  0.0209
15770W        W32618  13.491  16.865   0.734  0.0007  0.2558 -0.0497
15771W        W32619  14.600   4.205   2.767 -0.1030 -0.0128 -0.3718
15772W        W32620  14.262   6.870   3.919 -0.0561 -0.0304 -0.0378
15773W        W32621  14.061  10.021  14.560  0.2693 -0.1048 -0.0619
15774W        W32622   4.431   6.179  13.307 -0.0722 -0.1143  0.2460
15775W        W32623   4.387   3.564  17.286  0.0848  0.1234  0.0555
15776W        W32624  13.012   8.824   3.353 -0.0844 -0.0231 -0.0485
15777W        W32625   6.327   2.152   1.344 -0.1407  0.2373  0.0385
15778W        W32626   7.248   9.646  13.024  0.2439  0.0308 -0.1156
15779W        W32627   7.042   2.184   2.530 -0.0427 -0.0329 -0.1017
15780W        W32628   8.180  11.394  13.776  0.1108  0.2305  0.2002
15781W        W32629   7.598  13.274   2.968 -0.1577 -0.1315 -0.2235
15782W        W32630   4.918  14.485  15.584  0.1547  0.0610 -0.1116
15783W        W32631   4.588   7.624   1.523 -0.0850  0.2114 -0.0157
15784W        W32632   0.855   4.183  14.745  0.2602 -0.1155 -0.1811
15785W        W32633  11.582   4.412  15.582  0.1000  0.0121 -0.1026
15786W        W32634  15.992  12.076   5.067 -0.0226 -0.2973  0.4108
15787W        W32635   8.081   0.623   4.051  0.1376 -0.2251  0.1823
15788W        W32636  15.615   9.883  14.399 -0.0581 -0.2300 -0.0757
15789W        W32637  11.542   0.348   4.758 -0.2830  0.1249  0.0165
15790W        W32638  16.201   5.773  16.540 -0.2223  0.1230  0.0085
15791W        W32639   1.779  15.214   0.261 -0.1649  0.1158 -0.2144
15792W        W32640   7.160   9.335   2.239 -0.1497 -0.5061 -0.1307
15793W        W32641   9.649   5.495  16.971 -0.0990  0.1003  0.0412
15794W        W32642   2.615  11.080   5.764 -0.2535  0.0851 -0.1399
15795W        W32643  10.130   5.149   2.926 -0.1315 -0.2640  0.1563
15796W        W32644   8.634   7.709   2.201  0.2175 -0.0529 -0.0717
15797W        W32645   7.240  10.201   4.160 -0.1522 -0.1181  0.0765
15798W        W32646   5.064  10.684   1.407  0.1164  0.0295  0.1002
15799W        W32647   9.519   5.729   2.124  0.1898  0.0906 -0.0023
15800W        W32648   7.183   2.776  13.286 -0.0512 -0.0226 -0.0799
15801W        W32649  12.972   9.394  16.049  0.0112  0.1069 -0.2008
15802W        W32650   5.940   5.681   2.244 -0.0710  0.3612 -0.1522
15803W        W32651   2.140  12.053   0.541  0.4178 -0.2219  0.2218
15804W        W32652   7.075  12.217   1.096  0.1737 -0.2314 -0.1885
15805W        W32653  15.189   8.268  15.526  0.1149  0.1125 -0.1037
15806W        W32654   5.778   5.087  16.648 -0.3122  0.0370  0.1097
15807W        W32655  16.383   1.579  16.475 -0.0239  0.0934  0.4199
15808W        W32656   6.178  16.712  15.898  0.2632 -0.3312  0.2012
15809W        W32657   2.186   6.119   1.087  0.1197  0.0150  0.0816
15810W        W32658   3.343   6.299   4.799  0.1217 -0.3114 -0.4255
15811W        W32659  10.133  12.314  15.202  0.1034 -0.2101  0.2222
15812W        W32660  15.856  16.115   3.681  0.0037 -0.3470 -0.0242
15813W        W32661  10.881  14.577   0.772  0.0763  0.1333  0.1523
15814W        W32662  12.205   2.221  15.698 -0.2200 -0.0944 -0.3467
15815W        W32663   6.199   6.702  16.988 -0.1944  0.1404  0.1631
15816W        W32664   0.827   3.165  14.621 -0.2873  0.0927  0.0479
15817W        W32665   8.421   5.872  17.328  0.1439  0.0794 -0.0537
15818W        W32666   9.796  13.367   2.779  0.2200 -0.2615 -0.1697
15819W        W32667  13.735   7.654   4.035  0.3699 -0.2264  0.0675
15820W        W32668   8.299  13.685   5.280  0.0240  0.0405 -0.1141
15821W        W32669  14.037  16.584  12.803  0.1584 -0.4136  0.0507
15822W        W32670   7.316  13.931   3.385  0.0417  0.1235 -0.1838
15823W        W32671   3.791   8.040  12.507  0.0770  0.0736  0.0782
15824W        W32672  14.493   1.694  11.972  0.1498 -0.0022  0.2509
15825W        W32673   0.079  12.045   4.999 -0.0879  0.0497  0.0195
15826W        W32674   7.816  13.890   1.775  0.1278 -0.0614 -0.0650
15827W        W32675  10.524  13.780   4.089 -0.0693 -0.0181 -0.2142
15828W        W32676  16.042   7.898   5.074 -0.1323 -0.2122  0.1033
15829W        W32677  11.630   7.476  17.441  0.0994 -0.4034 -0.0065
15830W        W32678  14.667   1.485  13.334 -0.0904  0.1092 -0.1574
15831W        W32679  14.158  10.086   2.865 -0.2623 -0.2313  0.0005
15832W        W32680   5.089  13.500   2.757 -0.2959  0.3051 -0.0216
15833W        W32681   3.956   9.981  17.274 -0.1334  0.1680  0.2091
15834W        W32682   9.926  11.678   1.996 -0.0974 -0.0698 -0.0077
15835W        W32683  15.590  16.956   2.634 -0.1162 -0.0774 -0.3208
15836W        W32684   7.463  10.129  13.163 -0.1789  0.0775 -0.2429
15837W        W32685   0.010   0.318  14.911  0.0536  0.0577 -0.2261
15838W        W32686  12.703   6.763   0.437  0.0566 -0.2609  0.1601
15839W        W32687   4.646   9.688   2.507 -0.2991  0.0285 -0.3582
15840W        W32688   1.590   4.607   0.940 -0.1536  0.0770 -0.0405
15841W        W32689  13.597   3.068   2.768 -0.0192  0.0239  0.1323
15842W        W32690   0.675  16.414  17.140 -0.3451 -0.2099  0.0638
15843W        W32691  15.869   1.593   5.674  0.2324 -0.0703 -0.0488
15844W        W32692   1.486  16.041   0.400  0.1967  0.4435  0.2073
15845W        W32693  11.536  11.793  14.441 -0.0259 -0.0099 -0.0353
15846W        W32694   2.256  13.333   6.440  0.2535  0.2965 -0.0082
15847W        W32695   4.129   0.444  16.325 -0.1226  0.1003  0.0877
15848W        W32696  10.915  15.592   2.977 -0.1635 -0.0395 -0.0649
15849W        W32697   1.459   6.993   4.796  0.0866  0.2326  0.1084
15850W        W32698   2.880  13.978   4.880  0.0143  0.1760 -0.2918
15851W        W32699   8.997   5.956  16.838  0.0885 -0.0041  0.0252
15852W        W32700  12.591   1.951  14.422 -0.0688  0.1151  0.0292
15853W        W32701  13.663   6.586   5.057 -0.0400  0.0840 -0.2128
15854W        W32702   0.830  14.812  15.610 -0.1138 -0.0351  0.0235
15855W        W32703  12.047  12.606  17.615  0.2039  0.1064  0.1097
15856W        W32704  16.043  14.571   4.450 -0.0368  0.0979 -0.1335
15857W        W32705  11.408   4.284   3.314  0.1612  0.0022 -0.0149
15858W        W32706   6.323  10.829   2.038  0.1627  0.1455  0.1919
15859W        W32707   3.944  16.775  14.863  0.2038  0.2404 -0.2935
15860W        W32708  15.801   0.613   3.272 -0.0577  0.1362 -0.1934
15861W        W32709   2.849   3.590  16.017 -0.0149 -0.2780 -0.1101
15862W        W32710   7.449  11.296  17.196 -0.0234 -0.2993 -0.3910
15863W        W32711   1.920  15.661   4.396 -0.2179 -0.0828  0.0745
15864W        W32712  10.202   3.887   5.428  0.2274 -0.2007 -0.1477
15865W        W32713   9.104  12.556  11.824 -0.0170 -0.0289 -0.0365
15866W        W32714  11.054   5.425  17.484  0.1035  0.0693  0.0028
15867W        W32715   9.775  12.795  17.672 -0.2758 -0.1405  0.0597
15868W        W32716  15.263   8.184  17.069 -0.2109  0.1379  0.0334
15869W        W32717   1.300   3.584   0.665  0.2366  0.0296 -0.1166
15870W        W32718  14.251  11.421  16.039 -0.1056 -0.2855 -0.1543
15871W        W32719  16.420   0.207  12.927 -0.0723  0.0946  0.0013
15872W        W32720  11.768   6.444  17.406  0.0087  0.0730 -0.2209
15873W        W32721   0.640   7.634   3.023 -0.0249  0.0876  0.0788
15874W        W32722   5.547   9.636  13.887 -0.0518 -0.3932 -0.2793
15875W        W32723  12.455  10.030   1.765  0.1541 -0.1823  0.0562
15876W        W32724   4.569   9.557   1.847  0.0298 -0.3456  0.0658
15877W        W32725   9.039   0.627   1.142  0.0866  0.3179  0.1668
15878W        W32726  10.976   5.373   2.682  0.0232  0.1472  0.1459
15879W        W32727  10.589   5.380  11.913  0.0759 -0.3110 -0.1718
15880W        W32728   7.286  14.314   6.194  0.1507 -0.0399  0.0626
15881W        W32729   6.677  14.179   3.733 -0.2219  0.0722 -0.0486
15882W        W32730  13.771  14.469  12.434 -0.2755 -0.1100  0.1603
15883W        W32731  12.195  17.061   1.911 -0.0229 -0.0900  0.0695
15884W        W32732   5.732   8.679   5.078 -0.1250  0.4044 -0.0595
15885W        W32733  14.073   5.053   1.535 -0.0846  0.1218  0.1794
15886W        W32734   8.135  13.069  15.131  0.0902 -0.1426 -0.1516
15887W        W32735  13.806  11.081   5.350 -0.5178  0.1785 -0.2241
15888W        W32736  12.482   0.733   0.307  0.1963  0.0952 -0.0874
15889W        W32737  14.111   6.371   5.355 -0.2693  0.0074  0.0436
15890W        W32738  13.949  10.933  15.064  0.1284  0.3023 -0.1086
15891W        W32739  15.390  16.929  14.170 -0.1821 -0.1527 -0.2913
15892W        W32740  14.113  14.390  14.989  0.1415 -0.1464  0.0493
15893W        W32741  10.878   3.653  14.737  0.1391 -0.1580  0.4672
15894W        W32742   7.239   0.159   3.524 -0.0193 -0.0090 -0.0301
15895W        W32743  14.854   2.595  14.408  0.3387  0.0289 -0.1370
15896W        W32744  13.942  11.261  16.797 -0.0845  0.0375 -0.0633
15897W        W32745   7.831   0.516  16.541  0.0333  0.0683  0.0083
15898W        W32746   9.215   8.675   1.420 -0.0192 -0.1728  0.1326
15899W        W32747  11.858  11.475  14.635  0.1575 -0.1026  0.1621
15900W        W32748   1.201  16.647  16.284  0.0080 -0.1537  0.1175
15901W        W32749   5.487   9.703  17.045  0.1703 -0.2406  0.3039
15902W        W32750   7.192  15.574   5.623  0.1956  0.1633 -0.0424
15903W        W32751   5.389   9.947   3.475 -0.1462  0.1251  0.1039
15904W        W32752   0.505   1.217   3.157 -0.2486  0.1743 -0.0195
15905W        W32753  11.014   2.469   3.808  0.0941  0.1908  0.0788
15906W        W32754   8.365   2.733   4.760  0.0812  0.1929 -0.3312
15907W        W32755   6.226  16.227  17.381  0.1578 -0.1520  0.1529
15908W        W32756   0.667  11.231  17.652 -0.1111 -0.0490 -0.0123
15909W        W32757  16.336  11.121   4.249  0.1519 -0.1262  0.2963
15910W        W32758   5.357  16.457   5.364 -0.2650  0.0476 -0.1555
15911W        W32759  14.816  12.895  15.105 -0.1001 -0.0213  0.3666
15912W        W32760   6.381   8.508   3.599 -0.0186 -0.2340 -0.0112
15913W        W32761   6.824   7.486  13.759  0.1933 -0.3911  0.1429
15914W        W32762  16.225  10.562  14.021 -0.1978 -0.0981 -0.0975
15915W        W32763  15.358  15.811  13.332  0.2341 -0.0625  0.0428
15916W        W32764   8.530   7.040  15.493 -0.2049  0.1271 -0.2047
15917W        W32765  13.538  10.984   0.429  0.0360  0.1019 -0.0206
15918W        W32766   4.158   2.028  13.511  0.1563 -0.2430 -0.2043
15919W        W32767  13.282   1.920  13.598  0.0303  0.1887 -0.1771
15920W        W32768   5.324   8.884   4.650  0.1766 -0.0544  0.0286
15921W        W32769   2.862   0.379   3.547 -0.1915  0.1207  0.1347
15922W        W32770   0.598   8.347  14.253  0.4452  0.2258 -0.3305
15923W        W32771  15.109   4.248   3.574  0.0295  0.0348 -0.2824
15924W        W32772   3.443   0.834  12.346 -0.2574  0.1930  0.0801
15925W        W32773   0.109  14.302  12.422 -0.2156 -0.0864  0.1961
15926W        W32774  13.503   7.575   0.069 -0.0926  0.1315  0.4158
15927W        W32775  14.744  14.358  14.811 -0.1137 -0.1505  0.1513
15928W        W32776  12.437   9.152   3.297  0.0446  0.1318 -0.2539
15929W        W32777   6.117   0.095  16.065  0.1852 -0.0598  0.2686
15930W        W32778   1.485   5.739  16.389  0.0761 -0.1541  0.0043
15931W        W32779   9.304   1.716   2.027 -0.3912 -0.2243  0.2264
15932W        W32780   7.012   2.770   4.382 -0.1820 -0.0499  0.0249
15933W        W32781  15.348  14.990  14.579  0.0984 -0.0485  0.1043
15934W        W32782  10.086   0.308  13.946 -0.0145 -0.0643  0.1842
15935W        W32783  13.972   0.254   2.383 -0.1063  0.2960 -0.0795
15936W        W32784   1.955   3.738   2.064 -0.0605  0.2782  0.0996
15937W        W32785  15.008   4.674   3.800  0.2805  0.2054 -0.1701
15938W        W32786   3.801   6.712   2.821  0.0253 -0.3743  0.0447
15939W        W32787  14.289   4.175   2.082  0.2585  0.1165 -0.0740
15940W        W32788  16.021  15.836  17.429 -0.0738  0.2920  0.1054
15941W        W32789  10.731   1.652  14.839 -0.3158  0.0603  0.0120
15942W        W32790   2.462   8.329   4.453  0.1908  0.1737  0.1033
15943W        W32791  13.694   9.570   3.050  0.0449 -0.3834  0.2754
15944W        W32792   7.731  15.141  15.182  0.1233  0.0025  0.1016
15945W        W32793  16.536  14.297  12.297 -0.0190  0.2527 -0.2474
15946W        W32794  14.373  13.148   0.770 -0.0229  0.0718  0.0615
15947W        W32795  16.191   5.984  15.195 -0.0707  0.0139 -0.1728
15948W        W32796   8.770  16.664  15.999  0.1943 -0.0122  0.0159
15949W        W32797  12.712   6.601   0.970  0.0429  0.0175  0.0812
15950W        W32798  10.985   5.653   0.394 -0.1703  0.3121  0.1531
15951W        W32799  11.939   0.627   4.928 -0.1024  0.1975 -0.1011
15952W        W32800   0.888  11.715  13.202  0.3380 -0.0591 -0.0312
15953W        W32801  10.123   5.921   3.496 -0.1159  0.5250 -0.4878
15954W        W32802  13.240  14.600   1.799 -0.1280  0.1995  0.1520
15955W        W32803   2.678  11.067  15.551 -0.1018 -0.0843 -0.0735
15956W        W32804   6.329   1.906   5.408 -0.0985  0.0883  0.0283
15957W        W32805  13.432  14.116   6.433  0.0950  0.0779  0.3125
15958W        W32806  10.231  13.515  16.249  0.0203  0.0175 -0.0380
15959W        W32807   3.424  11.656  12.576 -0.2212  0.2917  0.1790
15960W        W32808  11.800   9.868   1.228  0.0425  0.0198  0.2352
15961W        W32809   9.360   4.883   2.357  0.3530  0.0440 -0.0468
15962W        W32810   8.632   9.920  17.419 -0.0695  0.0770  0.0593
15963W        W32811  11.575   3.214   2.089  0.0793  0.0118 -0.0854
15964W        W32812  16.857   8.608   0.162 -0.0066 -0.0670  0.1328
15965W        W32813   6.080   2.805   6.776  0.0398 -0.2032  0.0181
15966W        W32814   5.570   7.823   1.117 -0.1137 -0.0360  0.3400
15967W        W32815   6.599  12.059  15.045 -0.0900 -0.0633 -0.0009
15968W        W32816  13.554   1.095  13.002  0.1252  0.3912  0.1794
15969W        W32817  14.434   7.339   1.383 -0.0203  0.3136 -0.0082
15970W        W32818   5.739   7.552  17.206 -0.1089  0.3576 -0.3053
15971W        W32819  16.545  12.253  16.549  0.2318  0.1726  0.3642
15972W        W32820  15.147   0.581  13.722 -0.0166  0.2358  0.0322
15973W        W32821  13.436   4.648   2.312 -0.1526 -0.0673  0.0319
15974W        W32822   8.655   7.960  14.939 -0.0412  0.0025  0.1501
15975W        W32823   6.793   2.813   1.948 -0.1885 -0.2366  0.2096
15976W        W32824  11.434   2.828  15.942 -0.3694  0.1243  0.0438
15977W        W32825  10.855   8.527  14.619 -0.4288  0.0278 -0.1240
15978W        W32826   8.930  12.541  14.090 -0.1748 -0.1263 -0.2903
15979W        W32827  13.041   1.456  13.583 -0.1411 -0.2885 -0.1910
15980W        W32828   7.330   2.717  17.518 -0.1346  0.1218 -0.1127
15981W        W32829   0.566  10.192  14.733  0.1581  0.1035 -0.0338
15982W        W32830  15.339   1.659  17.290 -0.0150  0.0106 -0.5179
15983W        W32831   5.262  16.874  16.151  0.2567 -0.1174 -0.1983
15984W        W32832   3.704   1.213  14.723 -0.2236 -0.0157  0.0146
15985W        W32833   0.103   3.731   5.502  0.2025  0.0636  0.0113
15986W        W32834   8.285   7.198   0.006 -0.2366  0.1555  0.1534
15987W        W32835   3.663  10.104   2.821 -0.0930  0.2999 -0.0128
15988W        W32836   5.547  14.255  16.113 -0.3304  0.0203  0.4196
15989W        W32837   3.504  16.460  13.372 -0.2499 -0.3663  0.2440
15990W        W32838  14.111  10.758   5.585 -0.0231  0.0173 -0.0245
15991W        W32839   7.911  14.005   5.396 -0.3000  0.2606 -0.0694
15992W        W32840  12.318   5.608   0.321  0.0160 -0.0082  0.1584
15993W        W32841   6.944   5.819   1.243 -0.1357 -0.0993 -0.1726
15994W        W32842  12.195  12.054   0.320  0.2284  0.0666 -0.1611
15995W        W32843   2.721   1.500  15.012  0.0836  0.2424 -0.2205
15996W        W32844   1.451   8.409   1.959  0.0877 -0.1226  0.0763
15997W        W32845  16.231   4.095   0.701 -0.1362  0.3145 -0.2142
15998W        W32846   9.348   1.715  12.742  0.1344 -0.0106 -0.0354
15999W        W32847  11.446   9.269  15.065  0.1885 -0.3659 -0.1554
16000W        W32848   7.515   2.277  13.963  0.0277  0.0803  0.4029
16001W        W32849  12.938  13.013  17.428 -0.0082  0.2178  0.1250
16002W        W32850  12.670   1.917   0.502 -0.1981 -0.4634  0.2289
16003W        W32851   7.520   0.421  16.169 -0.0658 -0.2165 -0.0564
16004W        W32852  12.111   3.627   4.858 -0.0092 -0.1445 -0.1778
16005W        W32853   4.641   0.220  14.448  0.2431  0.0038 -0.3588
16006W        W32854  14.251   9.658   0.582  0.0337 -0.0103 -0.2557
16007W        W32855  12.252   8.049  13.675 -0.0819  0.2023 -0.1584
16008W        W32856  10.626   7.481   4.998  0.0656 -0.0285 -0.2393
16009W        W32857   7.225   6.114   3.133 -0.0451 -0.0309 -0.0941
16010W        W32858  15.995   1.062  15.333 -0.1501  0.1243 -0.0311
16011W        W32859   7.001   2.992   0.614  0.1283 -0.1947 -0.0351
16012W        W32860   9.217   7.358  16.677  0.1687  0.0119 -0.1000
16013W        W32861  15.766  15.156  12.641  0.1299 -0.5138  0.2537
16014W        W32862   6.421   1.604   0.011  0.2028  0.3639 -0.0159
16015W        W32863   3.732   7.214   2.442  0.0053 -0.0066 -0.0809
16016W        W32864  12.005  16.148  11.902 -0.2799  0.0777  0.1213
16017W        W32865   8.482   0.083   3.973 -0.2117  0.0719  0.1563
16018W        W32866  17.056  16.924   1.541  0.0838  0.2871 -0.0553
16019W        W32867   8.210   1.141  17.694 -0.1207 -0.1055 -0.1136
16020W        W32868   1.219  13.948   2.911  0.0688  0.0688 -0.0905
16021W        W32869   6.385   1.331  12.905  0.2779  0.1237 -0.0144
16022W        W32870   1.926  15.479  13.444 -0.2214 -0.2459  0.1742
16023W        W32871  14.983  12.206  13.095  0.1654  0.1291  0.1905
16024W        W32872   7.253  13.658   4.521  0.0516  0.1062 -0.1108
16025W        W32873   4.727   3.334  14.253  0.1376 -0.2054 -0.0372
16026W        W32874  15.039   8.622  17.075 -0.3536 -0.3578  0.0016
16027W        W32875   7.353  11.636  16.301 -0.0281  0.1741  0.0642
16028W        W32876   9.521  14.947  16.880 -0.0381 -0.2946 -0.2447
16029W        W32877  15.658   8.787   0.711  0.0640  0.0588  0.0175
16030W        W32878  15.376  15.924   5.562 -0.0182 -0.0281  0.2907
16031W        W32879   7.166   8.826   4.583 -0.0978 -0.3220 -0.0406
16032W        W32880  10.028  11.739   3.700  0.0909  0.0863  0.0952
16033W        W32881  15.551  13.420   0.546  0.0803 -0.0021  0.0627
16034W        W32882  15.535   7.611  17.160 -0.1307  0.2297  0.1910
16035W        W32883   6.391   5.933   0.410 -0.2137 -0.0309  0.0858
16036W        W32884   2.967   5.303   4.153 -0.0502 -0.1442  0.1170
16037W        W32885   3.079   3.069   1.586  0.0493 -0.1094  0.0487
16038W        W32886   0.765   3.092   2.696 -0.1347 -0.1412  0.0167
16039W        W32887   4.652   0.902   5.716 -0.1265 -0.2980 -0.0750
16040W        W32888   3.180  13.435  13.944  0.1785  0.3762 -0.1209
16041W        W32889   5.052  12.395  14.353 -0.3313  0.0520  0.0891
16042W        W32890   9.246   4.856  13.521  0.0087  0.0134  0.3438
16043W        W32891   2.558   6.534   6.446 -0.2437 -0.1196  0.3259
16044W        W32892   6.065  13.105   4.886  0.4162  0.1391  0.3328
16045W        W32893  11.085   4.367   5.703 -0.1868 -0.3475 -0.1247
16046W        W32894  12.069   6.214  16.741 -0.0401  0.0312 -0.0264
16047W        W32895  10.293  10.643   4.011  0.1489 -0.2965 -0.1477
16048W        W32896   1.556  17.118   0.346 -0.4314 -0.1651 -0.1885
16049W        W32897  16.159   3.677   2.087 -0.0121  0.0098  0.2623
16050W        W32898   2.035   2.365   2.042 -0.0690  0.4753 -0.1727
16051W        W32899   9.486  16.222   3.452  0.1967 -0.1325  0.1336
16052W        W32900   5.504  13.242   3.619 -0.0894  0.0043  0.1866
16053W        W32901   5.940   5.991  15.676 -0.1022  0.1226 -0.1799
16054W        W32902   5.141   0.852  12.694 -0.1941 -0.2430  0.1304
16055W        W32903   6.920  14.136  17.033 -0.0107  0.0460 -0.0327
16056W        W32904   0.802  10.892  15.644 -0.1083 -0.0151  0.0345
16057W        W32905  13.049   8.868  12.094  0.3931 -0.1965  0.0064
16058W        W32906   2.244  11.124   1.084  0.1354  0.3166  0.2478
16059W        W32907   4.788   2.649   5.173 -0.2979  0.1143  0.5387
16060W        W32908   2.484  10.604  17.655 -0.0612 -0.0030 -0.1188
16061W        W32909   4.550  12.555  14.298  0.3629 -0.3856 -0.0339
16062W        W32910  11.724   7.853  16.275  0.0389 -0.1886 -0.2619
16063W        W32911  14.051   9.925  11.988 -0.0075 -0.0529 -0.2621
16064W        W32912   8.195  14.784   5.109  0.2586 -0.3558  0.1430
16065W        W32913   7.444   4.266  12.412  0.0446 -0.0668 -0.0419
16066W        W32914  13.980   6.731   0.530 -0.0868 -0.0321  0.0628
16067W        W32915   4.171   4.832   5.303 -0.1168  0.3699 -0.0112
16068W        W32916   3.368   3.927  16.557  0.0844 -0.2863 -0.3397
16069W        W32917  10.386   0.445   3.238 -0.2274 -0.2729 -0.1519
16070W        W32918   7.001   3.137  15.954 -0.0741  0.2705 -0.2852
16071W        W32919  16.285   6.461   5.593 -0.0377  0.1542 -0.2734
16072W        W32920  12.572  15.034   2.549  0.0973  0.3144 -0.0404
16073W        W32921   8.803   1.644  14.014  0.0148 -0.4488 -0.0224
16074W        W32922   4.178  11.249  13.297 -0.1508  0.2519  0.2115
16075W        W32923   8.294  16.292  12.796  0.1927  0.0469 -0.1263
16076W        W32924   3.295  16.188  16.094  0.0760 -0.0720 -0.2911
16077W        W32925   7.248  12.771   1.134  0.0501 -0.2058  0.4847
16078W        W32926   9.140  13.550  14.372 -0.0552  0.1855  0.2204
16079W        W32927  13.413   3.029   3.653  0.1163  0.0766 -0.1132
16080W        W32928   5.510   4.518  12.789  0.2323 -0.1727  0.1317
16081W        W32929   1.345  16.257  16.757  0.2423  0.0625 -0.1615
16082W        W32930  16.347   4.937   4.968 -0.0146 -0.2522  0.0752
16083W        W32931   0.782  12.345   0.016 -0.0284  0.0562 -0.0911
16084W        W32932   8.179  12.269   3.902  0.3894 -0.0622 -0.1596
16085W        W32933  11.051  11.181   6.248 -0.1550 -0.1117  0.0831
16086W        W32934  16.374   9.894  14.588  0.0867  0.1958 -0.1802
16087W        W32935   3.297  14.923   1.964 -0.1378  0.0181  0.2804
16088W        W32936   0.855   6.776  13.892  0.0007  0.1292 -0.0410
16089W        W32937  14.800  15.355   0.315 -0.1250  0.2543  0.0742
16090W        W32938   8.736   3.066   1.534 -0.0642 -0.0213  0.0748
16091W        W32939   9.773   4.435  12.781 -0.0568  0.0861 -0.2234
16092W        W32940  12.864   1.427   4.482  0.0644 -0.0778 -0.0296
16093W        W32941  13.046   9.063   0.568  0.1641 -0.3205 -0.3407
16094W        W32942   7.171   8.413  16.905  0.1360  0.4305 -0.2476
16095W        W32943   7.919   5.080   4.655 -0.0750 -0.1006  0.0011
16096W        W32944  13.732  14.349  16.777 -0.3299  0.0405 -0.0184
16097W        W32945   2.176   0.695   5.985 -0.0416 -0.0615 -0.2611
16098W        W32946   5.927  16.780  16.357  0.2031 -0.1926 -0.0325
16099W        W32947   7.464   2.956  15.042  0.1365 -0.2440  0.0891
16100W        W32948  10.933   2.597   0.190 -0.0620  0.2505 -0.3102
16101W        W32949   5.733   7.996   5.181  0.0576 -0.2097  0.1556
16102W        W32950  16.865  10.823   2.970  0.3713 -0.0317  0.0448
16103W        W32951  11.913   6.273   1.001  0.0480  0.1423  0.1130
16104W        W32952  15.868   0.675   2.078 -0.0715  0.1002 -0.2601
16105W        W32953  15.933  15.934   4.431 -0.1893 -0.0521 -0.3505
16106W        W32954   0.160   7.241   0.313  0.0980  0.1982  0.0960
16107W        W32955  17.012   7.711   0.470 -0.0856  0.0006  0.2079
16108W        W32956  10.233  15.763   4.908 -0.3990 -0.0126  0.1619
16109W        W32957  15.742   8.509  13.055 -0.0584 -0.0562 -0.1621
16110W        W32958  16.212   7.920   0.692 -0.3068 -0.0121 -0.3972
16111W        W32959  13.971   7.931  13.307 -0.0563 -0.0321  0.0729
16112W        W32960   8.529   7.494  15.227  0.2658  0.2838 -0.1971
16113W        W32961   0.428  15.856   0.513  0.0731 -0.2102  0.2574
16114W        W32962   4.374   9.789  17.533  0.2742 -0.0796 -0.2239
16115W        W32963  13.527   2.625   0.519 -0.0973  0.3080  0.2848
16116W        W32964   6.104   5.102  16.170 -0.1809 -0.0383  0.1736
16117W        W32965   8.802   0.183   2.950 -0.2840 -0.2091  0.1869
16118W        W32966   4.366  16.854  16.910  0.0309  0.0622  0.0017
16119W        W32967  17.131  10.852   1.406  0.0114 -0.2350 -0.0107
16120W        W32968   1.419  12.040  16.312  0.2073 -0.0454 -0.0094
16121W        W32969   2.175  15.856   2.902  0.0698 -0.0142 -0.3004
16122W        W32970   0.805  14.478   1.025 -0.2208 -0.0096 -0.0495
16123W        W32971   2.873  15.350   5.195 -0.1405  0.1823 -0.2424
16124W        W32972  13.465  10.924   4.319  0.0783 -0.0286 -0.3130
16125W        W32973  11.303   0.672   2.222 -0.0374 -0.1224  0.0304
16126W        W32974  11.887  12.941   0.275 -0.0048 -0.0143 -0.1717
16127W        W32975   9.681   5.234  15.333 -0.0808  0.0009 -0.0159
16128W        W32976   0.851  13.656  15.363  0.1541 -0.0838 -0.4375
16129W        W32977   0.990   8.467  13.890  0.1553  0.1047 -0.3170
16130W        W32978  13.296  12.245  12.978 -0.0155 -0.2107 -0.0143
16131W        W32979   7.090   3.441  12.931 -0.1380 -0.1453  0.1238
16132W        W32980   9.301  16.832  11.850 -0.2547  0.0319 -0.0758
16133W        W32981   3.065  16.929   3.833 -0.0940 -0.0098  0.1690
16134W        W32982   1.673   3.294   1.519 -0.1338 -0.0293 -0.1244
16135W        W32983  15.123  13.513  15.589  0.0218 -0.0992  0.1041
16136W        W32984   6.228   0.726   4.710  0.0826  0.0805  0.2471
16137W        W32985  13.642  10.668  12.203 -0.0797  0.1244  0.1838
16138W        W32986   2.555   5.583   1.355 -0.2667 -0.2935 -0.0720
16139W        W32987  13.943   2.869  11.772  0.2227  0.0823 -0.0058
16140W        W32988   7.936  15.215  14.359 -0.2808 -0.1318 -0.0007
16141W        W32989   4.455   6.967  15.054 -0.0073  0.0457  0.1615
16142W        W32990   1.327  10.999  16.803  0.1440  0.0042 -0.1474
16143W        W32991   9.883   7.922   2.495  0.0546  0.0175 -0.1584
16144W        W32992  15.345   2.579  12.188 -0.1842 -0.2713  0.0268
16145W        W32993  10.209   4.449  13.666  0.2394 -0.1536 -0.0555
16146W        W32994   4.823   8.719  17.119 -0.3129  0.1222  0.0092
16147W        W32995   5.667   9.614   5.115  0.2974  0.3084  0.2665
16148W        W32996   4.989   5.526   3.651 -0.1904 -0.2625  0.1668
16149W        W32997   9.264   4.286  16.125  0.0960  0.1628 -0.2210
16150W        W32998   6.785   9.266  12.235 -0.1143  0.1068 -0.0710
16151W        W32999   9.333  15.227  13.509 -0.0707  0.1005  0.0848
16152W        W33000   4.541   5.089  15.264 -0.1740  0.1139 -0.2097
16153W        W33001   3.252  11.282  12.910  0.0117 -0.2389 -0.0049
16154W        W33002   6.371   9.931   0.265  0.4235 -0.0042  0.4596
16155W        W33003  10.692   3.683   1.522 -0.0184  0.1664 -0.0819
16156W        W33004  15.236  10.699   5.115  0.0480 -0.2614  0.2526
16157W        W33005   4.754   1.718   1.303  0.1867 -0.0304 -0.0684
16158W        W33006   4.977   8.590   4.847  0.0089  0.0816 -0.0856
16159W        W33007   6.057   3.221   0.484  0.1367  0.0965 -0.0154
16160W        W33008   3.569   8.663   1.103 -0.0174 -0.0233 -0.0241
16161W        W33009  11.871  12.830   5.496  0.1131  0.1805  0.1067
16162W        W33010  11.195   6.904  14.653 -0.1012  0.1248 -0.2068
16163W        W33011   5.202   6.878   3.408 -0.1486  0.1269 -0.2326
16164W        W33012   3.613   3.649   0.707  0.1358 -0.1395 -0.0924
16165W        W33013  12.064  11.430  16.289 -0.1291 -0.3916  0.4659
16166W        W33014   0.493   3.938  14.945 -0.1094 -0.0494  0.2303
16167W        W33015   1.550  15.308  11.855 -0.1589 -0.0031  0.1097
16168W        W33016   6.573  14.928  17.088  0.1350  0.0187 -0.1052
16169W        W33017   7.300  10.477   2.945  0.1337  0.0060 -0.1820
16170W        W33018   2.702   0.269  12.662  0.0979  0.2139  0.1189
16171W        W33019  13.957   6.763   2.305 -0.0791 -0.1985  0.0119
16172W        W33020  15.361   1.115   2.014  0.0925  0.1077 -0.0589
16173W        W33021   4.677  15.948   0.131 -0.0610  0.3132  0.2318
16174W        W33022   0.742   7.873  14.479  0.0005 -0.2588  0.1097
16175W        W33023   2.347   1.312  14.461 -0.2188  0.0416 -0.0613
16176W        W33024   6.035   9.721   5.608  0.1744  0.1789 -0.1036
16177W        W33025   8.032   9.520  12.984 -0.1281  0.1651  0.2902
16178W        W33026  13.105   2.246  12.573 -0.4322 -0.1438 -0.3849
16179W        W33027   2.259  12.443  15.413 -0.1667 -0.2176 -0.1755
16180W        W33028   3.697  14.681   3.186 -0.1289 -0.0542 -0.0683
16181W        W33029  11.239   1.595  13.561  0.0781 -0.3581 -0.1652
16182W        W33030  10.339  15.742   4.387  0.2153 -0.0057  0.2473
16183W        W33031  16.033   3.495   4.181  0.0573  0.0001 -0.2163
16184W        W33032  16.157   6.577  15.661  0.2307 -0.1105  0.1302
16185W        W33033   9.334   4.867  12.609 -0.1878 -0.1197  0.2745
16186W        W33034  11.337   5.703  16.718  0.0330  0.0487 -0.0818
16187W        W33035   2.578  15.616  12.095  0.0886 -0.1523 -0.1612
16188W        W33036   9.177   1.116   2.075 -0.1533  0.1876  0.0043
16189W        W33037  13.690  12.393   4.781 -0.1202  0.2375  0.0567
16190W        W33038   3.148   0.535   1.233  0.0738 -0.1479  0.2350
16191W        W33039  15.126   5.391   0.166  0.0339  0.0931  0.3446
16192W        W33040  10.432   8.020   0.693  0.3414 -0.3883  0.1847
16193W        W33041   0.947  17.159  17.392 -0.0333  0.0775 -0.1637
16194W        W33042  10.703   6.722   3.539  0.1538  0.1586  0.1881
16195W        W33043  10.912   7.625   1.356 -0.0833  0.1224  0.0068
16196W        W33044   4.672   7.446  15.118 -0.1799 -0.1717  0.1693
16197W        W33045   1.197  10.607  16.254 -0.0720 -0.0048 -0.0763
16198W        W33046  12.077   7.482   0.524 -0.0754 -0.0671 -0.0418
16199W        W33047   1.681   5.309   3.518  0.2648  0.0970 -0.1523
16200W        W33048  13.662   1.430  15.791  0.3325  0.0700  0.0973
16201W        W33049  14.077   0.418  12.699  0.0405 -0.1649  0.3935
16202W        W33050  10.304   2.653  13.627 -0.0674 -0.2249 -0.3203
16203W        W33051  10.358   2.631  17.683 -0.2571 -0.0368 -0.1144
16204W        W33052   2.229   3.068   3.660 -0.0008  0.4091  0.1203
16205W        W33053   5.400   3.123   3.141 -0.0456  0.0760  0.2808
16206W        W33054   5.259   1.463   0.604  0.3467 -0.1044  0.1014
16207W        W33055   0.342   0.211   0.339  0.0386  0.0997  0.0212
16208W        W33056  14.717   3.542  16.818 -0.1717 -0.0617  0.2152
16209W        W33057  15.780   5.403   6.192 -0.0711  0.0833 -0.2067
16210W        W33058  15.313   0.438   1.394  0.2056  0.0032 -0.0248
16211W        W33059   0.384  11.597   5.149 -0.0623  0.0849  0.1572
16212W        W33060   8.878  15.993   2.354  0.0379  0.3008  0.0197
16213W        W33061  12.089  16.262   5.111  0.0430  0.2312  0.0209
16214W        W33062   7.225   8.996  12.399  0.0316 -0.1300 -0.0626
16215W        W33063  14.241   7.846   1.577 -0.1416 -0.0259 -0.0567
16216W        W33064   7.935   9.788  16.567 -0.0511  0.3827  0.0327
16217W        W33065   7.631  11.445   0.312 -0.0229  0.0756 -0.0052
16218W        W33066  11.582  15.321  15.114  0.0440 -0.0380  0.1468
16219W        W33067  11.586   3.080   4.111 -0.2009  0.2856  0.2091
16220W        W33068   2.481  15.252   3.879  0.0720 -0.2444 -0.1167
16221W        W33069   8.768   2.506   0.270 -0.1333 -0.3767 -0.1108
16222W        W33070   8.082   8.413   2.863  0.2675  0.2836  0.0502
16223W        W33071   8.145  11.862   0.230  0.1978  0.1559  0.1383
16224W        W33072   0.732   8.566   1.369 -0.3726 -0.0172 -0.0419
16225W        W33073   2.650   3.543  12.300 -0.0026  0.0657  0.1792
16226W        W33074  11.829   2.854   4.959 -0.1223  0.1214 -0.0278
16227W        W33075  15.037   4.051  17.216  0.1293  0.0572 -0.1715
16228W        W33076   2.771  16.238   2.688  0.1400 -0.0609 -0.2597
16229W        W33077  12.949   8.409   0.512 -0.1229  0.1221 -0.0484
16230W        W33078  15.874   7.163  14.978  0.1484 -0.0741 -0.0058
16231W        W33079  12.397   3.976   4.644  0.2153  0.0447 -0.2708
16232W        W33080   3.031   7.997   4.045 -0.0229 -0.0727  0.1211
16233W        W33081   9.747   0.371  12.234 -0.2491  0.0428 -0.0961
16234W        W33082  16.430   6.178  15.920  0.2608  0.0707 -0.0090
16235W        W33083   4.054   0.615   4.523  0.1663 -0.1830 -0.1604
16236W        W33084   9.991  11.619  13.686 -0.0897  0.1743  0.0808
16237W        W33085   0.220   5.599   2.028  0.2056  0.0646  0.0733
16238W        W33086   7.708  15.805   4.940  0.0200 -0.0654  0.0926
16239W        W33087   1.136  13.663   2.002 -0.1735 -0.0784 -0.1849
16240W        W33088   0.382  10.267   0.004 -0.0911  0.1783  0.1329
16241W        W33089   9.917   8.805  12.127 -0.2037 -0.0262 -0.0777
16242W        W33090   4.660  12.580   5.863 -0.2326 -0.1641 -0.1658
16243W        W33091   5.631  13.932  17.126 -0.2929 -0.2110  0.2560
16244W        W33092  11.143   3.866   3.290 -0.0142 -0.3641  0.0699
16245W        W33093   6.525   3.465  14.863  0.0738 -0.1992 -0.1427
16246W        W33094  15.196  16.686  14.707 -0.0539 -0.1327  0.1604
16247W        W33095  11.019  10.335  14.269  0.0174 -0.3519 -0.2322
16248W        W33096   5.891  14.781  16.746 -0.3921  0.1134 -0.2906
16249W        W33097  11.838   2.136   1.257  0.1563  0.0172 -0.0641
16250W        W33098   9.945   0.962  15.909  0.2003  0.0533 -0.0226
16251W        W33099   6.752  15.769  12.282  0.1261 -0.3570 -0.2944
16252W        W33100   4.510  12.485   2.842  0.2926  0.3139 -0.0466
16253W        W33101   6.837  11.244   5.209  0.2252 -0.0361  0.1367
16254W        W33102   0.290   3.228   3.088 -0.1617  0.1263 -0.1490
16255W        W33103   7.846   3.507   0.725 -0.0549 -0.0737  0.0136
16256W        W33104  14.907   1.899  16.396 -0.1848 -0.4219 -0.1636
16257W        W33105  12.782  14.385   1.869 -0.1612 -0.3348 -0.0621
16258W        W33106   2.445   3.976   3.567 -0.1861 -0.0026 -0.1182
16259W        W33107   7.403   8.045  12.503 -0.0818 -0.0104 -0.1526
16260W        W33108   7.180   0.136  13.536  0.1224 -0.2994 -0.2039
16261W        W33109   7.027   2.685  15.108  0.0121  0.0545  0.1124
16262W        W33110   0.561  10.305   5.016  0.0116 -0.0476 -0.1489
16263W        W33111   0.498   8.432   6.601 -0.2869 -0.1900  0.3414
16264W        W33112   3.492  12.425  12.473  0.2928  0.1399 -0.1018
16265W        W33113  13.171  15.294   4.577  0.1315 -0.1056  0.2877
16266W        W33114  15.671   4.373   3.107 -0.1445  0.4063  0.0065
16267W        W33115   2.881  11.081   5.341 -0.2188  0.0502 -0.0182
16268W        W33116   2.253   4.276   4.338 -0.1959  0.3080  0.0019
16269W        W33117  15.012   9.972   5.463  0.0558  0.2009  0.1660
16270W        W33118  11.398   5.572  12.945 -0.0651  0.1441  0.2417
16271W        W33119   8.139   8.384  16.554 -0.1614 -0.1319 -0.1135
16272W        W33120   4.034   9.521   5.648  0.0230  0.0684 -0.1006
16273W        W33121   1.587   3.531  16.610  0.1868  0.1721  0.0717
16274W        W33122   3.291   3.209  14.156 -0.1841 -0.1521 -0.2008
16275W        W33123  12.701  12.089   5.820 -0.0474  0.1065  0.0345
16276W        W33124   7.456   8.290   5.029  0.2079  0.2015 -0.0184
16277W        W33125   1.844  12.976  16.377 -0.1374 -0.0929  0.1683
16278W        W33126   3.834  15.610  16.407 -0.0656  0.0790  0.2128
16279W        W33127   3.199  11.283   3.611  0.1306  0.1038  0.3642
16280W        W33128   5.865  15.419  17.452 -0.4559  0.0730  0.2062
16281W        W33129   6.972   1.073   2.249  0.0230 -0.1764  0.2670
16282W        W33130  16.748  14.602  17.473  0.0978  0.5264 -0.1462
16283W        W33131  12.574   1.610  13.759 -0.0911  0.1424  0.0648
16284W        W33132   7.392  13.459   0.136  0.1806  0.2176 -0.1039
16285W        W33133  11.861   4.661   1.819  0.0513 -0.0750  0.2061
16286W        W33134   4.806   4.362   5.561  0.3763  0.1093  0.1145
16287W        W33135   9.460  15.399   2.532  0.2049 -0.1539  0.2379
16288W        W33136   1.775  12.473  15.387 -0.0703 -0.0352 -0.0272
16289W        W33137  12.334  12.068   4.392  0.0522 -0.1798  0.2151
16290W        W33138   8.837  12.692   3.455  0.1034  0.0961 -0.2465
16291W        W33139  11.442   9.443  12.197 -0.0388 -0.0010 -0.0606
16292W        W33140   7.401   1.752  12.029 -0.0642 -0.0151  0.2729
16293W        W33141  11.006   0.659   0.566  0.0830  0.2659  0.0831
16294W        W33142   8.604  11.615  13.901 -0.2884 -0.2113 -0.2350
16295W        W33143   6.768   2.733   0.951 -0.0716  0.0258 -0.3295
16296W        W33144  10.349   1.969  15.985 -0.0967  0.2717  0.1327
16297W        W33145  16.035   7.145  14.473  0.3052  0.0041 -0.2094
16298W        W33146  15.107   4.316   3.082  0.3013 -0.1169  0.1567
16299W        W33147  13.422   4.172   2.106 -0.2522 -0.1406 -0.1386
16300W        W33148  11.855  16.473  15.743  0.0652 -0.1451 -0.3032
16301W        W33149  10.547  10.220  14.332  0.0919  0.3468 -0.0037
16302W        W33150   2.176   9.260  14.199 -0.0709 -0.2475 -0.2964
16303W        W33151  12.826   9.986  13.083 -0.2197 -0.0064  0.0112
16304W        W33152   8.930  12.488   1.981 -0.0110 -0.0149  0.0789
16305W        W33153  16.184  12.569  12.814  0.1845  0.0645 -0.0568
16306W        W33154  16.678  14.143  15.887  0.1907 -0.3168  0.0967
16307W        W33155  10.804  17.043   2.691  0.1167 -0.1790 -0.1989
16308W        W33156   8.347   4.369  12.874 -0.0527  0.2363 -0.3205
16309W        W33157   8.732   3.846   4.368  0.0926 -0.3268 -0.1322
16310W        W33158   1.009   7.137  13.449 -0.0034  0.1569  0.1675
16311W        W33159  13.086   3.297  16.812  0.1863  0.0798  0.0149
16312W        W33160  11.929  13.536   4.682  0.1794 -0.0791  0.2750
16313W        W33161  14.384   5.421  12.945  0.0155  0.0221  0.0133
16314W        W33162   4.132  13.290   2.099 -0.0533 -0.2354  0.0895
16315W        W33163   8.752   5.526   1.533  0.1554  0.0326 -0.2913
16316W        W33164  10.360  13.313   0.615 -0.1470  0.2288 -0.0383
16317W        W33165   6.622   3.311  12.153 -0.1328  0.0560 -0.1141
16318W        W33166   5.451   9.710   6.073  0.1300  0.0658 -0.0109
16319W        W33167   4.650   9.218   2.686  0.1820 -0.2851  0.0762
16320W        W33168   1.511   2.479   1.192 -0.1906  0.0139  0.3152
16321W        W33169   8.206   1.009  13.153 -0.2562 -0.0486  0.1051
16322W        W33170   6.176  15.011  15.642 -0.1272  0.1062 -0.1691
16323W        W33171   6.586  10.300   4.754 -0.2708  0.2297 -0.0050
16324W        W33172  13.194   0.769  12.636  0.1936  0.0344 -0.1485
16325W        W33173  11.732   6.526   0.574  0.0086  0.0012 -0.1816
16326W        W33174  10.615  16.640  13.166  0.1647  0.2208 -0.0497
16327W        W33175  16.167   7.708   3.862  0.4140 -0.0401  0.1337
16328W        W33176   8.929  12.916   2.232 -0.0202 -0.2602  0.1784
16329W        W33177   5.573  15.752   1.170  0.0932 -0.0156  0.0157
16330W        W33178   2.979  10.697  15.778 -0.3219 -0.0124 -0.2484
16331W        W33179  10.831   7.155  17.571  0.1286 -0.3877  0.1206
16332W        W33180   4.268  12.792  16.777 -0.1266  0.3561  0.0690
16333W        W33181   1.113   9.054   1.472 -0.1500 -0.2579  0.2102
16334W        W33182  13.030   2.711  16.799 -0.1809 -0.3865 -0.2889
16335W        W33183  14.277  15.134  15.560  0.1512  0.1716  0.1636
16336W        W33184   3.639  17.143   3.112 -0.1840  0.1528  0.1726
16337W        W33185   8.866  13.750  16.690 -0.0933 -0.0457  0.2659
16338W        W33186  10.435   5.815  15.200  0.1789 -0.0043 -0.0307
16339W        W33187   2.837   9.768  16.150 -0.0374 -0.0855 -0.1231
16340W        W33188  15.888   8.236   2.745 -0.2541 -0.0508  0.0782
16341W        W33189   2.862   6.120   2.139  0.3607 -0.0712 -0.2176
16342W        W33190  15.971   2.454   4.365 -0.2232  0.1833 -0.0236
16343W        W33191   2.695   2.017  14.850  0.3211 -0.2120  0.0203
16344W        W33192   8.021   7.824   5.303 -0.3144  0.0752 -0.0673
16345W        W33193   2.163   7.177  17.544  0.0039 -0.1236  0.0206
16346W        W33194  15.918   6.996   0.699 -0.0642 -0.0110 -0.2054
16347W        W33195   9.426   9.521  15.126  0.0385 -0.1944 -0.2771
16348W        W33196   4.120  16.172   5.000 -0.3769  0.1162 -0.2377
16349W        W33197   7.020   9.142   4.976 -0.1158  0.1208  0.1844
16350W        W33198   9.515   2.351   3.817 -0.1854  0.2463  0.1630
16351W        W33199  11.452  14.091   4.194  0.0854 -0.0806 -0.0938
16352W        W33200   9.347  12.335  13.913 -0.3398 -0.2542 -0.1626
16353W        W33201  13.594   5.028   0.447 -0.1258 -0.0939  0.0354
16354W        W33202   9.094   6.834  15.595 -0.0593 -0.0840 -0.1766
16355W        W33203   9.326   4.388   3.551 -0.1240 -0.0270 -0.0082
16356W        W33204   2.948   9.500   4.040  0.0355  0.3614  0.0186
16357W        W33205  15.007  12.661   6.377 -0.2722  0.0351  0.1138
16358W        W33206   6.003  14.705   0.205  0.1087 -0.0274 -0.0322
16359W        W33207  12.308   0.686  17.582 -0.1288 -0.0231 -0.0550
16360W        W33208  13.967  14.012   5.542 -0.0332  0.0911  0.1776
16361W        W33209   5.658   7.498   1.532 -0.4109  0.0949 -0.0058
16362W        W33210   8.982  15.677  15.262  0.2490  0.1939 -0.1850
16363W        W33211   3.572   5.306  16.325  0.0332  0.0094  0.0055
16364W        W33212  11.753   7.175  12.429  0.3248 -0.1621  0.0511
16365W        W33213   9.282   2.101   4.158 -0.0806 -0.1218  0.0565
16366W        W33214   5.938   7.778   6.606 -0.2133 -0.0586  0.0873
16367W        W33215  14.005   8.824  13.720 -0.0150 -0.3317 -0.0758
16368W        W33216  10.055   0.064  15.835  0.2021 -0.1262 -0.0151
16369W        W33217  10.907  16.395  12.001 -0.2390  0.0314 -0.0039
16370W        W33218   1.845  16.817  17.415  0.3902 -0.1563 -0.4719
16371W        W33219  16.984   6.288  12.892 -0.0528  0.2517 -0.1483
16372W        W33220   8.306  14.882  16.435 -0.0499  0.1785 -0.5140
16373W        W33221   9.099   6.040   3.360  0.2183 -0.4121  0.0356
16374W        W33222   1.096  13.880  12.837 -0.1299 -0.2284 -0.0265
16375W        W33223   5.332   7.603  16.706  0.0414  0.0935  0.0063
16376W        W33224  11.399  16.624  14.654  0.2351 -0.1080  0.0515
16377W        W33225  14.540  13.890   5.630 -0.0856  0.0427  0.0836
16378W        W33226   7.614  13.387  14.386  0.1115 -0.1125  0.3142
16379W        W33227   1.859  13.308   2.027 -0.0376  0.2272  0.1684
16380W        W33228   7.129   3.508   2.726 -0.3242  0.2666 -0.0531
16381W        W33229  11.998   2.892  13.695  0.1190 -0.1471 -0.0799
16382W        W33230   5.467   8.755   4.193  0.0395  0.1560 -0.4213
16383W        W33231   0.422   8.443   5.751  0.2210  0.0793 -0.0435
16384W        W33232  12.857   3.851  16.206  0.2146 -0.1653 -0.1309
16385W        W33233   3.487  13.723  12.721 -0.0190  0.2637 -0.3981
16386W        W33234   6.561  10.352  13.505  0.2002  0.1770 -0.2011
16387W        W33235   8.511   2.148  16.085 -0.1829 -0.1207 -0.1346
16388W        W33236   2.306  12.496  14.075  0.0494  0.0735 -0.1739
16389W        W33237   7.236  14.815  15.520  0.1543  0.2425 -0.2110
16390W        W33238   0.795  16.037   3.650 -0.0216  0.0631  0.0332
16391W        W33239  14.970   7.032  12.540  0.2310 -0.1004 -0.1858
16392W        W33240   9.436   0.865  13.305 -0.0503  0.0461  0.3018
16393W        W33241   5.319   6.274   4.592 -0.0874  0.2723  0.3079
16394W        W33242   5.357   3.066   2.631 -0.2538 -0.2309  0.2389
16395W        W33243  16.025   9.927  13.438  0.0523  0.0090 -0.2234
16396W        W33244  17.041  11.772   2.945 -0.4996  0.1772 -0.0354
16397W        W33245   1.238   4.226  16.233  0.0502 -0.1542 -0.1072
16398W        W33246  13.318   5.293  16.139  0.0291 -0.1151 -0.0755
16399W        W33247  10.313  11.240  12.588 -0.1937  0.3278 -0.2469
16400W        W33248   5.698  13.412   4.966 -0.0805  0.0039 -0.0725
16401W        W33249   2.841  13.773   5.711 -0.1678 -0.1678  0.2407
16402W        W33250  15.383  12.692   3.912 -0.2926 -0.1047 -0.0744
16403W        W33251  11.920  13.509   1.300  0.1128 -0.2884 -0.0570
16404W        W33252   5.958   1.166  13.912  0.1338  0.2382  0.0041
16405W        W33253  10.031  10.680  16.822  0.0441  0.0864 -0.0361
16406W        W33254  13.072   6.899  12.834  0.2521 -0.1239 -0.3613
16407W        W33255   7.787   3.342  12.228  0.2525  0.2474 -0.1402
16408W        W33256   2.037  13.809   2.157 -0.1437 -0.1786 -0.0458
16409W        W33257  10.341  13.170   1.624  0.1662 -0.3023  0.0520
16410W        W33258   5.571  10.631  17.012 -0.0245 -0.2552  0.0706
16411W        W33259  10.063   6.070  15.344 -0.0873 -0.2693 -0.0665
16412W        W33260  15.094   0.550   5.021 -0.0425  0.0039  0.0125
16413W        W33261  11.460   0.891  12.858  0.1084  0.3815  0.1087
16414W        W33262   9.393   8.791   4.731 -0.0334  0.0014 -0.0988
16415W        W33263   7.899  15.019  16.145  0.1276 -0.1282 -0.2418
16416W        W33264   2.486  11.516   1.409 -0.2010  0.1582 -0.0913
16417W        W33265   4.729   9.462  15.136  0.1910  0.1827 -0.2064
16418W        W33266  16.162  10.153   4.215 -0.0581 -0.0451 -0.3265
16419W        W33267   4.311   8.798   0.293  0.0344  0.1855  0.1386
16420W        W33268  15.146  14.322   2.567 -0.2071 -0.0733  0.1625
16421W        W33269  14.891  11.227   1.297 -0.0294 -0.0971 -0.0924
16422W        W33270  11.864  13.378  16.071  0.5636  0.1064  0.3049
16423W        W33271  13.571   8.320  14.947  0.0691  0.2829 -0.0077
16424W        W33272   8.869  16.199   4.511 -0.2079  0.0039 -0.0744
16425W        W33273  12.734   4.054  15.686 -0.1149 -0.2397 -0.0465
16426W        W33274  10.796  15.232  16.225 -0.4477  0.0644 -0.1773
16427W        W33275   7.917   3.845  15.203 -0.0276 -0.0599  0.1266
16428W        W33276  13.745   4.748  12.977  0.0630 -0.2971  0.1126
16429W        W33277  12.002   5.840   2.096  0.1919  0.0284 -0.0421
16430W        W33278   4.630  15.390  16.968 -0.0491  0.0447  0.2072
16431W        W33279   6.085   6.927   0.126 -0.1025  0.0941 -0.1505
16432W        W33280  16.718  14.109   5.561 -0.1951 -0.2012 -0.1347
16433W        W33281  16.627   0.578  16.305 -0.1107 -0.0639  0.4252
16434W        W33282  12.954   9.270  17.327 -0.0899  0.0912  0.0039
16435W        W33283   3.581   4.418  13.446  0.1636 -0.1889  0.0024
16436W        W33284  16.964  11.929   4.576  0.1278  0.2652 -0.4159
16437W        W33285   0.663   6.931  16.143  0.0739 -0.1665  0.0720
16438W        W33286   1.263  13.508  15.093 -0.1208 -0.0031 -0.1439
16439W        W33287  12.122   9.999   2.793  0.1888 -0.0789  0.1024
16440W        W33288   2.180  17.120  16.155  0.1976 -0.0786  0.1043
16441W        W33289   1.137  11.122   1.397 -0.3007  0.1072 -0.1635
16442W        W33290   5.620   9.922   4.727  0.1869  0.2355 -0.1983
16443W        W33291   0.156  15.423  17.314  0.1658  0.3017  0.3000
16444W        W33292   7.276   2.697   2.131  0.1271 -0.1330 -0.2087
16445W        W33293   7.990   3.566   5.975 -0.1096  0.0588  0.2384
16446W        W33294  12.828  15.042  13.230 -0.1342 -0.3173  0.0969
16447W        W33295   8.156  12.509   0.893  0.2006 -0.1105  0.2527
16448W        W33296   6.125  10.983   3.090 -0.1860 -0.1605 -0.0504
16449W        W33297  12.935   6.765  17.763 -0.0980 -0.2624 -0.1024
16450W        W33298   5.535  11.884   4.405 -0.0592  0.1279 -0.1676
16451W        W33299  14.227  12.414   3.789  0.0919 -0.0902 -0.4169
16452W        W33300   6.985   9.465  16.503 -0.0033 -0.2083 -0.0813
16453W        W33301   9.857  14.455  15.738 -0.2033 -0.1071 -0.4686
16454W        W33302   8.227  11.593  14.250 -0.3045  0.0274 -0.0196
16455W        W33303   1.432   3.511  12.732  0.0298  0.1514 -0.0614
16456W        W33304   5.346   4.057   4.933 -0.1062  0.2279 -0.1376
16457W        W33305  10.515  16.206   3.275  0.0622  0.1948  0.3184
16458W        W33306   2.854   7.589  17.198  0.2999 -0.0094 -0.0550
16459W        W33307  11.785  14.738   3.309 -0.0911  0.0312 -0.5466
16460W        W33308   2.998   0.283   6.000  0.0856 -0.2097 -0.2511
16461W        W33309  10.655   0.895  11.228  0.1882  0.0379 -0.1218
16462W        W33310   3.746   0.370   0.651 -0.0772 -0.0145 -0.0184
16463W        W33311  14.812   1.438  12.663 -0.0389  0.0733 -0.1622
16464W        W33312  16.055   9.957   1.032 -0.2218 -0.0037 -0.2177
16465W        W33313   4.612  16.681  15.764  0.2040 -0.0190 -0.0117
16466W        W33314  11.095  15.383   5.068 -0.1188 -0.2383 -0.1525
16467W        W33315   1.336   3.267  14.707 -0.1277 -0.2947 -0.0354
16468W        W33316   4.439   5.931   4.972  0.1101 -0.3736 -0.0057
16469W        W33317   8.066   6.492   0.483 -0.3804  0.0660 -0.0818
16470W        W33318   1.122  16.688   5.220  0.3201 -0.1551  0.3498
16471W        W33319   9.593  10.283  17.304 -0.1624 -0.0196 -0.0794
16472W        W33320  10.915   3.897   1.916 -0.0184  0.2570  0.0163
16473W        W33321   5.667  13.818  15.463 -0.0968 -0.1744  0.1390
16474W        W33322   0.653   3.497   5.096 -0.1326  0.1607  0.2063
16475W        W33323   8.509  10.209  13.145  0.0420  0.0581 -0.0323
16476W        W33324  16.379   3.833   3.749 -0.0731 -0.0001 -0.1119
16477W        W33325  10.570  13.999  12.981 -0.1975  0.0663  0.0930
16478W        W33326   8.770   6.390  17.533  0.2819 -0.1307  0.0376
16479W        W33327   2.777   1.166  16.514  0.2936 -0.0389  0.2556
16480W        W33328   3.504   5.572  16.953  0.0938  0.0312 -0.1603
16481W        W33329  14.179  11.816   3.655 -0.1036 -0.0371  0.2083
16482W        W33330  13.871   0.531  15.738 -0.1666  0.3710  0.3802
16483W        W33331  12.002  16.518  16.228 -0.3812 -0.2566 -0.0409
16484W        W33332   6.474   5.785  14.865 -0.0227 -0.0279 -0.1683
16485W        W33333  15.281   1.440   1.608 -0.1481  0.2171  0.0352
16486W        W33334  11.912  10.335   4.059 -0.1196  0.1731  0.2165
16487W        W33335   4.240   4.502   2.856  0.0798  0.0912 -0.1839
16488W        W33336  12.980  15.668   1.198  0.0167  0.0886  0.3283
16489W        W33337   4.829   5.107   1.354 -0.2183  0.1707 -0.0835
16490W        W33338  12.313   2.622   3.632  0.1952  0.0584 -0.1574
16491W        W33339  11.478  13.420   1.566  0.2087  0.0065  0.0206
16492W        W33340  16.834   6.231  14.967  0.0551  0.0487  0.2417
16493W        W33341  12.116   7.557  17.345  0.1761  0.3148 -0.2806
16494W        W33342   0.559   4.373   2.111 -0.0032  0.1064  0.0915
16495W        W33343   2.342   2.069   4.843 -0.1775 -0.0073  0.0696
16496W        W33344   3.050   2.434   4.118 -0.0164 -0.2513  0.1629
16497W        W33345   8.787   0.236  16.633  0.2969  0.1106 -0.1220
16498W        W33346  13.482   7.041   2.331  0.0888  0.1014 -0.2216
16499W        W33347  13.129  11.397  13.894  0.0334 -0.0224 -0.1957
16500W        W33348   3.949   4.757   3.232 -0.1228  0.2043 -0.0336
16501W        W33349   6.945   1.253  13.321  0.5415  0.1435  0.1627
16502W        W33350   3.978   2.016  12.843 -0.0910  0.1544 -0.0130
16503W        W33351  13.225   1.214   3.399  0.2694 -0.2128  0.0564
16504W        W33352   5.088   6.961  14.168 -0.1707  0.0016 -0.0414
16505W        W33353   4.812  13.033  17.115  0.0095  0.1915 -0.4325
16506W        W33354  13.423  15.442   1.178 -0.0877  0.1881  0.0184
16507W        W33355   2.951  11.676  12.196  0.1294  0.2442 -0.2662
16508W        W33356   8.195  13.649  14.971 -0.1906 -0.2882 -0.1373
16509W        W33357   5.971   4.194  16.704 -0.1852 -0.2258  0.0543
16510W        W33358  13.067   1.785   1.175  0.0223  0.1455 -0.0164
16511W        W33359  11.118   0.720  14.604  0.0019 -0.0075 -0.0018
16512W        W33360   1.432   6.679   6.129  0.2809 -0.1135 -0.0234
16513W        W33361  15.728  16.007   5.222 -0.0188 -0.0835 -0.0094
16514W        W33362   5.940  11.358   0.542 -0.2412  0.2504  0.0361
16515W        W33363  11.037   5.445   3.936 -0.2774 -0.2893  0.1601
16516W        W33364   0.262  14.345  14.343  0.4403 -0.0954 -0.1140
16517W        W33365  10.837   9.200  12.165  0.1559  0.1458 -0.1617
16518W        W33366  14.097   5.500  14.725 -0.1287  0.0169 -0.1516
16519W        W33367   7.690   7.218  17.467  0.1339  0.0346  0.3652
16520W        W33368   4.004   8.721  13.915 -0.1573  0.2188 -0.0572
16521W        W33369  16.760  10.565   5.591  0.0417 -0.2490 -0.0573
16522W        W33370   7.696  13.905  15.379 -0.2432 -0.2606  0.1020
16523W        W33371   9.621  12.113  15.221  0.4582  0.0902 -0.0084
16524W        W33372   6.248   5.460   3.837 -0.2766  0.1029 -0.1508
16525W        W33373  16.845  12.395   5.967  0.1227  0.1398 -0.0717
16526W        W33374  11.748   6.953  14.057 -0.2187 -0.0688 -0.0655
16527W        W33375   2.378   0.904   1.465 -0.3297  0.1003  0.1600
16528W        W33376   5.788  15.872  12.867 -0.0237  0.3559 -0.0359
16529W        W33377   0.125   1.691   1.944  0.0758  0.0259 -0.1645
16530W        W33378   8.463   7.697   0.935 -0.0146 -0.0781 -0.0942
16531W        W33379  12.546   2.815  14.411  0.2745 -0.0401 -0.0350
16532W        W33380   7.116   5.868   5.541  0.2183  0.2382  0.0439
16533W        W33381  10.769  14.800   3.127 -0.2478  0.0095 -0.1188
16534W        W33382  12.090  14.374   3.533  0.0993  0.2151 -0.4365
16535W        W33383   6.603   8.931  13.913  0.4214  0.0489 -0.3748
16536W        W33384   9.843   9.205   5.138  0.2468 -0.1037 -0.0939
16537W        W33385  15.938  13.310  14.556 -0.0482 -0.1266 -0.0167
16538W        W33386   1.978   5.476  17.061 -0.2031  0.2541  0.1265
16539W        W33387   8.327   5.625   0.040 -0.2937  0.1192  0.1024
16540W        W33388   1.354   6.965  15.383  0.1098  0.1561 -0.1165
16541W        W33389  11.054   3.999  11.963  0.1175 -0.0777 -0.0169
16542W        W33390  16.240  13.339   4.924 -0.2426 -0.0575  0.1008
16543W        W33391  13.766  10.941   0.925 -0.0531  0.0134  0.2008
16544W        W33392  11.960   9.385   1.228 -0.0002  0.0431 -0.0977
16545W        W33393  12.062   0.373  12.058  0.0182  0.0047  0.2860
16546W        W33394  16.197   8.845   3.636  0.1474  0.0236 -0.0330
16547W        W33395  10.561   6.207  11.588 -0.0396 -0.3662 -0.0158
16548W        W33396  11.838   0.611   3.138 -0.1328  0.0709  0.0474
16549W        W33397   5.048   3.493  17.288  0.0466  0.1173  0.1137
16550W        W33398  10.038   8.041   1.580  0.1845  0.1815  0.1294
16551W        W33399  11.978  15.565   2.053 -0.0480  0.0605 -0.0956
16552W        W33400  11.684   6.499  12.939  0.0716  0.0448 -0.1400
16553W        W33401  13.799  16.144   3.032  0.0644  0.0088 -0.1274
16554W        W33402   2.864   9.232   3.632  0.2025  0.2075 -0.1679
16555W        W33403   9.369   0.002  12.208  0.0535 -0.3559  0.0226
16556W        W33404  15.579  12.736  15.600 -0.0588 -0.0906 -0.1213
16557W        W33405  16.841  15.900  14.669 -0.2086 -0.2599  0.2841
16558W        W33406   3.624   4.929  15.488 -0.0527  0.1105 -0.1521
16559W        W33407  16.632   3.111  13.532 -0.0135 -0.0471 -0.0463
16560W        W33408  11.323   8.633   1.452  0.0770  0.1100  0.0476
16561W        W33409  13.279  15.977   2.053 -0.2830  0.0652 -0.0178
16562W        W33410   0.183  13.468   4.428  0.0326  0.2025 -0.1523
16563W        W33411  10.403   6.044  17.674  0.1892 -0.0315 -0.0898
16564W        W33412   4.584   4.040   2.315 -0.3038 -0.0936  0.0767
16565W        W33413  15.966  12.712   3.938 -0.3815  0.0824 -0.0985
16566W        W33414  15.994   9.123   4.052 -0.2004 -0.1541 -0.1126
16567W        W33415   8.717   7.301   0.292  0.1631  0.4730 -0.0142
16568W        W33416  15.246  17.156  12.729  0.3347  0.1479  0.1719
16569W        W33417   4.983  15.373   0.193 -0.0498  0.0466 -0.1582
16570W        W33418   6.296   3.942  12.908  0.2356 -0.1461 -0.2232
16571W        W33419   4.789   9.234   1.510 -0.0686  0.3290  0.0626
16572W        W33420   4.246   4.220  14.626  0.1311 -0.0879  0.0832
16573W        W33421  11.089   2.263  16.626 -0.0572 -0.1328  0.1053
16574W        W33422   6.904  12.182  15.585  0.0549  0.1094  0.1538
16575W        W33423   3.805   4.466  15.501 -0.0070 -0.0763 -0.1110
16576W        W33424   7.665   0.496   0.853  0.0951  0.0127  0.2704
16577W        W33425   2.570   1.617   0.900  0.3891  0.0340 -0.0100
16578W        W33426   3.693  13.440   5.769 -0.1468  0.2231 -0.0580
16579W        W33427   5.052   3.663  16.836 -0.0954 -0.3465 -0.1333
16580W        W33428   7.457   5.100   4.474  0.0266 -0.0341  0.0213
16581W        W33429   5.364  12.394   5.788  0.0956 -0.1446  0.2112
16582W        W33430  16.000  12.109  17.563 -0.2114 -0.4032 -0.0848
16583W        W33431   4.631  17.071   2.136  0.0013  0.5294  0.0344
16584W        W33432  15.681  11.340  12.301 -0.1195  0.1732 -0.0508
16585W        W33433   2.486   1.833  14.437  0.2487  0.2722 -0.0602
16586W        W33434  11.678  12.307  13.161  0.0404 -0.1662  0.0219
16587W        W33435   5.847   2.690  15.676  0.3873  0.0766  0.2470
16588W        W33436   1.109  10.057  16.106  0.0124  0.1274  0.0951
16589W        W33437   7.486   7.185   0.238 -0.1335  0.1879  0.3666
16590W        W33438   7.249  11.031   1.853 -0.0576  0.0428  0.1012
16591W        W33439  15.895   7.294  12.332 -0.1142 -0.0903  0.3726
16592W        W33440   9.223  15.793  16.075  0.0238  0.0978  0.0056
16593W        W33441  14.520   1.220  12.198  0.2259  0.2970  0.1660
16594W        W33442   3.633   2.466   1.924 -0.2659  0.1994 -0.0848
16595W        W33443   3.899   0.218  16.862 -0.0220  0.0867  0.0368
16596W        W33444   3.093   4.106   4.832 -0.3872 -0.0549  0.4292
16597W        W33445  11.068  14.998   1.754  0.1071 -0.1076  0.0176
16598W        W33446   0.592  14.711   2.762  0.3471 -0.0308 -0.1268
16599W        W33447   0.598   1.373  12.369 -0.2253  0.0217 -0.0251
16600W        W33448  16.083   9.062  12.918  0.1694 -0.0077 -0.0465
16601W        W33449  10.394  13.464  11.900  0.0166 -0.1818  0.1533
16602W        W33450  10.929  12.779  16.466  0.0014  0.1496  0.2641
16603W        W33451  14.530   3.045  12.141  0.0171  0.0292 -0.1027
16604W        W33452  10.913  14.774   0.268  0.1780 -0.3960 -0.2043
16605W        W33453   6.374   0.986  15.595 -0.1869  0.2376 -0.1126
16606W        W33454  13.659   1.558  16.949  0.3948  0.1663  0.2858
16607W        W33455   6.847   5.342  14.168 -0.1635 -0.2374 -0.0515
16608W        W33456   9.464   3.902  13.491 -0.1184  0.0152  0.1259
16609W        W33457   0.980  14.040   1.346 -0.0584 -0.1024  0.0421
16610W        W33458   5.224   0.139  16.668 -0.3140  0.0565 -0.1194
16611W        W33459   4.435   2.889  17.125 -0.0093  0.1131  0.1237
16612W        W33460  12.664  13.232  13.755 -0.0640 -0.1928 -0.2005
16613W        W33461  16.223   0.351   5.967  0.0835  0.0342  0.2331
16614W        W33462   0.738   8.967   1.081  0.1390 -0.0450 -0.1146
16615W        W33463   1.125   0.037   5.491 -0.0264 -0.0296  0.3625
16616W        W33464  15.154   3.595  17.336 -0.0364 -0.0800  0.1001
16617W        W33465  16.474   7.805   1.104  0.0725  0.2903 -0.0061
16618W        W33466   9.885  13.518  15.633  0.0674  0.1791  0.1773
16619W        W33467  13.189   9.416  15.602 -0.1333  0.0663 -0.2871
16620W        W33468   0.646  16.846  14.356 -0.0329  0.0443 -0.2064
16621W        W33469   2.519  13.694  16.288 -0.2163 -0.0735  0.0994
16622W        W33470   3.750   9.079   0.767 -0.0012  0.0494 -0.0886
16623W        W33471   1.195   7.041  17.367  0.1350 -0.0099  0.0820
16624W        W33472  15.993   3.077  17.292  0.0635 -0.0390 -0.1350
16625W        W33473   4.086   2.655  16.834 -0.2813  0.2324 -0.0065
16626W        W33474  12.291   2.889   1.236 -0.1246 -0.3615  0.0885
16627W        W33475  11.650  13.423   0.586  0.1039  0.4831  0.0484
16628W        W33476  12.972  15.773  14.630 -0.0806  0.1083 -0.1007
16629W        W33477   2.319  12.101   4.084 -0.0149 -0.1750 -0.0967
16630W        W33478   1.499  10.053   3.187 -0.0602 -0.0404 -0.1719
16631W        W33479   1.820   9.033  12.711  0.0023  0.3950  0.1854
16632W        W33480  16.671  13.310   2.662 -0.0157 -0.2277  0.1676
16633W        W33481  15.235  11.770  16.046  0.1171  0.2888 -0.0299
16634W        W33482   5.790   6.320   4.888 -0.0443  0.0129 -0.0775
16635W        W33483  16.077   2.039   0.711  0.0560 -0.3295 -0.2122
16636W        W33484   4.604   0.480  16.211 -0.1667  0.0602 -0.1097
16637W        W33485   0.569   3.474   4.253 -0.0381  0.0208  0.0332
16638W        W33486  12.907   5.022  17.383  0.1783  0.4059 -0.1858
16639W        W33487  14.069  15.962  15.442  0.0577 -0.1156  0.1737
16640W        W33488  16.301   7.899  17.374  0.2622  0.0553 -0.0677
16641W        W33489   7.694  14.002  13.384 -0.1670  0.1228  0.3764
16642W        W33490   2.049   3.689  15.865  0.1780  0.0881  0.0456
16643W        W33491  15.285  13.247  13.771  0.0788 -0.0383 -0.1832
16644W        W33492   7.166  15.412  16.476  0.0916 -0.1149 -0.5915
16645W        W33493   0.758   1.923  13.958 -0.1062  0.2852  0.0927
16646W        W33494   9.647   4.042   2.320  0.3104  0.1729 -0.3331
16647W        W33495  15.879  15.183  14.536  0.0135 -0.0788 -0.0554
16648W        W33496   0.917   6.066   3.211 -0.1654  0.3619  0.1616
16649W        W33497   2.880   4.683  14.221  0.1298  0.0226 -0.4749
16650W        W33498   0.618  14.223   4.537 -0.0053  0.2790  0.0089
16651W        W33499   9.818   8.727  13.249 -0.2009  0.0094 -0.0240
16652W        W33500  14.140  16.841  11.413  0.0218  0.1122  0.0627
16653W        W33501  10.420   4.675  17.376 -0.0997 -0.0877 -0.0021
16654W        W33502  10.477  11.517   0.685  0.0946 -0.2217 -0.1491
16655W        W33503   0.331  16.840  13.512 -0.0910  0.4864 -0.0625
16656W        W33504   2.479  14.253  15.513 -0.3438  0.2162 -0.3043
16657W        W33505   1.967  12.112  16.227  0.0356 -0.0739  0.0612
16658W        W33506   6.510  11.323  16.872  0.1667  0.0033  0.1022
16659W        W33507   4.261   5.749  16.956 -0.1472 -0.1316 -0.0578
16660W        W33508  12.035  16.239  17.533 -0.0156  0.0817  0.0159
16661W        W33509   4.549  15.293   3.279  0.0731  0.2263  0.2353
16662W        W33510   7.214   4.516  17.036 -0.0215  0.2405 -0.1098
16663W        W33511   4.883  12.952   5.027  0.0039  0.1857 -0.0560
16664W        W33512  10.109  12.480  16.015 -0.3707 -0.2582  0.2484
16665W        W33513  12.473  10.665  13.943  0.0380 -0.2040  0.2577
16666W        W33514   5.689  14.815  16.286 -0.2254  0.3305  0.4578
16667W        W33515   8.294   4.935   2.101 -0.2544  0.0545 -0.1824
16668W        W33516   5.492   9.065   3.174 -0.1859 -0.0530 -0.2326
16669W        W33517   2.231  14.930  15.580  0.2508  0.2945  0.0558
16670W        W33518  11.195  12.027  17.392 -0.0846 -0.0249  0.3004
16671W        W33519   7.128  14.329   2.174  0.0785 -0.2109  0.1070
16672W        W33520  15.425   6.511  16.232  0.1029  0.0579  0.1203
16673W        W33521   3.578   0.324   6.058  0.1072 -0.0330 -0.1867
16674W        W33522  15.803   9.652   2.320 -0.1274 -0.1075  0.2956
16675W        W33523  10.087  11.557  15.673  0.0991 -0.1760  0.0756
16676W        W33524   5.665   0.225  16.859 -0.0558 -0.0938 -0.0923
16677W        W33525   3.487   4.931   2.381  0.3643  0.1759 -0.2733
16678W        W33526   2.524  10.755   2.930  0.0191 -0.0804  0.3053
16679W        W33527  11.181   4.142   4.137 -0.2224  0.1093  0.0104
16680W        W33528   3.777  11.142   4.331 -0.1839  0.2057  0.0482
16681W        W33529   0.616   3.822   2.026 -0.1386  0.0269  0.0405
16682W        W33530  13.204   3.031   4.367  0.3885 -0.1235 -0.0541
16683W        W33531  15.213   0.454   4.547 -0.1084  0.0064 -0.0089
16684W        W33532  11.586  12.803  15.924  0.2630 -0.2962 -0.0330
16685W        W33533   9.295  14.022  12.841 -0.0207 -0.2870 -0.0293
16686W        W33534   0.913  14.257  17.395  0.0316  0.2964  0.1733
16687W        W33535   0.014   3.151  15.150  0.2011  0.0870  0.0310
16688W        W33536   4.870  15.211  14.984  0.0974  0.0305 -0.1535
16689W        W33537   6.601   8.863   5.056  0.1749  0.2922 -0.3140
16690W        W33538   6.185   2.967  16.564  0.0677  0.1108 -0.2646
16691W        W33539  10.178  15.418   0.721 -0.0599 -0.0467 -0.0166
16692W        W33540   3.469   9.128  17.210  0.0696 -0.1868 -0.3039
16693W        W33541   4.110  12.560   2.469 -0.1587 -0.0214  0.0389
16694W        W33542   5.563   6.564   3.229 -0.0562 -0.0275 -0.1431
16695W        W33543   5.094   7.843   5.123 -0.3619  0.1771 -0.1158
16696W        W33544   1.505   6.137   1.059 -0.0892 -0.2219 -0.1228
16697W        W33545  14.858  16.794   1.053 -0.2241  0.0369  0.2231
16698W        W33546  12.346   7.810  17.011  0.0539  0.0773 -0.0945
16699W        W33547   0.881  11.278  16.720 -0.0216  0.1600  0.1735
16700W        W33548  10.715   0.514  16.306  0.2739  0.1821  0.1055
16701W        W33549  11.889  16.806  14.529 -0.0475  0.0262 -0.2019
16702W        W33550  11.076  12.510   5.180 -0.2798  0.4273 -0.4228
16703W        W33551   5.754   7.763  17.668  0.1502  0.3137  0.2462
16704W        W33552  12.782  10.705   2.750  0.0969 -0.2236 -0.0110
16705W        W33553  12.540  13.064  12.407  0.1325 -0.0445 -0.2832
16706W        W33554  11.880   9.060  17.467 -0.3583 -0.0525  0.1568
16707W        W33555   4.649   3.519  13.406 -0.0261 -0.0630  0.1984
16708W        W33556  10.944  11.823  14.815 -0.2117 -0.0962 -0.3452
16709W        W33557   2.314  12.901   0.242  0.0300  0.1422  0.0267
16710W        W33558   9.793   3.961   1.254  0.2906  0.4121  0.2389
16711W        W33559   5.821   3.999   2.055  0.1971 -0.0810  0.0444
16712W        W33560   5.237   0.292  14.445  0.0407  0.1323  0.0415
16713W        W33561   1.037  11.406   2.881  0.4407 -0.2299 -0.1374
16714W        W33562   9.183  15.340   5.184 -0.2207  0.0114 -0.1140
16715W        W33563  14.387  16.603  17.227  0.2332  0.1534 -0.1462
16716W        W33564  10.545  13.466  14.734 -0.2795 -0.1497 -0.0709
16717W        W33565  13.877  16.312  14.245  0.2932  0.4140 -0.1446
16718W        W33566   4.410   7.794   5.911  0.1761 -0.0407  0.1293
16719W        W33567   5.389  14.051   2.033 -0.4036 -0.2037 -0.2985
16720W        W33568   2.292   3.276  12.544 -0.2424  0.0737  0.5650
16721W        W33569  13.943   0.865  11.695 -0.2548 -0.1274  0.0831
16722W        W33570   5.100   8.154  15.521  0.1438  0.0388 -0.0546
16723W        W33571  15.091   6.921   1.871 -0.0445 -0.3117  0.1155
16724W        W33572   6.376  10.497   3.912  0.0835  0.0316 -0.2287
16725W        W33573   2.952   8.416  16.010 -0.0245 -0.3392  0.0273
16726W        W33574   6.622  14.132  15.660  0.1589 -0.2140 -0.1763
16727W        W33575  12.224  10.911  12.262  0.1470  0.0529 -0.1055
16728W        W33576  14.555  16.562   5.502 -0.0633  0.1593 -0.1072
16729W        W33577   7.594   0.632  15.373  0.0290  0.1146  0.2712
16730W        W33578  13.594   4.935  16.349 -0.0581  0.1717  0.2310
16731W        W33579   5.348  10.675   2.097 -0.1332 -0.0783 -0.0867
16732W        W33580   3.718  10.060  13.606 -0.2023 -0.0801 -0.0735
16733W        W33581   4.167  15.132   1.492  0.1829 -0.4766 -0.0339
16734W        W33582  14.089  16.761  14.129  0.0129 -0.1739  0.0634
16735W        W33583   9.545   8.774   1.795  0.4483 -0.1993  0.3223
16736W        W33584   1.583   3.317   4.172  0.2779 -0.0560  0.0423
16737W        W33585   1.640  16.257  17.164  0.2371 -0.1850  0.2912
16738W        W33586   4.963  14.804  12.977  0.0921  0.2488  0.2042
16739W        W33587  15.659   2.226  13.366  0.1002  0.0116  0.1887
16740W        W33588  12.448  12.276  17.735  0.3693  0.2907 -0.0026
16741W        W33589   5.182  12.905  17.608 -0.1558 -0.3081 -0.2229
16742W        W33590   1.368   1.814  16.871 -0.0834 -0.0860 -0.0952
16743W        W33591   6.391   0.458  15.480  0.1380 -0.3096 -0.2162
16744W        W33592   0.865   8.568  13.365 -0.1859 -0.0640  0.0518
16745W        W33593   8.458   9.746  12.844  0.4265 -0.0884  0.0363
16746W        W33594   7.487  13.748   2.906  0.3959  0.3782 -0.0433
16747W        W33595   1.407   2.805   4.952  0.2262 -0.0894 -0.1487
16748W        W33596   1.581   5.355   2.134  0.3326 -0.0672 -0.1966
16749W        W33597   9.261  11.966   3.878  0.0885 -0.2660 -0.1792
16750W        W33598  14.964  15.326  14.627  0.1967 -0.1397 -0.2301
16751W        W33599  12.039   7.192   1.054 -0.0967 -0.1201  0.0032
16752W        W33600  15.340  11.611   2.533  0.0076 -0.0216  0.1273
16753W        W33601  14.456  11.885  15.879  0.0638  0.1933 -0.1263
16754W        W33602  11.193   2.243  17.699  0.1757  0.2506  0.0933
16755W        W33603   0.657  11.065   0.383  0.0474 -0.1533 -0.2812
16756W        W33604   0.821   4.848  16.540  0.2920  0.1468  0.1107
16757W        W33605  16.444  10.164   5.603 -0.2329 -0.2930  0.1686
16758W        W33606  10.362  10.338  13.607  0.2680  0.0829 -0.4291
16759W        W33607  16.164   9.603  17.430  0.2413  0.3599 -0.1290
16760W        W33608  15.467  12.285  13.814 -0.0351 -0.0916 -0.0606
16761W        W33609   5.617   5.141   4.848  0.5050 -0.0979 -0.0006
16762W        W33610   1.465  10.924  13.431  0.1488  0.0579  0.0731
16763W        W33611  12.664   2.085  12.537  0.0651 -0.0368 -0.0846
16764W        W33612   0.153   4.827   5.112 -0.1271 -0.2542  0.0947
16765W        W33613  13.531  16.299  17.686  0.1348  0.1521 -0.1739
16766W        W33614  11.866  12.830  12.919  0.4295  0.2405 -0.1816
16767W        W33615   8.174  13.455  12.215  0.0563 -0.0272 -0.2116
16768W        W33616   2.760  14.549   6.459  0.1296  0.4644  0.0062
16769W        W33617   6.424   7.701  15.045 -0.2928  0.0322  0.3343
16770W        W33618  13.818   4.993   3.473 -0.1574 -0.1197 -0.1537
16771W        W33619   3.274  12.000   1.425  0.0073 -0.4472 -0.0688
16772W        W33620  10.441  15.709   2.130 -0.1974  0.3121  0.3264
16773W        W33621   0.642   5.635  16.226  0.1404  0.4178 -0.1519
16774W        W33622  12.004   8.560   0.272  0.2821 -0.2550  0.0968
16775W        W33623   3.185  12.069  12.681 -0.2505 -0.1562  0.1250
16776W        W33624  12.907   3.138   0.626 -0.1924 -0.3813  0.1512
16777W        W33625   7.641   4.914   1.202  0.2076 -0.2291  0.1248
16778W        W33626  13.577  12.225   2.241  0.1666 -0.3341 -0.2396
16779W        W33627  10.611  11.016   3.474  0.0893 -0.1369 -0.0418
16780W        W33628  13.857   8.335  12.522  0.1237 -0.2232 -0.1244
16781W        W33629  15.777  13.005  15.102  0.1391  0.0753 -0.0069
16782W        W33630  15.075  14.341  12.732 -0.4903 -0.3047 -0.0991
16783W        W33631  16.264   8.330  17.052 -0.0294 -0.1919 -0.1668
16784W        W33632   3.190  17.151  17.219 -0.3184  0.2606  0.1989
16785W        W33633   7.232  13.342  14.838  0.1105 -0.2316  0.1946
16786W        W33634   5.918  14.686   1.443 -0.1562  0.4035 -0.1182
16787W        W33635   4.898   8.002  15.069  0.0383 -0.0081  0.1848
16788W        W33636   4.154   0.252   2.829  0.0286 -0.2928  0.3091
16789W        W33637   8.608   2.329   2.171  0.1342  0.1008  0.1114
16790W        W33638  10.359  10.144   3.972  0.1094 -0.2087 -0.0204
16791W        W33639  14.604  14.264  12.519  0.2261  0.0900 -0.1182
16792W        W33640  11.282   3.571  11.734  0.2680  0.0907 -0.1139
16793W        W33641   4.371   0.493  15.698 -0.1280 -0.2077 -0.2956
16794W        W33642   8.438  11.268   2.167  0.2766  0.1923  0.2395
16795W        W33643   6.408  15.538   5.070  0.0999 -0.1199 -0.0301
16796W        W33644  14.360   8.526   2.006 -0.3121 -0.2576  0.0015
16797W        W33645   4.778  10.407   2.938  0.0406 -0.2086 -0.0410
16798W        W33646  13.009  13.912   4.226  0.0667  0.0796  0.0707
16799W        W33647   9.054  13.898  11.849  0.1923 -0.0502 -0.2904
16800W        W33648   3.108   9.452  12.361  0.0553 -0.2113 -0.1798
16801W        W33649  11.121  12.427   1.815 -0.1025  0.0122 -0.1634
16802W        W33650   5.764   0.197   2.518  0.2532 -0.1277  0.2791
16803W        W33651  14.417   4.062  14.484  0.2631  0.2304 -0.0079
16804W        W33652   8.374   7.057  12.520  0.0208 -0.1527  0.2657
16805W        W33653   7.024   7.167   4.802  0.0089 -0.2784  0.2535
16806W        W33654   5.941   9.009  12.857 -0.0663 -0.0666  0.2750
16807W        W33655   9.024   1.873  11.650 -0.2545  0.3737 -0.0326
16808W        W33656   0.887   0.642   2.381 -0.0968  0.1120  0.0980
16809W        W33657   3.611  17.032   6.192 -0.3568  0.1862 -0.1364
16810W        W33658  15.964   6.822   0.275 -0.0034  0.0536 -0.0990
16811W        W33659  11.020  14.831  13.124 -0.0665  0.1632 -0.3608
16812W        W33660  12.784   1.268   3.124  0.0717 -0.1127 -0.0877
16813W        W33661  14.889  12.962   5.050  0.0640 -0.0511 -0.1798
16814W        W33662   9.678   4.763  13.812 -0.0184 -0.1732  0.0536
16815W        W33663   0.467   5.961   2.269  0.0147  0.1805  0.0034
16816W        W33664   9.574   5.651   1.108 -0.0046  0.0097 -0.0898
16817W        W33665   5.178  12.269   6.731  0.3028  0.0148  0.1962
16818W        W33666   0.665   9.433  17.541 -0.0681 -0.0891  0.0757
16819W        W33667   8.396   0.081   0.402  0.0216  0.0832  0.1327
16820W        W33668   8.807   2.303   5.340 -0.0926 -0.1052  0.2713
16821W        W33669  12.269   0.494   1.802 -0.2363  0.1314 -0.1742
16822W        W33670   4.591  13.878   4.045 -0.1640 -0.0725 -0.0513
16823W        W33671  11.694  10.988   4.577  0.0009  0.0338  0.2487
16824W        W33672  12.834   9.713  16.477  0.0028 -0.1862 -0.1018
16825W        W33673  14.681   8.157   5.394  0.0761 -0.0612 -0.0850
16826W        W33674   8.389  12.501  17.265 -0.0628 -0.3453 -0.2444
16827W        W33675   0.253   1.631   3.417  0.1497 -0.1515 -0.0203
16828W        W33676  13.086   6.775   1.370 -0.0869 -0.1516 -0.1006
16829W        W33677   3.317   5.493   3.706 -0.0940 -0.2126  0.0915
16830W        W33678   3.354   9.464  13.321 -0.1008 -0.2013  0.1867
16831W        W33679  11.530   0.202  15.298 -0.1149 -0.1338  0.1551
16832W        W33680   1.326   2.412   5.580  0.2235  0.0610  0.1299
16833W        W33681   5.185  14.180  13.047  0.1872 -0.1851  0.1484
16834W        W33682   7.352  16.155  11.802 -0.3327  0.2712 -0.1214
16835W        W33683   3.649   0.581   0.003 -0.2620  0.0863  0.4003
16836W        W33684  15.866   1.619  15.299  0.2102 -0.2806 -0.2071
16837W        W33685  10.322  16.880  16.645 -0.2440 -0.0255 -0.1538
16838W        W33686  13.485   3.259   1.193  0.2625  0.2387  0.0508
16839W        W33687  12.415   4.729   3.172  0.3818 -0.0077  0.2873
16840W        W33688   5.339   0.301  11.162 -0.0102 -0.2891 -0.0675
16841W        W33689   2.816  15.278  15.117 -0.1921 -0.3209  0.0210
16842W        W33690   5.954  11.986   4.181  0.0878  0.0925 -0.0219
16843W        W33691   3.602   6.444  17.118  0.0651 -0.3754  0.2592
16844W        W33692   0.295   0.116   6.038  0.0189 -0.1052 -0.0250
16845W        W33693   7.071   3.018   3.581  0.0794 -0.1311 -0.0558
16846W        W33694  14.387  10.156  15.937 -0.0615 -0.1283  0.3252
16847W        W33695  12.053  16.193   0.810 -0.1411 -0.1184  0.1334
16848W        W33696   9.050  14.495   4.048  0.1846 -0.2309 -0.1981
16849W        W33697  11.278  15.216   4.491 -0.0920  0.0565  0.0437
16850W        W33698   2.589  11.612  16.733  0.0511  0.0115 -0.4199
16851W        W33699   4.548   5.653   5.693  0.0073 -0.3387 -0.3045
16852W        W33700   5.301  13.082  12.314  0.0274  0.1022 -0.1047
16853W        W33701  14.448   2.223  14.953  0.0105  0.0249  0.0248
16854W        W33702   4.162  14.837   1.907 -0.0209 -0.0737 -0.0429
16855W        W33703  11.419  15.227   1.347  0.1395  0.2935 -0.0222
16856W        W33704  17.007  17.133   5.784 -0.1696 -0.0660 -0.1686
16857W        W33705  10.420   3.444   0.076  0.0541  0.2043 -0.3434
16858W        W33706   9.180   0.622  12.927 -0.1562  0.0287  0.1813
16859W        W33707   8.830   1.032   2.493  0.0491 -0.0646  0.3135
16860W        W33708   6.170  14.265  13.630  0.0927  0.2523  0.2006
16861W        W33709   8.862   7.691  11.915  0.2035  0.0108  0.1552
16862W        W33710  16.852  13.596   3.559  0.2088  0.1125  0.3634
16863W        W33711  11.385  13.937  13.820 -0.0677  0.3895  0.0779
16864W        W33712   2.949  15.222  15.894 -0.1131 -0.1862 -0.0293
16865W        W33713   4.007   2.279   7.083  0.1085  0.1605 -0.1948
16866W        W33714  11.565  13.530  13.627 -0.2206  0.1304 -0.0228
16867W        W33715   8.639   4.012  13.349  0.1893 -0.0377  0.1072
16868W        W33716   0.851   0.366   2.836 -0.1799  0.1368 -0.1016
16869W        W33717  15.414   2.520  16.911  0.2599 -0.0904 -0.0203
16870W        W33718  15.908   1.717   2.351 -0.0624 -0.1964 -0.2687
16871W        W33719  10.519   3.638   3.912 -0.1167  0.1078  0.0143
16872W        W33720   0.362  10.578  16.918  0.0562 -0.0504 -0.1846
16873W        W33721  14.507  12.974  10.789  0.0103  0.0523 -0.2095
16874W        W33722   2.132   0.880   5.023 -0.1022 -0.1815 -0.1973
16875W        W33723  11.382   2.214   5.152  0.0467  0.1622  0.1299
16876W        W33724   9.192  10.653  14.624  0.3295  0.0526 -0.0633
16877W        W33725   0.851  15.123  14.059 -0.0509 -0.0073 -0.2394
16878W        W33726   5.479   3.703  17.139  0.0101 -0.0287  0.0280
16879W        W33727  16.656   5.564   0.091  0.0765 -0.0527 -0.0476
16880W        W33728   4.124   5.732  15.638 -0.0995 -0.1102 -0.1022
16881W        W33729  15.147   3.438   3.973 -0.2366 -0.0277 -0.1404
16882W        W33730  15.029  15.051  11.842  0.0047  0.2496 -0.0395
16883W        W33731  12.792  16.505  12.338 -0.2151 -0.0450 -0.1171
16884W        W33732  15.257   8.391  17.478  0.0921  0.0101 -0.0838
16885W        W33733   3.052   2.038   5.349 -0.2165 -0.0632  0.0810
16886W        W33734   1.684  15.791  16.049  0.1917  0.0595  0.2629
16887W        W33735   1.555   9.747   1.984  0.1128 -0.0234  0.0734
16888W        W33736   0.690  10.662  15.195 -0.3682 -0.0803 -0.1399
16889W        W33737  15.090  14.707  12.381 -0.0586 -0.2285  0.1172
16890W        W33738   2.264   9.877   5.417 -0.3253  0.0538 -0.1407
16891W        W33739   3.134   2.410  16.540 -0.2771 -0.3101 -0.3628
16892W        W33740  15.669   9.126  15.452  0.0750 -0.0631  0.1536
16893W        W33741  11.247  11.166  15.693 -0.2990  0.0186 -0.1201
16894W        W33742   3.095  14.973   0.968 -0.0305  0.1788  0.0746
16895W        W33743   0.198   9.302  17.569  0.3908 -0.2807 -0.0750
16896W        W33744   6.752   8.018  16.576 -0.2217 -0.1468 -0.0695
16897W        W33745  16.421   2.269   1.204  0.3601  0.1606 -0.1784
16898W        W33746  12.424  13.651   1.247 -0.1263 -0.1246 -0.0261
16899W        W33747  11.390   4.520  11.529  0.2160  0.0208 -0.2254
16900W        W33748   8.831  15.194   1.782  0.3433 -0.3402 -0.1140
16901W        W33749  16.660  16.792   5.184  0.1500 -0.0503 -0.3050
16902W        W33750   0.268   7.355  15.031 -0.3453 -0.3005  0.1048
16903W        W33751   8.185   6.359   6.126  0.1121 -0.0796 -0.3238
16904W        W33752  14.222   8.512  15.802  0.2618 -0.1690 -0.2606
16905W        W33753  15.725   1.951   3.464  0.1328 -0.0474 -0.3247
16906W        W33754   7.851   4.308  15.080 -0.2964  0.2161  0.1291
16907W        W33755  16.372  12.520  13.262 -0.0042 -0.1469  0.0384
16908W        W33756   7.399   2.599  16.967 -0.1654  0.1173  0.0511
16909W        W33757  16.191   6.671  17.516 -0.1824 -0.0480  0.3739
16910W        W33758   3.419   6.700   5.162 -0.2657  0.0263 -0.0711
16911W        W33759  11.655   7.112  14.519 -0.3291  0.0352  0.1487
16912W        W33760   9.792   3.144   1.336 -0.0989  0.1039  0.2189
16913W        W33761   9.500  15.294  14.255 -0.0643  0.2275 -0.0106
16914W        W33762   0.305   2.417   5.322 -0.2910  0.2841 -0.1402
16915W        W33763   9.503  11.817  13.461  0.1966 -0.0845  0.2786
16916W        W33764   9.925  15.366   4.252  0.0680 -0.2469  0.0587
16917W        W33765   4.758  11.816  12.926  0.0439 -0.0074 -0.0339
16918W        W33766   2.659   3.238   1.409  0.1134  0.2329 -0.1121
16919W        W33767  14.877  11.871   2.504  0.0563  0.1634 -0.1312
16920W        W33768   5.973  17.126   5.622  0.0409  0.1783 -0.1458
16921W        W33769  13.829  14.446   0.456  0.0685 -0.1132 -0.1164
16922W        W33770  17.033  12.296  15.399 -0.1034 -0.4339 -0.0104
16923W        W33771  11.226  15.740  17.228  0.0441 -0.0670 -0.2094
16924W        W33772   6.094  15.420  13.998  0.0925 -0.1051 -0.1014
16925W        W33773   6.319   5.561   4.966  0.0826  0.0723 -0.1244
16926W        W33774  14.174  12.300  15.826 -0.1605  0.0313 -0.1721
16927W        W33775  14.635  13.296  12.272  0.3023  0.0870 -0.4704
16928W        W33776  17.004  13.537   2.242  0.2164 -0.0527  0.2749
16929W        W33777  15.919   0.799  13.194  0.2209  0.1785  0.0804
16930W        W33778  14.423  16.300   3.723 -0.0428  0.0959 -0.3460
16931W        W33779   2.061   0.882  12.785  0.0252 -0.0685 -0.1124
16932W        W33780   1.985   9.727   4.800 -0.2002  0.0957  0.0233
16933W        W33781   0.550   9.627  17.051  0.1778  0.1695 -0.0930
16934W        W33782   5.045   9.789  13.902 -0.2725  0.3349  0.0230
16935W        W33783   8.323   8.991  16.562 -0.1706  0.1702 -0.1351
16936W        W33784   4.191   2.091  16.607 -0.2500 -0.1921 -0.0914
16937W        W33785   0.213  12.492   6.280  0.2588  0.0911  0.0391
16938W        W33786   8.407   5.945  13.073  0.1307  0.4103 -0.0977
16939W        W33787  10.607   9.093  16.302 -0.0799 -0.1915  0.0424
16940W        W33788  10.850  11.430  12.564  0.1646  0.0785  0.2593
16941W        W33789   4.503   2.656   1.097  0.5319 -0.1558  0.1316
16942W        W33790  13.426  10.608  16.692  0.2356 -0.0650 -0.1457
16943W        W33791   3.414   7.519   3.317  0.4006  0.1284  0.0369
16944W        W33792   5.937   8.816   3.931  0.1543  0.1371 -0.0644
16945W        W33793   9.469   2.961  17.638 -0.1519 -0.0605  0.0243
16946W        W33794  15.999  15.403  13.183  0.1871 -0.0942 -0.1974
16947W        W33795  11.378   8.350   0.095  0.2044 -0.1683 -0.0324
16948W        W33796   9.466  14.529   3.586 -0.0408 -0.1279 -0.1777
16949W        W33797  11.693   9.596   2.178  0.2543  0.1620 -0.0433
16950W        W33798   4.210   2.418   0.314 -0.0169 -0.3357 -0.0633
16951W        W33799   8.690   7.829   2.777 -0.2096 -0.1329 -0.0873
16952W        W33800  16.022   7.827   5.584 -0.0489 -0.0386  0.1114
16953W        W33801   3.461  13.829  14.977 -0.0274 -0.2556  0.0800
16954W        W33802   5.686  16.777  14.032 -0.2037  0.0968  0.2582
16955W        W33803   9.850  15.513  17.520  0.1393 -0.0212  0.0427
16956W        W33804   9.587  13.678   0.120 -0.0721 -0.1976 -0.0545
16957W        W33805   4.469  16.214   3.311 -0.1435  0.0717 -0.0494
16958W        W33806  15.980  13.272  13.065  0.1762  0.3313  0.0446
16959W        W33807   7.158   6.732   1.688  0.0937 -0.0181 -0.0239
16960W        W33808  12.303   3.738   0.344 -0.0509  0.0783  0.1849
16961W        W33809   3.466  17.163  12.735 -0.3590 -0.1140  0.1472
16962W        W33810   6.504   6.851  15.184  0.0162  0.2587  0.1659
16963W        W33811  16.263  10.234   6.184  0.2750 -0.2276  0.0524
16964W        W33812   1.303   9.772  15.689 -0.4479 -0.1073 -0.0718
16965W        W33813  10.389  10.868   1.615  0.0548 -0.0086 -0.1593
16966W        W33814  10.573   0.921   2.913 -0.0378 -0.2704 -0.3078
16967W        W33815   4.440   4.844   3.262  0.0122  0.2723  0.0317
16968W        W33816  16.628   0.572   3.040 -0.1720  0.1256 -0.0978
16969W        W33817   1.956   7.338  15.106  0.1505 -0.0745 -0.2968
16970W        W33818  17.113  14.465   2.369 -0.0059  0.2000  0.0556
16971W        W33819  14.313  16.311   5.044  0.1012  0.0542 -0.0137
16972W        W33820  13.401   8.499   1.419  0.1355 -0.1635 -0.0284
16973W        W33821   8.597  11.330   6.350  0.3960  0.0656  0.4257
16974W        W33822   9.151  13.464  13.231  0.0071 -0.0672  0.1916
16975W        W33823  10.621   1.132  12.587 -0.1779 -0.1699 -0.3549
16976W        W33824   6.964   0.120   3.998 -0.4235  0.1849  0.0880
16977W        W33825  14.857  11.794  11.611 -0.0248  0.1241  0.0437
16978W        W33826   2.303   4.525  17.090  0.2255  0.0410  0.1106
16979W        W33827   1.704   5.083   2.568 -0.1715  0.2704  0.1498
16980W        W33828   7.057  13.858   0.227  0.2306 -0.4453 -0.1954
16981W        W33829   2.708  15.378  12.928  0.0279  0.1088  0.1471
16982W        W33830  15.610   3.617   1.920 -0.1264  0.0961  0.0748
16983W        W33831   2.367  10.624   0.993 -0.3379 -0.1549  0.1298
16984W        W33832  15.826  12.081   2.053 -0.3002 -0.1237  0.0599
16985W        W33833  12.483  15.982  13.055 -0.1260  0.0885 -0.1436
16986W        W33834   2.405   4.207  14.749  0.1714 -0.0957  0.0356
16987W        W33835  12.723  10.021   4.602  0.0902 -0.2831 -0.2590
16988W        W33836   9.477   1.621   3.715  0.0077  0.2385 -0.2480
16989W        W33837  16.041   2.989  13.578 -0.0182 -0.2605 -0.2754
16990W        W33838   3.689   5.842  15.955  0.4568 -0.0973 -0.1601
16991W        W33839  16.714   9.207   4.609 -0.0849  0.0878  0.0004
16992W        W33840  10.656  14.290   3.825  0.2205  0.4201 -0.1204
16993W        W33841  14.800  10.319   5.738  0.1754 -0.2489 -0.0237
16994W        W33842  10.073   2.730   1.550 -0.0161 -0.0319  0.0832
16995W        W33843   9.614  14.433  17.620 -0.0112  0.0210 -0.2306
16996W        W33844   9.744  14.150   0.214 -0.0022 -0.0734  0.3474
16997W        W33845   6.748  16.036   4.240 -0.0481 -0.0472 -0.2213
16998W        W33846  12.954   5.325  16.997 -0.2394  0.0131  0.0754
16999W        W33847   5.327  17.126   3.365 -0.0069  0.0212 -0.0328
17000W        W33848   1.393   0.785   1.427 -0.0163  0.0259 -0.0572
17001W        W33849  14.905  12.675  14.329 -0.2708  0.1155  0.4358
17002W        W33850   2.390   5.603   2.826  0.0994 -0.0666 -0.4483
17003W        W33851   3.821   2.430  15.730  0.0237 -0.2463  0.0648
17004W        W33852   8.124  15.098  17.185 -0.0256 -0.1313  0.1525
17005W        W33853  14.224   0.939  12.614 -0.0447 -0.1649 -0.1272
17006W        W33854   4.032   6.992   0.965 -0.0690 -0.0038 -0.2475
17007W        W33855   2.432  17.163   2.180  0.1126  0.0480 -0.0148
17008W        W33856   0.636   3.894  12.188 -0.0325  0.3833 -0.0749
17009W        W33857   1.480  12.365  16.817 -0.0688 -0.0219 -0.2909
17010W        W33858   7.569   6.273   2.376 -0.1580  0.1957 -0.3002
17011W        W33859   2.178   0.388   3.759 -0.1529  0.2480 -0.2559
17012W        W33860  14.418  14.664  14.601 -0.3024 -0.0314  0.0014
17013W        W33861  13.865   8.062   0.812  0.1155 -0.1590  0.1416
17014W        W33862  15.210  11.432  11.960 -0.0210  0.1804 -0.1286
17015W        W33863   9.125   4.233  17.124 -0.1129 -0.1257 -0.0890
17016W        W33864  11.464  10.114  14.406 -0.0768  0.1537  0.1477
17017W        W33865   3.984  12.879   2.858 -0.1628 -0.2316  0.0187
17018W        W33866   8.025  14.199  14.251  0.1379  0.0335  0.1411
17019W        W33867   8.165   5.483  16.990 -0.3767 -0.2436  0.1593
17020W        W33868   4.587   4.757  17.177 -0.1365 -0.2881 -0.0862
17021W        W33869  11.475   1.277  17.219  0.1327 -0.2833  0.5125
17022W        W33870   2.203   4.467   1.470 -0.3488  0.1440 -0.1570
17023W        W33871   2.664   7.441  17.681  0.2456 -0.0689 -0.0934
17024W        W33872  14.514  13.118   5.544 -0.1256  0.0930 -0.0199
17025W        W33873   4.192   0.015   0.585 -0.0081 -0.3294  0.2495
17026W        W33874   9.291   1.899   1.040 -0.0036 -0.0975  0.3525
17027W        W33875   0.310  15.833   5.472 -0.0926  0.0296 -0.3240
17028W        W33876  10.202   4.775   0.057 -0.1900  0.0916  0.3026
17029W        W33877   5.865  14.404  12.632 -0.1520  0.2655 -0.1607
17030W        W33878   2.916   2.897   2.072 -0.0550 -0.0201 -0.0017
17031W        W33879   1.934  15.844  16.963 -0.1319  0.0130 -0.0397
17032W        W33880  14.431   4.680  13.555 -0.1906 -0.1066  0.1004
17033W        W33881   6.303  11.666  14.197  0.0104  0.0658  0.0213
17034W        W33882   5.540   3.533  16.675  0.3747  0.2528  0.2586
17035W        W33883   0.867   6.601   1.554  0.1541 -0.0893 -0.0679
17036W        W33884   3.832   1.282   0.456  0.0345 -0.1523 -0.0867
17037W        W33885  13.945   9.643  14.202  0.3322 -0.0270  0.2030
17038W        W33886   3.705   8.061   5.344 -0.1262  0.2502 -0.1098
17039W        W33887  15.410   0.833   0.946  0.1802  0.2654 -0.1022
17040W        W33888   6.759  17.064  13.257  0.1597 -0.1535  0.2972
17041W        W33889   7.414  12.886   0.264 -0.1385 -0.0165  0.1562
17042W        W33890  10.737  14.979  14.767  0.0792  0.1795 -0.3349
17043W        W33891  11.510   2.624   3.962  0.0880  0.1571  0.1318
17044W        W33892   8.730   8.532  17.492  0.0872 -0.3062  0.1512
17045W        W33893  14.685  13.449   3.031 -0.0530 -0.1199  0.0473
17046W        W33894  16.482   2.478  12.048  0.0372  0.1650 -0.0697
17047W        W33895   9.619  13.051   4.714  0.0359 -0.0999 -0.1487
17048W        W33896  16.391   4.541  12.718 -0.1344  0.3515  0.0398
17049W        W33897  15.178  14.538   6.501  0.0190 -0.0061 -0.0565
17050W        W33898  14.257  14.507   0.781 -0.0258  0.0253  0.0938
17051W        W33899   8.264   9.257   1.160  0.0485 -0.2130  0.1083
17052W        W33900  12.530   4.645  16.485 -0.3035 -0.0435  0.3290
17053W        W33901   5.224  11.186   4.751 -0.4378 -0.0698  0.1621
17054W        W33902  14.352  13.628   6.436 -0.2116  0.1407  0.1035
17055W        W33903   0.007  17.066  16.421  0.1446 -0.3406 -0.1688
17056W        W33904  16.773  14.326  12.774 -0.1883  0.0778  0.1187
17057W        W33905   0.823   7.072   1.421  0.1046  0.0547  0.2399
17058W        W33906  11.185   4.740   0.455  0.0028  0.0616 -0.0173
17059W        W33907  12.177  13.810   1.683  0.1936  0.2022  0.3997
17060W        W33908   6.293   5.410  11.958 -0.0650 -0.0765  0.1609
17061W        W33909   7.884  11.125  14.108 -0.2820  0.0208  0.0126
17062W        W33910  15.938  10.311  16.059  0.4720 -0.0489 -0.1554
17063W        W33911  10.297  16.938   1.996 -0.3084  0.3991 -0.0222
17064W        W33912  11.056   9.086   1.143  0.0179  0.1529 -0.1390
17065W        W33913  15.181   3.991   1.457 -0.2673 -0.1406 -0.1071
17066W        W33914  10.590   0.154  16.741 -0.3476  0.0872 -0.0589
17067W        W33915   0.297   6.375   1.027  0.0799  0.3098 -0.1668
17068W        W33916  13.172   0.126  17.332 -0.0576  0.2703 -0.2643
17069W        W33917  16.346   2.649   1.499  0.0138 -0.2304 -0.0081
17070W        W33918   6.687   7.272   4.253  0.4032 -0.0688  0.0958
17071W        W33919  14.466   0.786  14.616 -0.2822  0.2727 -0.2599
17072W        W33920  12.137   0.329   3.967 -0.1880  0.0161 -0.3483
17073W        W33921  14.276   9.232  17.706 -0.0606  0.0460 -0.1088
17074W        W33922   1.467  13.756   6.464  0.1175  0.1424  0.0968
17075W        W33923  11.205  12.284  12.981 -0.0136 -0.1625 -0.1803
17076W        W33924   2.025   8.778  17.342 -0.0867 -0.1443 -0.4099
17077W        W33925   5.532   8.904  15.423  0.2338  0.2447  0.0099
17078W        W33926  12.927  10.027  14.901 -0.0298 -0.2420  0.1174
17079W        W33927  11.740   5.486  16.139  0.2380  0.1198 -0.1798
17080W        W33928   1.071  10.878   3.702 -0.2168  0.0020 -0.0397
17081W        W33929  10.595  13.401   4.433 -0.0044  0.1957 -0.0712
17082W        W33930  11.235  10.462   5.111 -0.0150  0.0501  0.0940
17083W        W33931   1.046   2.341  15.614  0.1636 -0.2642 -0.0855
17084W        W33932  15.757   3.878   4.726 -0.1743 -0.0316  0.2040
17085W        W33933   2.123   7.768  13.099 -0.0277 -0.0483  0.2467
17086W        W33934  10.198   9.037   0.547  0.2079 -0.0380 -0.2060
17087W        W33935   3.717  15.833  17.418 -0.1454 -0.2308  0.0167
17088W        W33936   7.661   5.128   2.948  0.1846 -0.2213 -0.0716
17089W        W33937  12.813   4.431   4.061 -0.1017  0.0187 -0.1332
17090W        W33938   0.102  10.817   3.929 -0.2369  0.1495  0.1006
17091W        W33939  10.316   7.937  12.290  0.1807 -0.1393  0.1553
17092W        W33940   1.678  15.959   1.929 -0.2670 -0.0462  0.2685
17093W        W33941  13.261   6.819   1.852  0.2043  0.0282 -0.0413
17094W        W33942  15.413   9.502   0.378 -0.0033 -0.1863 -0.0633
17095W        W33943   3.617   4.752  17.745 -0.0207  0.1031 -0.4087
17096W        W33944   3.723   9.050  12.635  0.0266  0.0970  0.0866
17097W        W33945   0.308   4.281  14.009  0.1637  0.0045 -0.2343
17098W        W33946   3.610   9.542  12.376 -0.1166  0.4112 -0.2065
17099W        W33947  15.180  12.235   3.746 -0.2632  0.1089 -0.2378
17100W        W33948   3.515  13.042   5.117 -0.2838 -0.1236  0.1437
17101W        W33949   6.048   2.848   0.790  0.4293  0.2785 -0.0840
17102W        W33950   0.490  16.258  12.435  0.0572 -0.1795  0.1612
17103W        W33951   5.622   2.035   3.346  0.0126 -0.0877  0.1193
17104W        W33952  12.467   0.771   5.251 -0.1012  0.1954 -0.2868
17105W        W33953   7.245   0.998  12.961  0.2457 -0.1275 -0.1263
17106W        W33954   7.985   3.928  13.646 -0.0546  0.0671 -0.4331
17107W        W33955   1.534   7.135  14.970  0.0705  0.1348 -0.1604
17108W        W33956   1.821  10.819   5.685  0.0646  0.3349 -0.0700
17109W        W33957   1.128   4.334   5.768 -0.1621 -0.0783 -0.2065
17110W        W33958  15.938   7.218   1.372 -0.1776 -0.0926  0.1247
17111W        W33959  11.074   0.742   2.770  0.0857  0.2208  0.0876
17112W        W33960  12.940  16.807  15.957  0.1039  0.0819  0.0781
17113W        W33961   5.811   8.996  12.332 -0.1557 -0.0816  0.1010
17114W        W33962   1.839   0.280   4.572 -0.0076 -0.2251  0.1786
17115W        W33963   5.787  11.931   2.842 -0.0976  0.3831  0.0511
17116W        W33964   1.766   3.011  16.353  0.0934 -0.1054 -0.0462
17117W        W33965  11.538  14.576   3.695 -0.0824  0.2075 -0.1510
17118W        W33966   4.766   0.005  16.437  0.0938 -0.1297  0.2530
17119W        W33967   9.019   9.597   1.591 -0.2091 -0.1283  0.2426
17120W        W33968   3.155   0.590   5.007 -0.1761 -0.1111 -0.2063
17121W        W33969  10.445   4.795  12.504  0.2117 -0.0755  0.1358
17122W        W33970   0.283  10.764  16.389  0.0791  0.2896 -0.1675
17123W        W33971   2.545  13.323  15.529  0.0136  0.0414  0.1423
17124W        W33972  10.292   1.701   1.740  0.0978  0.2804 -0.1847
17125W        W33973  15.593  11.561  13.925  0.1265 -0.0556 -0.0766
17126W        W33974   0.601  12.977   2.579 -0.0288 -0.0958 -0.0485
17127W        W33975  12.158   5.300  12.618 -0.0368 -0.2541  0.2717
17128W        W33976   1.186  14.325   4.435 -0.1491 -0.0604 -0.2642
17129W        W33977   3.912   4.520  16.037  0.3080 -0.0008 -0.0683
17130W        W33978   4.603   2.182  14.595  0.4588 -0.0196  0.2695
17131W        W33979  10.536  10.876  13.598 -0.3061  0.1076  0.0544
17132W        W33980   8.126   7.574   3.258 -0.0889  0.2462 -0.2063
17133W        W33981  12.471   7.201   2.854 -0.0203 -0.1385  0.0419
17134W        W33982  13.881   5.403   3.168 -0.0657 -0.1506 -0.0941
17135W        W33983  13.806  13.546   5.158 -0.2673 -0.2830 -0.1899
17136W        W33984  11.338   7.184  12.014 -0.0463 -0.0947 -0.1983
17137W        W33985   3.006  14.952  17.287  0.0358 -0.0284 -0.1550
17138W        W33986   5.584  14.362   1.048 -0.0055 -0.0671  0.0028
17139W        W33987  14.945   3.069  17.583 -0.1078 -0.1457 -0.0214
17140W        W33988   1.339   1.143  14.290  0.1982 -0.0376 -0.0228
17141W        W33989   5.697  12.754  12.598  0.2034  0.1350  0.2882
17142W        W33990   1.801   3.165   4.654 -0.2034  0.0271  0.0234
17143W        W33991   8.201  11.696  15.510 -0.2722  0.0609 -0.2369
17144W        W33992  12.702   9.529  14.788  0.0408  0.2062  0.1471
17145W        W33993   4.386   2.927   0.255  0.1454 -0.0579  0.1204
17146W        W33994   5.242   9.953  15.745 -0.0047 -0.1705 -0.0750
17147W        W33995   5.782  17.132  17.278  0.4330 -0.1705  0.0512
17148W        W33996   1.818   1.132  15.067  0.0032 -0.1751  0.0012
17149W        W33997   2.862  13.231   1.269 -0.0140 -0.3017  0.2854
17150W        W33998   7.701   6.317   4.645 -0.0539 -0.0397  0.0282
17151W        W33999   0.402   8.379  17.412 -0.0909 -0.3733  0.0595
17152W        W34000   0.734  14.498  16.687 -0.1152 -0.1458  0.2987
17153W        W34001  14.105   1.747   1.811 -0.0002  0.2181  0.1047
17154W        W34002  11.973  11.294  11.619 -0.3590 -0.1010  0.0941
17155W        W34003  15.697   1.702   0.486  0.0675 -0.2227 -0.1935
17156W        W34004   5.023   6.087  14.155  0.0532  0.0840  0.0480
17157W        W34005   8.127  15.957  14.984 -0.0087  0.1267 -0.0613
17158W        W34006   3.840  14.558   4.611  0.1425 -0.2767 -0.4971
17159W        W34007   4.410  15.024  16.197  0.2686  0.0172  0.2572
17160W        W34008   4.330   9.085  17.665 -0.0981  0.0787 -0.1498
17161W        W34009  12.666   3.428   0.162 -0.0172  0.2349 -0.0592
17162W        W34010   1.194   7.198   3.467 -0.3540 -0.5949 -0.4317
17163W        W34011   1.474  16.472   5.473 -0.0873  0.0057 -0.0555
17164W        W34012  13.042  13.952   5.594 -0.3349  0.0917  0.3394
17165W        W34013   9.135   3.434   2.855  0.0026  0.1211  0.1784
17166W        W34014   3.818  11.408  17.275  0.2518  0.3010 -0.1012
17167W        W34015  10.885   6.576  11.393  0.0534 -0.2421  0.3268
17168W        W34016  10.056   1.534  14.293 -0.0202  0.0775 -0.1739
17169W        W34017   3.336   5.503  14.196  0.0770  0.1032  0.1475
17170W        W34018   3.155  14.777   4.409  0.0634 -0.0774 -0.1820
17171W        W34019   1.522   9.373   4.966  0.1105  0.2862  0.0375
17172W        W34020   3.238   4.770  12.167 -0.0549 -0.3911 -0.1320
17173W        W34021   0.351   4.727  17.332  0.0407  0.1225 -0.0756
17174W        W34022  11.439   5.867   2.198 -0.1717 -0.0306  0.3501
17175W        W34023   1.336  12.962   4.148 -0.0609 -0.2707  0.2162
17176W        W34024   0.756  11.589   4.141 -0.1143  0.1086 -0.2488
17177W        W34025   4.392  10.033  16.048  0.1549 -0.0605  0.0248
17178W        W34026   5.165  12.385  16.520  0.0698 -0.2262 -0.1505
17179W        W34027  16.031   2.916   3.455  0.0460 -0.0456 -0.0584
17180W        W34028   6.461   2.473  16.982  0.3079  0.3126 -0.4210
17181W        W34029  11.453  13.454  17.223  0.3674 -0.0662 -0.2497
17182W        W34030   6.071  15.391  13.505  0.1032 -0.0629  0.1624
17183W        W34031  15.900   6.559  12.138  0.0327 -0.2539  0.0081
17184W        W34032   3.729   5.490  12.957 -0.1923  0.0432  0.0207
17185W        W34033   1.921   2.814  13.983 -0.2978  0.0410 -0.3463
17186W        W34034   3.959   3.772   0.354 -0.0764 -0.1721 -0.0049
17187W        W34035  13.909   6.889   5.494 -0.3033 -0.2999 -0.0983
17188W        W34036   1.846   6.493   1.175  0.0815 -0.0749  0.0411
17189W        W34037  10.944   9.686   3.745  0.1341  0.4735  0.5464
17190W        W34038  11.203  11.409   4.617  0.1531 -0.1733 -0.2598
17191W        W34039   4.756  13.545  17.066 -0.2751  0.0348  0.1237
17192W        W34040   5.206   8.121  16.724 -0.0987 -0.3369  0.1654
17193W        W34041  12.825   9.117   4.638 -0.3130 -0.0475  0.0793
17194W        W34042  12.076  10.946   1.695  0.0658 -0.3102  0.1993
17195W        W34043  14.283  10.970   2.596  0.0362  0.2562  0.0479
17196W        W34044   0.068  12.438   4.621  0.1360  0.0360 -0.2749
17197W        W34045   5.051  14.893   1.626 -0.1130  0.1798  0.2323
17198W        W34046  10.778   7.105   0.679 -0.1078 -0.0634 -0.0866
17199W        W34047   5.145  12.355   0.338  0.0008 -0.0252  0.0750
17200W        W34048   3.090  12.539   5.056 -0.0855 -0.2099  0.0077
17201W        W34049   9.506   5.861   5.287  0.0102 -0.0703  0.0259
17202W        W34050   4.155   0.716  13.871 -0.5180  0.0005 -0.2052
17203W        W34051   2.109  15.826  16.426  0.0537 -0.2344  0.0154
17204W        W34052   6.106   0.839   3.162 -0.0241 -0.0076 -0.0388
17205W        W34053   7.152   4.694  15.676  0.0348  0.1355 -0.2868
17206W        W34054   6.294   3.642  14.509  0.4055  0.0544  0.0645
17207W        W34055  16.304  12.912   0.346  0.1994 -0.1111  0.0522
17208W        W34056   1.608   1.505   0.868 -0.0027 -0.0581 -0.0982
17209W        W34057  11.772  10.722   3.417 -0.3035  0.3804 -0.3684
17210W        W34058   3.065  13.078   4.619 -0.0562  0.0952 -0.2053
17211W        W34059   1.432  14.533  16.404  0.0739 -0.1638  0.0475
17212W        W34060   9.002  12.218   4.974 -0.0557  0.0583 -0.0222
17213W        W34061   4.510  15.045  13.227 -0.1961  0.4176 -0.0558
17214W        W34062   4.082  11.531  16.776 -0.0290  0.0768  0.0327
17215W        W34063  16.406  17.112   0.975 -0.1523 -0.1607  0.0338
17216W        W34064  11.375   0.267  17.567  0.2699 -0.0731 -0.0506
17217W        W34065  10.047   4.898   2.417  0.3895  0.3303  0.3360
17218W        W34066   1.463  12.178  14.475 -0.3639  0.0390  0.3136
17219W        W34067   0.859  14.032   1.837 -0.1042  0.0983  0.0766
17220W        W34068   3.948   8.310  17.293  0.0223  0.2115  0.0726
17221W        W34069   3.695  13.806   4.521  0.2262 -0.4941 -0.1111
17222W        W34070   1.711   8.081  14.287 -0.3676 -0.0899 -0.2624
17223W        W34071  10.482   7.623   1.548  0.1250  0.1223 -0.2594
17224W        W34072  14.506  12.572  12.137 -0.2015 -0.1775  0.0847
17225W        W34073   0.980   4.867  15.225 -0.1017 -0.0658  0.0852
17226W        W34074   9.194  11.622   4.361  0.1786  0.0275  0.2263
17227W        W34075  14.692  13.894   5.108 -0.0486  0.0948  0.2987
17228W        W34076   6.884  14.469  14.254 -0.0290  0.1403  0.0844
17229W        W34077  15.214  14.681   0.640  0.0879 -0.0578  0.0719
17230W        W34078  10.104   1.271   4.059 -0.0311 -0.0711  0.0025
17231W        W34079   7.208   5.372   2.919 -0.2403 -0.0322 -0.0005
17232W        W34080  12.143  13.307  13.784  0.1995 -0.1200  0.1164
17233W        W34081  16.292   0.537   1.127  0.0004 -0.0882  0.1488
17234W        W34082   0.508  12.823   4.840 -0.1358  0.4054 -0.1834
17235W        W34083  16.333  13.256   3.484 -0.1572  0.3832  0.1727
17236W        W34084   0.853  12.662  16.284  0.1276  0.0824  0.1376
17237W        W34085  10.924  15.927  16.590 -0.2097 -0.0942 -0.4584
17238W        W34086   5.488  10.389   1.625  0.0811  0.0588 -0.3654
17239W        W34087   9.546   9.198   0.032  0.0891 -0.2462  0.2445
17240W        W34088  10.261   7.490   2.163  0.0871 -0.0919  0.2970
17241W        W34089  12.902  11.602   1.485  0.4113 -0.1752 -0.1182
17242W        W34090  15.085  12.149  12.151  0.3249 -0.1012 -0.0159
17243W        W34091  10.213  15.457  16.581 -0.2907 -0.0805  0.0600
17244W        W34092  13.963  11.802  15.924  0.1929 -0.3135  0.2857
17245W        W34093   6.354  10.434   1.710 -0.2417 -0.1313 -0.1861
17246W        W34094  16.060   0.048  15.369  0.0396 -0.1870  0.0039
17247W        W34095   0.222   7.289   3.612  0.0954  0.0142  0.0883
17248W        W34096   7.318  12.857   5.434  0.1204  0.1147 -0.0711
17249W        W34097   3.600   5.599  12.380 -0.2767  0.1409 -0.0561
17250W        W34098   7.187  10.100  17.570  0.1084  0.0690  0.1014
17251W        W34099   1.339  12.055   3.492  0.0899  0.0521  0.2283
17252W        W34100  13.595   8.064   4.881 -0.3332 -0.0069  0.1677
17253W        W34101   0.525   4.541  15.544 -0.2386 -0.2354 -0.1546
17254W        W34102   3.357   1.744  14.004 -0.1568 -0.1414 -0.2030
17255W        W34103   9.545  14.759   0.847 -0.0976  0.0059 -0.1942
17256W        W34104   1.708   5.880  13.659 -0.0105 -0.2489  0.2299
17257W        W34105  12.473   7.506   0.928  0.4135  0.4343 -0.1612
17258W        W34106  12.982   5.726  16.021  0.1141 -0.1633 -0.0574
17259W        W34107  13.716   1.540  13.594 -0.0555  0.0856  0.1345
17260W        W34108  13.243  13.357  14.324 -0.0573 -0.1139  0.1542
17261W        W34109   6.444  15.759  16.123 -0.0076  0.2686 -0.1522
17262W        W34110   4.021  11.301   5.856  0.3692 -0.0220 -0.1144
17263W        W34111   0.405   7.821   3.582  0.0786  0.1363 -0.0190
17264W        W34112   2.841  12.850   2.151  0.2530  0.1137 -0.0831
17265W        W34113   3.979  12.796  12.941  0.0576 -0.2626 -0.1625
17266W        W34114  15.156  10.240  13.049 -0.0889 -0.0565  0.4726
17267W        W34115   4.723   0.809  17.124  0.2459  0.1908  0.0239
17268W        W34116  14.607   3.649  17.284 -0.1439 -0.2096  0.0511
17269W        W34117  16.432   6.527   3.700  0.0887 -0.0527 -0.2270
17270W        W34118  14.452   3.187  14.141 -0.1370 -0.2763  0.2115
17271W        W34119   3.854  13.700  16.606 -0.0693  0.2924  0.0769
17272W        W34120   3.181   0.818   3.513  0.1788 -0.0579 -0.2093
17273W        W34121   2.260   5.306  13.003  0.1129 -0.2204  0.1914
17274W        W34122   1.463  13.715   1.291 -0.0852  0.2044 -0.0260
17275W        W34123  15.573  13.597   3.231  0.2132  0.1155 -0.2972
17276W        W34124  12.903  11.940  11.555 -0.1678  0.1513  0.1458
17277W        W34125   4.822  17.077   4.746 -0.1953 -0.4432 -0.0236
17278W        W34126   0.195   0.384  12.713  0.0011  0.2496  0.0846
17279W        W34127   6.582   8.160  17.101 -0.3428  0.3119  0.2979
17280W        W34128  12.699  10.753  12.048  0.3371 -0.0375 -0.2021
17281W        W34129   4.204   6.042   2.751 -0.3631 -0.0633 -0.0252
17282W        W34130  15.181   9.083  17.232 -0.1815  0.0052  0.1003
17283W        W34131   1.742   6.183   1.613 -0.0299 -0.0851  0.1575
17284W        W34132   5.641   7.108  16.101  0.1605  0.0440 -0.1088
17285W        W34133  14.141  11.041  16.335  0.0747 -0.0016 -0.0501
17286W        W34134   9.256  10.527   1.253 -0.0378  0.0837  0.1419
17287W        W34135  10.539  14.341  14.010  0.0623 -0.2952 -0.2108
17288W        W34136   7.989   8.722  13.770  0.2456 -0.0219 -0.0021
17289W        W34137  13.205   2.064  14.313 -0.2695  0.0709  0.0182
17290W        W34138  13.659   2.793   2.014  0.0685  0.1803  0.1749
17291W        W34139   3.735  16.151   5.317 -0.1078 -0.1262 -0.0273
17292W        W34140  14.309  12.171   0.422 -0.1106  0.0062 -0.2228
17293W        W34141  10.477   5.531  17.282 -0.2632 -0.0315 -0.0026
17294W        W34142   9.738   6.303  12.705  0.0355 -0.1264 -0.0121
17295W        W34143  12.127  15.348   0.750 -0.1694 -0.1593  0.0601
17296W        W34144  12.491  16.524   0.974  0.0154 -0.1523  0.2488
17297W        W34145  10.760   1.467   5.260  0.2828  0.0509  0.1679
17298W        W34146  12.460   2.914   2.135 -0.2739  0.2507 -0.0878
17299W        W34147   5.173   4.545   0.268 -0.1835  0.0086 -0.0105
17300W        W34148   9.197   0.257  13.691  0.1860 -0.1779 -0.1431
17301W        W34149  16.558   3.913   5.730  0.2826  0.0198 -0.4199
17302W        W34150  12.394   8.119  13.056  0.0476  0.4311 -0.0347
17303W        W34151  16.611   4.483   0.868 -0.2464 -0.0143  0.1225
17304W        W34152   7.723   5.607   4.260  0.1033  0.1719 -0.0417
17305W        W34153   6.461   1.053  16.799  0.1410  0.0124 -0.2044
17306W        W34154   5.833  15.541   3.149 -0.3556 -0.2911 -0.2533
17307W        W34155  13.684   0.147  14.684  0.2033 -0.1263 -0.1175
17308W        W34156  16.950  14.242   4.746 -0.0705 -0.3586 -0.0315
17309W        W34157  10.336   9.745   1.334  0.1414  0.1401  0.1269
17310W        W34158  16.200   3.639   0.590 -0.1366 -0.0521 -0.1512
17311W        W34159   9.369  11.112   3.068  0.2843  0.1338 -0.0641
17312W        W34160   3.268   8.235  14.194 -0.2999 -0.0715  0.2448
17313W        W34161  14.018   1.010  15.765 -0.1117 -0.2682 -0.1631
17314W        W34162   1.465   6.967   3.803 -0.0887 -0.5383 -0.0350
17315W        W34163   3.568   1.985  17.662  0.0071 -0.2981  0.1387
17316W        W34164   5.038  14.663   1.108 -0.0848 -0.0736 -0.3985
17317W        W34165   9.002  15.683  13.367 -0.0178  0.1021 -0.0776
17318W        W34166  16.404  12.363   4.575 -0.0830 -0.0439  0.0926
17319W        W34167   4.158  11.051   5.451 -0.2663 -0.0072  0.1201
17320W        W34168   4.900  10.982   4.376 -0.0732 -0.1448 -0.1456
17321W        W34169  14.996  15.609  13.022 -0.0409 -0.0598 -0.0523
17322W        W34170  10.491   4.394  14.565 -0.0025 -0.0887  0.1082
17323W        W34171  13.427   3.641   2.876  0.2342 -0.0901  0.0661
17324W        W34172  15.074  13.869   4.847 -0.2707 -0.0614  0.2362
17325W        W34173   6.250   5.510   5.962 -0.3254 -0.1630  0.0061
17326W        W34174  16.183  10.563   3.129  0.0551  0.1273 -0.0215
17327W        W34175   2.159   5.453   4.925 -0.3101 -0.2674  0.1340
17328W        W34176   3.150   5.304   2.826 -0.0934  0.0108 -0.1702
17329W        W34177   4.419   4.363  17.440 -0.0412  0.0041  0.1893
17330W        W34178   5.628   6.540   2.103  0.3428  0.0157 -0.1224
17331W        W34179  13.945   8.544  14.120  0.0347 -0.1635 -0.3783
17332W        W34180   0.679   7.179  14.850 -0.1432  0.0421  0.4624
17333W        W34181   1.501  12.000   2.118 -0.4406 -0.1024  0.0099
17334W        W34182   8.679  10.289   2.518  0.1178  0.4598  0.2079
17335W        W34183   1.679   6.521  15.832 -0.0937 -0.0966  0.1482
17336W        W34184   2.564  12.873   1.553 -0.2206 -0.2319  0.1647
17337W        W34185  16.276   1.831   3.531 -0.2074  0.0171 -0.1951
17338W        W34186   4.030  11.204   6.824  0.1610 -0.1748 -0.0134
17339W        W34187   5.265   4.469   0.810 -0.3819 -0.0537 -0.1147
17340W        W34188  10.753  16.539  14.939 -0.2499 -0.0353  0.1216
17341W        W34189  15.480   9.660   4.635 -0.1506 -0.1250 -0.1790
17342W        W34190   0.530   7.677   2.013 -0.2758  0.1176 -0.0697
17343W        W34191   9.450  15.463   0.040  0.1740 -0.1183  0.0746
17344W        W34192  17.027  13.483  16.904 -0.0333 -0.3063 -0.0654
17345W        W34193  12.441   5.724  16.614 -0.0892  0.3615  0.0434
17346W        W34194   5.712   0.106  14.104  0.0031  0.2748 -0.1775
17347W        W34195   1.798   2.874  14.800 -0.3156  0.3289 -0.1727
17348W        W34196   1.111   0.985   4.449  0.1320  0.1293 -0.1191
17349W        W34197   6.792  13.792  14.285 -0.1756 -0.0240 -0.1951
17350W        W34198  15.101   3.663  14.636  0.3956 -0.0302 -0.3487
17351W        W34199  15.526   3.618   4.345  0.2827  0.0470 -0.1383
17352W        W34200   8.493   1.428   5.282  0.0739  0.0255 -0.0272
17353W        W34201  12.753   2.430  11.660 -0.2249 -0.0571 -0.2913
17354W        W34202  14.424   0.282  16.826  0.0536 -0.0695 -0.1621
17355W        W34203   4.619   5.674   2.832  0.3999 -0.0402 -0.0637
17356W        W34204   6.229   6.210   1.591  0.0592  0.0599  0.4177
17357W        W34205   1.078   4.896   1.678 -0.1220 -0.2734  0.1353
17358W        W34206   1.227  16.317   3.559 -0.6411  0.2896  0.0297
17359W        W34207  13.435   1.307  14.963  0.0441  0.3379 -0.2637
17360W        W34208   5.904  10.467  13.590 -0.1214 -0.1746  0.0330
17361W        W34209  16.530  10.833   2.127 -0.1942 -0.1363 -0.1044
17362W        W34210   8.711   0.383  15.281  0.1444 -0.1943 -0.0565
17363W        W34211  10.917   9.269   4.808 -0.1618  0.3261  0.2674
17364W        W34212   1.502  16.767  14.936 -0.0086 -0.1021 -0.3552
17365W        W34213  16.690  13.349   3.168 -0.1748 -0.3773  0.0515
17366W        W34214  11.734  16.062  13.740  0.4024 -0.1259  0.1424
17367W        W34215   8.090   6.529   2.412  0.1285  0.3438  0.2180
17368W        W34216   7.644  11.085  14.950  0.2140  0.2434 -0.0095
17369W        W34217  10.946  16.370   1.160 -0.0317 -0.0310  0.0628
17370W        W34218   5.761   0.815   4.142  0.0651  0.0349  0.0496
17371W        W34219   9.691  11.345   0.258  0.2196  0.2566  0.0823
17372W        W34220   7.495  15.010  11.237  0.0327 -0.2076  0.2241
17373W        W34221   3.965   7.982  15.293  0.0971  0.0162 -0.0171
17374W        W34222  13.715   8.368  13.181  0.0662  0.0517  0.0543
17375W        W34223   5.824  10.028   5.983  0.1736 -0.0044 -0.3987
17376W        W34224   6.914   8.413   2.603  0.0197  0.1198 -0.1976
17377W        W34225  12.256   5.130   0.236 -0.2282 -0.1579 -0.0943
17378W        W34226   7.689  11.165   5.896 -0.0460 -0.4199 -0.2075
17379W        W34227   2.948  14.100   0.542 -0.0514 -0.0571 -0.0972
17380W        W34228   3.692  12.528   3.838  0.2426 -0.0936  0.1260
17381W        W34229   1.319  16.238  15.129  0.0070 -0.0116  0.0813
17382W        W34230   5.319   8.277   5.147 -0.1926  0.0722 -0.0579
17383W        W34231   2.996   6.731  16.395  0.0090 -0.0746  0.1457
17384W        W34232   0.879   0.957  15.656 -0.1983 -0.0839 -0.0173
17385W        W34233   7.927   4.914   1.683 -0.0305  0.1794 -0.0239
17386W        W34234   2.730   0.088   2.569 -0.1140  0.0952  0.1747
17387W        W34235  13.695   6.772   2.887 -0.2000  0.0257  0.3095
17388W        W34236   1.308   1.204   1.913  0.3173  0.3738  0.1167
17389W        W34237   0.074  16.478   2.601 -0.0068  0.1144 -0.1419
17390W        W34238  13.061  11.909   3.068  0.0988  0.1285 -0.1307
17391W        W34239   8.984   4.243   3.839 -0.1170  0.0544 -0.3324
17392W        W34240  15.420   3.309  12.327  0.1038 -0.0971 -0.1892
17393W        W34241   2.882  14.164  17.740 -0.0303 -0.0189 -0.3310
17394W        W34242   4.252  14.569   5.012  0.1069  0.0623 -0.3046
17395W        W34243  12.354   5.047  17.506 -0.0711 -0.0275 -0.0986
17396W        W34244   9.954  14.073  12.799  0.0118  0.2273  0.0573
17397W        W34245   7.884   8.340   5.349 -0.1004  0.2686  0.0035
17398W        W34246   8.738  12.299  16.305 -0.2677  0.0883  0.0239
17399W        W34247   7.808   1.015   0.755  0.2088  0.1860 -0.0782
17400W        W34248   6.888  12.648   3.213 -0.0199  0.1851  0.0938
17401W        W34249   5.104   2.983  13.995  0.2446  0.0449 -0.1106
17402W        W34250  11.392  10.021   0.924  0.0446 -0.2407  0.2233
17403W        W34251   6.132   1.054  14.361 -0.2798  0.0984  0.0747
17404W        W34252  17.059  15.235   4.925  0.1767 -0.1509  0.1589
17405W        W34253   0.206   3.299   1.088 -0.0109  0.1387 -0.6522
17406W        W34254  12.295   4.423   4.887  0.1675 -0.2048  0.0375
17407W        W34255  11.716   5.330  11.603 -0.2601 -0.2606  0.1691
17408W        W34256   4.151  15.927   5.400  0.3260  0.4053  0.1125
17409W        W34257  11.552   8.590   0.483 -0.2592  0.2951  0.1741
17410W        W34258   1.267   1.951  16.266  0.0540 -0.0156 -0.1875
17411W        W34259   8.708   9.838  12.177  0.2049  0.4146 -0.1443
17412W        W34260  12.099   6.547   5.068 -0.2842  0.3453 -0.0919
17413W        W34261  13.167   4.220   3.809 -0.0884  0.0459  0.2199
17414W        W34262   8.676   1.368   0.913  0.1012 -0.1136  0.0847
17415W        W34263   8.576   6.082  15.461  0.3018 -0.3598 -0.1823
17416W        W34264   9.010   2.658   0.730 -0.1350  0.0935 -0.0016
17417W        W34265   9.044   2.142   0.065  0.0522  0.1561  0.1249
17418W        W34266  10.911   6.280   0.038  0.0320 -0.0839  0.0313
17419W        W34267   9.225   8.280  17.584 -0.0072 -0.3216 -0.2054
17420W        W34268   0.131  11.949  15.135 -0.1687  0.0231  0.1334
17421W        W34269  10.533   0.346   0.804 -0.3810  0.0508  0.1471
17422W        W34270  15.617   5.985  12.072  0.2326 -0.0529  0.1282
17423W        W34271  10.197   3.076   0.375  0.0864 -0.2946  0.0127
17424W        W34272  15.091   6.328  14.447 -0.3103 -0.0552  0.0739
17425W        W34273   6.139  10.963   3.992 -0.0445 -0.1016 -0.0804
17426W        W34274  16.170  12.397   0.538  0.2383 -0.4910  0.2143
17427W        W34275   8.325   4.316   4.450  0.0769  0.0967  0.0406
17428W        W34276  11.209  14.229   0.192 -0.4427  0.1310  0.2322
17429W        W34277  15.061   1.566  16.711 -0.2359  0.0700 -0.3217
17430W        W34278   4.747   3.361   4.136  0.1612 -0.4070 -0.0922
17431W        W34279  16.174  11.054  13.067  0.0300  0.2326 -0.0274
17432W        W34280   0.320  10.809  15.908  0.1104 -0.1607 -0.0623
17433W        W34281   9.356  12.666  17.351 -0.1088  0.1164 -0.1152
17434W        W34282   8.869   0.809   4.583  0.1023 -0.4132 -0.0652
17435W        W34283  15.896  13.956   3.242  0.0243  0.0630 -0.0602
17436W        W34284  13.070   9.602   4.009 -0.2255 -0.0130 -0.1392
17437W        W34285   2.898   3.600   4.918  0.0076 -0.2526 -0.1112
17438W        W34286   3.331  14.097  15.476  0.1088 -0.0325 -0.1412
17439W        W34287   0.906   6.113   4.302  0.1317  0.2845 -0.2436
17440W        W34288  17.116  15.541   1.827  0.1726 -0.1054 -0.0276
17441W        W34289   1.198   9.894  13.626 -0.0724  0.0699  0.0244
17442W        W34290   1.273  13.913   5.821  0.0760 -0.1492  0.1522
17443W        W34291   8.309  15.035   1.166  0.0343  0.0071 -0.4055
17444W        W34292  11.091   8.722   5.406 -0.1063  0.0186 -0.3722
17445W        W34293  16.534   8.893  12.519  0.2123  0.1658 -0.2870
17446W        W34294   5.013  16.150  12.927  0.1515 -0.2236  0.0337
17447W        W34295   9.858   7.314   1.925  0.4662 -0.0525 -0.2340
17448W        W34296  14.982   9.873  13.493 -0.0943 -0.1726 -0.1471
17449W        W34297   1.702   2.665  12.495 -0.1039  0.2869  0.2999
17450W        W34298   1.039   2.877   3.090 -0.0821 -0.1790  0.0643
17451W        W34299  12.460   5.585  14.958 -0.1741 -0.1308  0.0962
17452W        W34300   5.104   6.890   3.915  0.0644  0.2544 -0.1166
17453W        W34301  11.619  14.932   0.977 -0.2042 -0.1217  0.0343
17454W        W34302   9.542   9.854  12.401  0.3180 -0.1832 -0.1879
17455W        W34303  12.918   7.191  13.634 -0.2229  0.1256  0.5405
17456W        W34304   2.230   2.208   3.747  0.0697 -0.0374  0.0392
17457W        W34305   2.838   4.505  12.580 -0.0894 -0.3272  0.1433
17458W        W34306   4.652  15.679   1.826 -0.0493  0.1038 -0.3959
17459W        W34307   6.726   9.551   2.584 -0.1172  0.1362  0.0437
17460W        W34308  16.805   3.474   3.568  0.0161  0.0145 -0.0378
17461W        W34309  16.345   1.040  13.617 -0.0347  0.0373  0.1545
17462W        W34310  13.177  10.955   3.934  0.4232 -0.2100 -0.1645
17463W        W34311   0.775  12.629   0.432 -0.1015  0.0598  0.2944
17464W        W34312   6.776   0.723  15.760 -0.3173 -0.2673 -0.0124
17465W        W34313   8.242   9.844   5.300  0.4541  0.0410  0.0949
17466W        W34314   1.260  15.573   5.065 -0.0771  0.1417  0.0361
17467W        W34315   6.895  16.160   3.183  0.1252 -0.0118  0.4596
17468W        W34316   6.170  13.719   7.055  0.0330 -0.0924  0.1438
17469W        W34317   4.254   1.811   3.711  0.2036  0.0827 -0.2913
17470W        W34318  12.242  12.285  16.259  0.1206 -0.0602 -0.1467
17471W        W34319  15.010   1.342   0.532  0.3203 -0.3315 -0.3253
17472W        W34320   7.851  11.727  13.385  0.0021 -0.0376  0.1622
17473W        W34321   9.877   6.691   3.021 -0.5444  0.3674  0.1452
17474W        W34322   8.187  16.910  12.856 -0.0012 -0.4069  0.0262
17475W        W34323  13.849   7.907  14.839  0.1805 -0.0506  0.0323
17476W        W34324  11.685   4.628   6.036  0.0096  0.2914  0.0472
17477W        W34325   9.460  13.559   1.568 -0.0586  0.1453  0.0529
17478W        W34326  16.552   3.585  13.328  0.1671 -0.3921 -0.1143
17479W        W34327   7.567   3.494  13.719  0.1688 -0.2224 -0.0106
17480W        W34328   2.184  15.166  14.342  0.2556 -0.2571 -0.0332
17481W        W34329   9.691  12.528   3.092  0.0760  0.2322 -0.0915
17482W        W34330  15.689   1.343   1.371  0.1911 -0.0710  0.0129
17483W        W34331   8.808   6.535  16.614  0.2523 -0.0629  0.0886
17484W        W34332  11.537   8.738   1.003  0.1487 -0.1337  0.1857
17485W        W34333  16.475   4.892  12.197 -0.0661 -0.2031  0.1994
17486W        W34334  16.106   4.262  15.268  0.0935 -0.2232  0.0446
17487W        W34335   5.530   3.665   1.221  0.0226  0.0370 -0.2340
17488W        W34336  11.273  12.043  15.228 -0.0005 -0.0761  0.1657
17489W        W34337  12.064   5.528  17.407 -0.0763  0.4576  0.0967
17490W        W34338   5.209   6.246  15.108  0.3022 -0.2253 -0.2356
17491W        W34339   8.138   9.417  16.860 -0.0387  0.1630 -0.1505
17492W        W34340   8.509   7.744  14.169  0.1720 -0.2761  0.4488
17493W        W34341   4.153   3.241   6.566 -0.1860 -0.2655  0.2797
17494W        W34342   0.394   8.756   3.493 -0.2107 -0.1300  0.0426
17495W        W34343  16.839   5.298  17.199  0.1497 -0.4761  0.0134
17496W        W34344   9.451  11.098   3.588  0.0339  0.1848 -0.0763
17497W        W34345   3.182  14.963  15.511 -0.2610 -0.0354 -0.1700
17498W        W34346  14.920   9.634   0.354  0.0735  0.0266  0.1934
17499W        W34347   3.043  10.101  16.973  0.1918 -0.1214  0.0052
17500W        W34348  10.762   4.474   0.688 -0.0642  0.1655  0.1588
17501W        W34349  15.194  17.035   2.933  0.1276 -0.0235 -0.1146
17502W        W34350  10.509   1.781   1.235  0.0215 -0.1780 -0.1998
17503W        W34351   6.973   7.201   1.641 -0.1065 -0.1960 -0.1692
17504W        W34352  13.561   9.429   1.256  0.0736 -0.0038  0.0620
17505W        W34353  11.642  12.395  15.291 -0.1592  0.0427 -0.0308
17506W        W34354  15.985   7.560  16.706  0.1571  0.0248 -0.1620
17507W        W34355   9.321  14.601   2.198  0.0796 -0.1395 -0.1927
17508W        W34356   4.810   3.503  15.528 -0.1300  0.2595  0.0180
17509W        W34357  17.130  14.146   1.632  0.0492 -0.2428  0.0211
17510W        W34358  14.634   9.434   2.950  0.6803  0.2750 -0.2622
17511W        W34359  11.088  11.912   0.469  0.2345 -0.1635 -0.1019
17512W        W34360   2.551  13.288  13.104 -0.1629 -0.4120 -0.1323
17513W        W34361  15.346  14.232  16.573 -0.3204  0.1675  0.1086
17514W        W34362   9.237   9.751  14.637  0.2096  0.1672 -0.0060
17515W        W34363   5.952   7.900   2.946 -0.0192 -0.0824 -0.0368
17516W        W34364   6.867   9.263  14.219  0.1952  0.1017 -0.2662
17517W        W34365  14.371   4.064  13.167 -0.3998  0.0820  0.5824
17518W        W34366  16.178   2.948   4.932  0.1946 -0.0872 -0.2348
17519W        W34367  14.472  12.461  14.494 -0.0365 -0.1455 -0.1870
17520W        W34368  14.223   5.821   2.301  0.3244  0.0506  0.1926
17521W        W34369  15.268   5.635  12.934  0.1146 -0.3551 -0.2857
17522W        W34370  15.216   2.033  13.077  0.0271  0.2352 -0.0249
17523W        W34371   7.169  14.606  15.048 -0.2378  0.5182 -0.0851
17524W        W34372  15.089  11.331  16.164  0.1838 -0.1994  0.0804
17525W        W34373  14.083  10.493  16.063  0.0019  0.2846  0.0556
17526W        W34374  16.888   1.648  12.402 -0.0585 -0.0664 -0.0400
17527W        W34375   0.249   9.677   5.978 -0.0805  0.3510 -0.0683
17528W        W34376   6.597   2.981  16.921 -0.1538 -0.0167  0.0551
17529W        W34377  11.317  12.356   0.105 -0.0263 -0.0501 -0.1135
17530W        W34378   8.708  10.207  16.247  0.1858 -0.1543  0.0703
17531W        W34379  11.238   1.089  13.414 -0.3822 -0.1932  0.1421
17532W        W34380   6.508  15.848   1.187 -0.0161 -0.0038 -0.1014
17533W        W34381   9.378   0.162   0.271  0.1324  0.2350 -0.2222
17534W        W34382  13.714  12.192  15.616  0.1204 -0.0963  0.0478
17535W        W34383  16.183  15.476  16.148 -0.0450  0.1169 -0.0997
17536W        W34384   0.647   5.489  14.180  0.2526  0.2582  0.0060
17537W        W34385   9.658   9.234   3.799  0.2149 -0.0454  0.1008
17538W        W34386   2.907   9.443   1.437  0.2647  0.0366 -0.2476
17539W        W34387  16.257   0.294  11.443 -0.1853 -0.2188 -0.2040
17540W        W34388   4.588  15.498   5.026 -0.1127  0.1154  0.0458
17541W        W34389  11.668   2.068   1.760 -0.3071 -0.0704 -0.1705
17542W        W34390   4.179  13.675  13.150  0.3088  0.0566  0.0076
17543W        W34391  14.727   5.123   1.129 -0.0531 -0.0842  0.1358
17544W        W34392   9.860  14.359  13.825 -0.1025  0.2466 -0.0740
17545W        W34393   7.231   5.418   2.045  0.2271 -0.1251  0.2421
17546W        W34394   1.039   1.387  14.680  0.2387  0.0461  0.0396
17547W        W34395  16.210   4.368   4.508  0.1545  0.2954 -0.0788
17548W        W34396   3.433  15.895  15.515 -0.0953 -0.0269  0.0604
17549W        W34397   4.585   4.273  12.965 -0.1016  0.0257 -0.1927
17550W        W34398   3.083  13.975   4.400 -0.0746  0.2287  0.2495
17551W        W34399   3.494   4.129  15.327  0.0009 -0.0789  0.3445
17552W        W34400   2.732   7.052   4.166  0.0370 -0.1719 -0.1987
17553W        W34401  15.426  16.366  17.597 -0.1082  0.1854  0.3195
17554W        W34402   9.237   1.932   4.668  0.1820 -0.1026  0.0238
17555W        W34403   9.219  12.236  17.107 -0.0006 -0.1551 -0.0071
17556W        W34404  15.320  15.565   0.458 -0.0898 -0.0153 -0.2349
17557W        W34405   8.274  10.896  13.110 -0.3290 -0.2625  0.0890
17558W        W34406   8.374   4.485  12.371 -0.5720  0.1796  0.0486
17559W        W34407   3.783   7.432  13.806  0.1584  0.1717  0.3964
17560W        W34408  13.409   0.241  13.563  0.0587 -0.0875 -0.0802
17561W        W34409  14.894   9.730  13.961  0.0788  0.1825 -0.1416
17562W        W34410   7.032  13.665  16.963 -0.3494  0.0496 -0.0297
17563W        W34411  11.208  12.868   3.730 -0.0846 -0.1248 -0.3458
17564W        W34412   4.741   7.499  15.970  0.0845 -0.0949  0.0788
17565W        W34413  16.199   3.464  13.698 -0.2353  0.2167  0.1785
17566W        W34414   6.258   8.029  12.410  0.1102  0.1674  0.0006
17567W        W34415  13.271  12.068   0.875  0.4083  0.0198  0.0956
17568W        W34416   0.091   9.710  16.794  0.3619 -0.0833  0.0494
17569W        W34417  11.639  14.321  14.085  0.0082 -0.2034 -0.0297
17570W        W34418  13.607   2.182  17.110  0.0353  0.1280  0.0846
17571W        W34419   7.387  16.279  17.266 -0.2082  0.2169  0.0095
17572W        W34420  11.381   9.995   2.293  0.0949  0.4545  0.2414
17573W        W34421   0.698  11.504   4.701  0.1033  0.2416 -0.0816
17574W        W34422   6.337   7.930  17.625  0.0066 -0.2384 -0.5052
17575W        W34423   5.240   7.189  15.164 -0.0764 -0.1297  0.0498
17576W        W34424   2.109  13.115   3.576  0.1388 -0.2194  0.0607
17577W        W34425   1.170  16.838  15.678  0.0838  0.0115  0.2849
17578W        W34426  10.852  11.624  17.495  0.2467  0.2757  0.0918
17579W        W34427  15.372  13.050  12.711  0.2347  0.2857  0.2367
17580W        W34428  13.956   1.616  14.910  0.1217  0.0293 -0.1914
17581W        W34429  15.242  10.738   4.526  0.0332  0.1129 -0.1254
17582W        W34430  11.332   6.478  16.231  0.2899 -0.1233 -0.1275
17583W        W34431  13.251   2.601  12.930  0.2618  0.2194 -0.0332
17584W        W34432  14.807   0.111  13.062 -0.1461  0.2128 -0.3536
17585W        W34433   6.275   5.133  15.486  0.2873  0.3598 -0.3772
17586W        W34434   3.441   9.741   3.113  0.0605  0.0611 -0.3256
17587W        W34435  12.646   5.478  12.402 -0.2461 -0.0231 -0.2954
17588W        W34436   0.653   5.493   0.125  0.2324  0.0357  0.5112
17589W        W34437  16.697  12.000   1.291  0.0446  0.3105 -0.1654
17590W        W34438   4.578  13.538   2.817  0.0289  0.2438 -0.0714
17591W        W34439   5.277   2.021  13.822  0.1034  0.3009  0.0872
17592W        W34440  10.531  12.070  14.819 -0.1153 -0.0380 -0.0489
17593W        W34441  10.724  14.424  17.107  0.2794  0.2395  0.2862
17594W        W34442   9.549   7.454  17.495  0.0712  0.0358  0.3348
17595W        W34443  16.590   4.885   2.313 -0.0323  0.2428 -0.2845
17596W        W34444  15.434  14.657   2.097  0.0664 -0.0382 -0.0545
17597W        W34445   1.543   0.747  17.563 -0.2479  0.2165  0.1354
17598W        W34446   1.900   0.694  15.470 -0.0544 -0.4427 -0.0842
17599W        W34447   6.984   7.064   2.121 -0.0995 -0.1124 -0.3776
17600W        W34448  11.788  15.260   5.153  0.0160  0.1561  0.0546
17601W        W34449   2.655  14.609  17.590 -0.2933 -0.1645  0.0919
17602W        W34450   6.011  14.753   3.749 -0.2799 -0.1132  0.0091
17603W        W34451   5.435  15.143   0.343  0.2690 -0.1894 -0.2869
17604W        W34452   1.329   3.761   2.820 -0.1782  0.1211  0.1120
17605W        W34453   0.275   1.775  14.724  0.4247  0.0754  0.2200
17606W        W34454   1.652   0.194  17.570 -0.0801 -0.0055  0.0872
17607W        W34455   8.797  11.560  13.112  0.0912 -0.1766  0.0620
17608W        W34456   7.167   5.302  13.630 -0.1147 -0.0792  0.0991
17609W        W34457  15.289   4.959   0.412 -0.1154 -0.0397 -0.0678
17610W        W34458  12.958  13.838  15.072  0.0398 -0.1934  0.1141
17611W        W34459   4.362  16.788   0.887  0.0490  0.0968  0.1078
17612W        W34460   5.326  15.840  13.879 -0.0871  0.0713  0.2877
17613W        W34461   4.645   9.366   5.188  0.1231  0.1083 -0.0633
17614W        W34462  15.342   3.062   4.322 -0.1267  0.4046 -0.0342
17615W        W34463   2.381  11.135   0.025  0.0306  0.0975  0.1005
17616W        W34464   7.173  10.908   3.214 -0.2048  0.2236  0.0238
17617W        W34465  14.239   4.342   4.870  0.0790 -0.0719 -0.1646
17618W        W34466  14.338  16.845  16.756  0.0434 -0.3176 -0.0311
17619W        W34467   0.916  10.701  17.664  0.1161 -0.1199  0.3095
17620W        W34468  15.524  15.891   2.242 -0.0012 -0.1604  0.2538
17621W        W34469   7.232  10.918  14.600 -0.0937  0.0269 -0.0359
17622W        W34470   4.767  16.037  14.114 -0.2691  0.1293 -0.1087
17623W        W34471   4.373  11.612   6.153  0.2531 -0.3289  0.0408
17624W        W34472   7.225  11.159   2.778 -0.0704  0.0041  0.0918
17625W        W34473  10.915   8.076   4.147 -0.1051 -0.1385  0.1525
17626W        W34474  13.055   7.202   1.634  0.3181 -0.0556 -0.3300
17627W        W34475   6.925   4.256   4.938 -0.1013  0.1429 -0.0345
17628W        W34476   5.648  15.568  13.274  0.0258  0.0877 -0.2197
17629W        W34477   6.066   4.087   0.246  0.3131  0.1777  0.3994
17630W        W34478   7.952   8.958   0.929 -0.1754 -0.0853 -0.1708
17631W        W34479  14.180   8.007   3.359  0.0065 -0.0965 -0.0560
17632W        W34480  16.445  16.895  15.220 -0.2998 -0.1666 -0.3426
17633W        W34481   4.865   5.636  17.441 -0.0943  0.1368  0.0635
17634W        W34482  15.382   9.977  14.900  0.0904  0.1075  0.0446
17635W        W34483   8.066  15.244   4.386 -0.0571  0.1237  0.4074
17636W        W34484  10.438   1.285   0.923  0.0031 -0.0599 -0.4419
17637W        W34485   5.818  12.191   5.961  0.1247  0.4294 -0.1561
17638W        W34486   5.133   2.037  13.288 -0.0258  0.0287  0.2164
17639W        W34487  12.282  11.126   1.227 -0.1360  0.2939  0.0532
17640W        W34488   9.508   3.567   1.350 -0.0947  0.1588  0.3005
17641W        W34489   0.890  13.182  14.998 -0.0900  0.1463 -0.1978
17642W        W34490   2.664  15.962   1.860  0.0355  0.2095 -0.0934
17643W        W34491  14.793   7.230   2.154 -0.0370  0.2520 -0.1254
17644W        W34492   4.053   8.028   2.985 -0.2478  0.1142  0.0060
17645W        W34493   6.552   7.838   1.960  0.1776 -0.4153  0.1955
17646W        W34494  11.351   0.445   1.752  0.1500  0.0824 -0.2736
17647W        W34495   7.543   0.465   2.581  0.1086  0.0539  0.3332
17648W        W34496  12.360   3.733  12.036 -0.0306  0.1429 -0.1712
17649W        W34497   1.932   6.872  12.146 -0.2298  0.0508  0.1701
17650W        W34498  12.747  13.562  16.026  0.1423  0.0764 -0.1751
17651W        W34499  10.403   2.091  14.913 -0.0051  0.1287 -0.2630
17652W        W34500  10.829   3.776  15.510 -0.0125 -0.0756 -0.2064
17653W        W34501  11.277   8.486  12.349 -0.1279  0.2793  0.0969
17654W        W34502  13.134   6.096   4.050  0.1349  0.0091  0.0850
17655W        W34503   5.910   3.789  16.940  0.1903 -0.1403 -0.0762
17656W        W34504   0.972   0.579   5.400  0.1771  0.1500  0.5112
17657W        W34505   0.038  10.357   2.893 -0.1865 -0.1745 -0.0908
17658W        W34506   2.270   5.844  13.082  0.1228 -0.2430  0.1831
17659W        W34507  13.938   2.875   4.518 -0.1026 -0.4101 -0.1869
17660W        W34508   4.713   6.837   0.580  0.5731  0.3572  0.0142
17661W        W34509   5.688  12.432   4.175 -0.3769  0.0105 -0.2319
17662W        W34510   0.284  13.018   3.522  0.0648 -0.0949  0.0475
17663W        W34511   9.544  14.298   0.628  0.0245  0.0052 -0.1959
17664W        W34512   8.938   6.377  12.403 -0.2831 -0.1465  0.2063
17665W        W34513  17.108  15.576   4.503  0.0657 -0.0602 -0.1737
17666W        W34514  15.768  15.530   2.626  0.3442 -0.1833 -0.0193
17667W        W34515  10.342   9.760  15.468  0.1070 -0.0389 -0.0241
17668W        W34516   9.423  15.303  15.230 -0.0129  0.1157 -0.0797
17669W        W34517   7.434  14.005   1.374  0.0968  0.0477 -0.1435
17670W        W34518   5.260  16.608  15.738  0.2419 -0.0000  0.1962
17671W        W34519   7.935   1.979  14.903  0.2457  0.2324  0.1395
17672W        W34520   3.107  13.586   2.070 -0.0661  0.1153 -0.1429
17673W        W34521   6.191   4.345   4.500  0.0212  0.0895 -0.3353
17674W        W34522   8.678   5.001  15.301  0.1607 -0.1500  0.1411
17675W        W34523  14.326  14.750   2.595  0.2604  0.1798  0.1785
17676W        W34524   8.385  16.588   1.993 -0.0974  0.2119 -0.1184
17677W        W34525   6.052   4.606  15.818  0.2696  0.0134 -0.0595
17678W        W34526  13.805   3.959   3.396 -0.1429 -0.1679  0.1877
17679W        W34527   4.795  16.600  16.180  0.2008 -0.1202 -0.0820
17680W        W34528  14.868   8.843   2.247  0.2375 -0.1424  0.2712
17681W        W34529   2.778   4.800  15.177 -0.1001  0.2930  0.4415
17682W        W34530  15.439  11.323   4.195  0.2615 -0.0692 -0.3294
17683W        W34531   1.629   0.058   0.829 -0.1164 -0.1706  0.1319
17684W        W34532   3.853  14.753  14.072  0.1893  0.0981  0.0676
17685W        W34533  15.192   1.773   5.475  0.1592 -0.3043  0.0484
17686W        W34534   1.528   2.832   0.013  0.1242  0.1142 -0.1534
17687W        W34535   2.098  16.448  13.697 -0.2126 -0.1749 -0.2649
17688W        W34536   7.056  12.284   2.880  0.2974  0.0911 -0.1136
17689W        W34537   0.753   2.366   5.023 -0.0578 -0.0428  0.1606
17690W        W34538   6.527  15.738  14.634  0.4139  0.4180  0.3193
17691W        W34539   4.312   3.216   5.816  0.3427  0.0829 -0.0951
17692W        W34540   2.373  15.718  13.182 -0.0014 -0.0250  0.2121
17693W        W34541   6.976   2.485   2.918 -0.2864  0.1934 -0.3599
17694W        W34542  15.402   2.906  17.755  0.1189 -0.3600  0.1390
17695W        W34543  12.667   8.420  13.580  0.3639 -0.0594 -0.1541
17696W        W34544  16.635   9.232  16.937  0.0941 -0.0262  0.0289
17697W        W34545  12.577   7.460  11.714 -0.0779 -0.2359  0.0329
17698W        W34546  15.661   8.581   2.500  0.2445  0.1562 -0.1068
17699W        W34547  15.438  10.042   1.829 -0.1892 -0.0490 -0.2714
17700W        W34548   5.515   3.645  14.476 -0.1645  0.1791 -0.7274
17701W        W34549  11.839  12.622   4.964 -0.1122 -0.0291  0.0038
17702W        W34550   1.147   2.259  14.410  0.0031 -0.0496  0.0645
17703W        W34551   6.579  11.713   1.640 -0.1576 -0.0255  0.3158
17704W        W34552   4.203   3.529  16.796  0.4248  0.1938 -0.1536
17705W        W34553   4.284   7.421  17.538  0.0329 -0.1622  0.0406
17706W        W34554  13.653   1.634  14.493  0.0612 -0.1589 -0.3762
17707W        W34555  11.296   6.891   0.721 -0.1001 -0.0352 -0.0783
17708W        W34556  10.001  15.767   1.732 -0.2509 -0.0240 -0.1002
17709W        W34557   7.531  13.128  16.597  0.0485  0.1016  0.0079
17710W        W34558   3.192  12.387   4.545 -0.1383 -0.1756 -0.1011
17711W        W34559   7.119   6.081   4.672 -0.0124 -0.0415  0.0518
17712W        W34560  13.384   6.995  11.301 -0.3329  0.1821 -0.2065
17713W        W34561   3.998   2.934   6.244 -0.0811  0.2616 -0.1156
17714W        W34562  13.713   9.841   1.476 -0.1633 -0.0044  0.0679
17715W        W34563   2.916   5.295  17.119  0.0560 -0.1639  0.0105
17716W        W34564   2.723   3.713   4.434 -0.2689  0.0726  0.3242
17717W        W34565   3.637   8.068   3.426  0.0139 -0.0053 -0.1823
17718W        W34566   1.082   5.303   2.042  0.2583  0.1680 -0.1659
17719W        W34567   5.090  12.777   6.029  0.0613  0.1759  0.2225
17720W        W34568   4.751   7.720   2.372 -0.1333 -0.0835 -0.0565
17721W        W34569  13.158  13.588  12.959  0.0481  0.2720  0.1478
17722W        W34570   1.989   1.792   5.043 -0.0158  0.0004 -0.0705
17723W        W34571  17.118  11.923  13.331 -0.2587  0.0943  0.2540
17724W        W34572   8.887  16.302  12.383 -0.0708  0.0787  0.0979
17725W        W34573  17.134   1.723  17.583 -0.0371  0.0097 -0.1088
17726W        W34574   6.854   8.865  16.371  0.0810 -0.2008 -0.2986
17727W        W34575  14.059   3.650  16.148 -0.0609 -0.0162 -0.0290
17728W        W34576  16.248  14.710  17.624  0.1408 -0.0614 -0.1284
17729W        W34577   7.323  10.573  15.892  0.0116 -0.2156  0.2175
17730W        W34578   7.139   4.487  13.849  0.0284  0.0631  0.1750
17731W        W34579  14.475  13.328  13.990 -0.0368 -0.0397  0.0174
17732W        W34580  15.794   0.211   4.398  0.0048 -0.0216  0.2979
17733W        W34581  16.216   3.231  16.182 -0.0822 -0.1385 -0.0152
17734W        W34582  10.045   5.602   5.151  0.0946 -0.0580 -0.1016
17735W        W34583  13.938  15.971  11.988 -0.0347 -0.3391  0.1194
17736W        W34584   4.849   5.119   4.369 -0.2981 -0.1554 -0.0751
17737W        W34585   5.211   7.334  15.708  0.0783 -0.0546  0.0548
17738W        W34586  13.745  13.207  12.097  0.4084 -0.0237  0.1727
17739W        W34587  13.934  10.836   0.195 -0.1712 -0.1188  0.0771
17740W        W34588  10.009   8.424  16.419  0.0371  0.1284  0.0883
17741W        W34589   9.898  11.731  12.320 -0.0549 -0.1172 -0.0534
17742W        W34590   3.085  13.219  16.770 -0.0214 -0.3234  0.0489
17743W        W34591  10.096   1.102   0.420  0.2004 -0.0340 -0.0035
17744W        W34592  13.253   7.467  17.383  0.0144 -0.0342 -0.0355
17745W        W34593   0.160   5.364  11.961 -0.0835  0.0413 -0.1298
17746W        W34594   7.622   9.187   2.620 -0.0187 -0.1603 -0.1348
17747W        W34595  10.046   1.845   0.392  0.1340  0.2677  0.0974
17748W        W34596   2.746   6.963   6.405 -0.4962 -0.1774  0.1635
17749W        W34597   5.981  14.325   6.251 -0.2254 -0.0151  0.3094
17750W        W34598  13.192  14.146   1.583  0.3383  0.0803 -0.1206
17751W        W34599   7.466   9.554  16.121 -0.1009 -0.0949 -0.0399
17752W        W34600   3.868   0.508  15.748 -0.0106  0.0133  0.0467
17753W        W34601  17.151  16.795   4.990 -0.3720  0.0297 -0.1052
17754W        W34602  14.554  12.013  12.867  0.0911  0.0551  0.0075
17755W        W34603   9.609  16.756   2.732  0.0692  0.3439 -0.2439
17756W        W34604  10.127   5.392   2.455 -0.0958 -0.0025 -0.0953
17757W        W34605   0.627   1.384   5.146  0.1823  0.0403  0.0636
17758W        W34606  15.310   3.708   0.364  0.3609 -0.1391 -0.1299
17759W        W34607   8.502  12.448   1.708 -0.1321  0.0404  0.2060
17760W        W34608  13.324   4.681  12.225  0.1213 -0.2494 -0.1134
17761W        W34609   2.332  15.886   0.024 -0.2456  0.0199 -0.0162
17762W        W34610   7.924   1.121  12.405  0.0937  0.2085 -0.0022
17763W        W34611  13.210  13.852  17.373  0.1321  0.2354  0.1730
17764W        W34612  16.348  14.659   1.137  0.0020 -0.2935 -0.2374
17765W        W34613  11.914   6.172   4.854 -0.0370  0.0974 -0.2154
17766W        W34614  12.495  12.074  14.519  0.1404 -0.0412 -0.2097
17767W        W34615   4.784   9.193  14.744  0.1913  0.1281 -0.1386
17768W        W34616   5.412  15.402   5.413 -0.0675  0.0719 -0.0905
17769W        W34617  15.513   0.602  15.948 -0.2734 -0.0667 -0.0081
17770W        W34618  11.652   2.171   0.784 -0.0162 -0.1942 -0.2692
17771W        W34619  14.977  13.286  16.400  0.1068  0.0889 -0.2059
17772W        W34620  10.308   6.181   1.260 -0.2363  0.2627 -0.1987
17773W        W34621  15.509   5.942   3.638 -0.0990 -0.0889 -0.3452
17774W        W34622   7.044  15.936   4.687  0.0054 -0.0518 -0.1757
17775W        W34623   7.039  17.150  15.850 -0.4644  0.0230  0.1224
17776W        W34624  12.669  15.399  15.980 -0.3588  0.0390  0.0018
17777W        W34625  11.885   2.143   3.833  0.1760 -0.0841  0.1116
17778W        W34626   1.879  15.339   5.829 -0.2434 -0.2355 -0.0217
17779W        W34627   3.729   7.467  12.593  0.0156 -0.0823  0.0621
17780W        W34628   2.871  13.737   2.686 -0.0735  0.0240 -0.3025
17781W        W34629   4.996   5.417   2.276  0.0288  0.0123 -0.4526
17782W        W34630   0.215  11.562   3.271 -0.2015 -0.0296  0.5532
17783W        W34631  14.809   3.125   5.029  0.0399  0.3534 -0.1775
17784W        W34632  15.229   1.393  14.848 -0.0489 -0.1181 -0.3323
17785W        W34633  11.307  12.601  14.975 -0.0004 -0.5156 -0.2542
17786W        W34634  16.868   7.890  12.873  0.0281 -0.0609 -0.2258
17787W        W34635  13.399   1.744   0.165 -0.1726  0.0247 -0.1853
17788W        W34636   0.893   7.618   6.012 -0.1380  0.2572  0.0342
17789W        W34637  10.328  15.706   2.664  0.0943  0.1605  0.1828
17790W        W34638  11.502   7.528   2.170 -0.0503 -0.0840 -0.0069
17791W        W34639   5.612   4.000   3.347 -0.3279  0.0653 -0.3498
17792W        W34640   5.369  13.105   1.424  0.0798 -0.0882  0.2421
17793W        W34641   6.527   4.238  12.200  0.3187 -0.0325  0.4568
17794W        W34642  13.609   1.170   6.507  0.2008 -0.0929  0.0267
17795W        W34643   3.318  10.263   1.048  0.3137  0.3160 -0.1721
17796W        W34644   1.553  16.195  13.480  0.0793 -0.1059 -0.0799
17797W        W34645  12.970   6.305   2.676  0.4591  0.0744 -0.2385
17798W        W34646  11.940   7.291   0.024 -0.2272  0.1929  0.0472
17799W        W34647   9.216   1.158  12.593  0.0683 -0.0646  0.1945
17800W        W34648   0.023   0.610  11.920  0.2229  0.1484 -0.1453
17801W        W34649   5.844   0.715  12.784  0.0034  0.1108  0.1139
17802W        W34650   4.231  12.834  13.946  0.1261  0.1418  0.2995
17803W        W34651   7.774   5.919  15.942 -0.3216 -0.1429 -0.0509
17804W        W34652   3.592   8.140   0.323 -0.1627 -0.0986 -0.0817
17805W        W34653  12.724  12.028   0.980  0.2407 -0.0435  0.2031
17806W        W34654   3.898  16.719   0.111 -0.0111 -0.1711  0.0216
17807W        W34655  12.464  15.861   4.643 -0.0787 -0.1709 -0.0698
17808W        W34656   8.548  12.343  16.806 -0.0435  0.4340 -0.2842
17809W        W34657   6.402  12.587   4.724 -0.2958  0.1045 -0.2482
17810W        W34658  12.868  10.545   5.991  0.0296  0.0205  0.2512
17811W        W34659   9.646   5.415   4.907  0.2049  0.3008 -0.1759
17812W        W34660  12.323  13.899  17.315 -0.2226 -0.1423  0.0358
17813W        W34661   2.343  14.181  13.348 -0.2585  0.1811 -0.2780
17814W        W34662  15.371   0.145   0.831 -0.0991 -0.1833 -0.0087
17815W        W34663  13.665  12.495  14.411 -0.1252 -0.0398 -0.0041
17816W        W34664   1.266   3.442   0.063 -0.1326 -0.0806  0.0418
17817W        W34665   8.893   1.140   3.072 -0.1047 -0.0397  0.3257
17818W        W34666   8.613   1.157   1.507  0.0455 -0.1917  0.1090
17819W        W34667   3.109   9.172   2.315 -0.1462 -0.0880  0.0621
17820W        W34668  16.230   9.245  12.423  0.1960 -0.0082 -0.1371
17821W        W34669  15.980  13.691  15.545  0.0303  0.0213  0.1197
17822W        W34670   7.255  14.154   4.886 -0.0101  0.2118  0.2257
17823W        W34671  14.289   5.690  11.806 -0.2392  0.0088 -0.2592
17824W        W34672   7.927  13.046   4.167 -0.0237  0.1666  0.0055
17825W        W34673  10.319   7.750  11.855  0.1602  0.1117  0.2259
17826W        W34674   8.203  12.395   4.687  0.1660  0.2116 -0.3840
17827W        W34675  10.549   6.463   4.894 -0.0651 -0.1456 -0.2095
17828W        W34676   0.532   4.550   0.769 -0.1866  0.1768  0.0883
17829W        W34677  13.554  10.644   4.757  0.1189  0.1003 -0.1790
17830W        W34678   6.675   4.010   5.357  0.2814  0.0016 -0.1027
17831W        W34679   6.434  13.628  17.468 -0.1193 -0.2179  0.1362
17832W        W34680   4.492   1.275  13.006 -0.4612  0.1282 -0.2304
17833W        W34681  16.128   0.274   2.232 -0.2199 -0.0446 -0.1042
17834W        W34682  17.010  16.307   5.158  0.1833 -0.0919  0.2705
17835W        W34683   7.512   0.436  12.728  0.2317  0.1917  0.3120
17836W        W34684  14.782  13.220   3.422  0.0264 -0.1256 -0.4665
17837W        W34685   6.543  14.785  14.906  0.2736  0.0092  0.1263
17838W        W34686  14.748  10.811   2.572  0.1172 -0.0593  0.0447
17839W        W34687  13.203   3.964  13.857  0.0380  0.1836 -0.0669
17840W        W34688   7.122  15.282   3.436  0.0454 -0.1681  0.1193
17841W        W34689   3.825   7.657   0.119  0.2171  0.2815 -0.1742
17842W        W34690   5.689  14.663  14.272  0.0603  0.0332 -0.0666
17843W        W34691  15.611   7.342  12.828 -0.0715 -0.2731  0.0842
17844W        W34692   0.035  15.738  14.055 -0.3119  0.1960  0.3782
17845W        W34693   3.074   6.880   4.587 -0.0375 -0.2457 -0.0763
17846W        W34694   3.787  10.769  17.560  0.0717  0.1927 -0.1194
17847W        W34695  13.983   3.916   2.940  0.2328  0.2269 -0.0482
17848W        W34696  14.592   2.427  15.772 -0.2784 -0.2378  0.0745
17849W        W34697   5.079   1.170   3.416 -0.0645 -0.1566  0.0771
17850W        W34698   6.317  14.524  16.934 -0.2727 -0.0192  0.0044
17851W        W34699   6.791  16.182  16.137  0.1886  0.2710 -0.0554
17852W        W34700   4.707   0.033   5.549 -0.3686 -0.1686 -0.1518
17853W        W34701  16.886   4.635   5.501 -0.2782  0.0691 -0.3806
17854W        W34702  16.576  13.527   4.023 -0.1757  0.3855 -0.1008
17855W        W34703  12.191   6.544   3.992  0.1810  0.2027  0.2321
17856W        W34704   5.596  15.646  14.263  0.1013  0.2985 -0.2701
17857W        W34705   3.605   1.959  15.719 -0.0339 -0.2801 -0.0849
17858W        W34706   1.759  15.633   1.549 -0.2419  0.0511  0.2948
17859W        W34707  12.296   4.642   0.079 -0.0406  0.1185  0.2159
17860W        W34708  12.687   7.888  11.902  0.1228  0.1638 -0.1398
17861W        W34709  13.184  13.275   1.078 -0.2425 -0.2301 -0.0211
17862W        W34710  11.752  15.163  15.721  0.0816  0.1931  0.4009
17863W        W34711   3.061   1.401   0.883  0.3387 -0.0865 -0.1101
17864W        W34712  11.949   8.965  12.125  0.2424  0.0978  0.2199
17865W        W34713   6.277   5.592  15.740 -0.1193 -0.1036  0.4675
17866W        W34714   0.495  12.869  15.847 -0.0715  0.1542 -0.0803
17867W        W34715   4.355  15.276   6.484 -0.1831 -0.0405 -0.1224
17868W        W34716  15.594  14.272   0.643  0.1174  0.1163 -0.1909
17869W        W34717   0.511   0.482  15.737 -0.1518  0.3100 -0.0538
17870W        W34718  15.766  10.498   1.636 -0.0626 -0.0311  0.3697
17871W        W34719  14.731   2.698  16.176 -0.0154  0.2844 -0.0571
17872W        W34720   4.653  10.190  12.543  0.0073 -0.3588  0.1216
17873W        W34721   6.426   2.378   1.792 -0.0688 -0.0366  0.0320
17874W        W34722  11.696   9.334  13.827  0.3089 -0.0701 -0.0249
17875W        W34723   1.814  16.173  15.215  0.1052 -0.1416  0.0355
17876W        W34724  13.144   5.711   3.641 -0.0766  0.0119  0.0194
17877W        W34725  15.735   1.488   1.870  0.1659 -0.2087  0.0735
17878W        W34726   1.624  13.656   4.440 -0.0582 -0.2569  0.0258
17879W        W34727  16.646  16.597   0.941  0.3159  0.2008  0.1785
17880W        W34728   8.102   7.642  15.344  0.1923 -0.2999 -0.3701
17881W        W34729  14.486  12.563   5.330  0.3250 -0.0918  0.0107
17882W        W34730   9.009   8.439   3.393 -0.1058  0.1619 -0.1284
17883W        W34731   1.393   5.534  13.317 -0.0677 -0.0746  0.3204
17884W        W34732  11.952  17.091  13.611  0.1888  0.0845  0.2303
17885W        W34733  13.467  13.545   2.768 -0.1273 -0.1498  0.0225
17886W        W34734  10.046  16.519   2.153 -0.2760 -0.1665 -0.0611
17887W        W34735  11.911   3.012   3.705 -0.2505  0.0538  0.0344
17888W        W34736   0.814  14.296  15.630 -0.0359  0.2473 -0.0555
17889W        W34737   1.956   8.536  14.282 -0.1305  0.1668 -0.1472
17890W        W34738  13.622   3.030  12.889  0.0824  0.1320  0.2263
17891W        W34739  16.430   6.984   0.058  0.0476 -0.2737 -0.1172
17892W        W34740  10.687   2.926  13.502  0.1495 -0.1000 -0.1607
17893W        W34741  11.332  13.149   0.881 -0.2354  0.1784 -0.2581
17894W        W34742   7.068   6.986   2.641  0.0359 -0.4585  0.1371
17895W        W34743  13.436  15.122  11.984  0.1617 -0.3213 -0.0029
17896W        W34744   8.264  16.225   5.352  0.2399 -0.1911 -0.3284
17897W        W34745   6.428   2.754   5.090 -0.0182 -0.0184  0.0045
17898W        W34746   3.055   0.036  15.803 -0.0646 -0.1544  0.2711
17899W        W34747   7.617  10.882   2.862 -0.2057  0.2248  0.1835
17900W        W34748  12.220  10.891   3.286  0.0990  0.0609 -0.2649
17901W        W34749   4.966   6.293  16.826 -0.1708 -0.0773 -0.2729
17902W        W34750   2.050   2.691   1.154  0.3297  0.0818 -0.1429
17903W        W34751  10.748   5.320   3.164  0.0078 -0.0416  0.0503
17904W        W34752  10.962   9.191   3.600 -0.0291  0.0672  0.0281
17905W        W34753  12.067   6.282   2.286  0.1006  0.2530 -0.2612
17906W        W34754   9.902  13.098  16.615  0.0715 -0.0876  0.2490
17907W        W34755  16.871   2.727  17.124  0.2786  0.2280 -0.0633
17908W        W34756  16.443  10.751   3.507 -0.1716 -0.2303 -0.2473
17909W        W34757  13.967   7.618   0.468 -0.0696  0.0922 -0.1710
17910W        W34758   4.147  16.661  13.002  0.0438  0.0888  0.0859
17911W        W34759   4.867  15.177  17.472  0.2545  0.1370 -0.1674
17912W        W34760  12.481  15.924   0.046 -0.1553  0.0600  0.0347
17913W        W34761  12.313  13.862  13.053  0.4269  0.0379  0.2133
17914W        W34762   9.864   1.127   4.780  0.1697 -0.0581 -0.0743
17915W        W34763   6.614   2.989   5.580 -0.0933 -0.2172 -0.0218
17916W        W34764  13.161   5.219  13.982 -0.0400 -0.0561  0.0008
17917W        W34765   7.656   7.540   0.576 -0.0156  0.3200 -0.1702
17918W        W34766   9.638  12.163  16.833  0.3101  0.1794  0.1553
17919W        W34767   2.336   2.892  15.595  0.0166 -0.2223 -0.0122
17920W        W34768  13.821   3.270   1.743  0.1645  0.2311 -0.1213
17921W        W34769   1.974  14.963  15.093  0.1774  0.2115 -0.0208
17922W        W34770   3.737  14.751  13.541  0.1410 -0.3036  0.1335
17923W        W34771  13.731  16.673  13.783  0.0956 -0.1306  0.2431
17924W        W34772   1.728  11.391  15.822 -0.1752 -0.2571  0.2271
17925W        W34773  15.653   3.498  16.997  0.1635  0.0428 -0.0376
17926W        W34774  14.778  10.418  17.035 -0.0412 -0.2235 -0.0167
17927W        W34775   3.591  12.169   2.207 -0.0178 -0.0072 -0.0077
17928W        W34776   2.902  10.665  16.734 -0.4717 -0.0619 -0.0090
17929W        W34777   4.017   5.231  12.472  0.1960 -0.0711  0.0840
17930W        W34778  11.614   5.995   5.320  0.2015 -0.0182  0.1813
17931W        W34779   6.312   2.636   1.138 -0.0523 -0.5371  0.0571
17932W        W34780   3.461   7.020  15.312 -0.1614 -0.3601  0.0934
17933W        W34781   7.869  14.502   0.296 -0.0285 -0.1095 -0.2111
17934W        W34782  10.894  14.004  13.876 -0.0982 -0.1375 -0.0301
17935W        W34783  13.813  10.235   1.880  0.2253 -0.0293  0.3540
17936W        W34784  12.126   9.912   3.818 -0.0020  0.0999 -0.0939
17937W        W34785   0.704   9.706   5.746 -0.4493  0.1383 -0.2816
17938W        W34786   7.129  16.934  12.201 -0.0134  0.1006  0.0273
17939W        W34787  12.270  14.630  12.518  0.0367  0.0652 -0.1116
17940W        W34788   7.134  16.900   0.380  0.3284 -0.0986  0.2126
17941W        W34789   3.412  12.128  17.693 -0.2691 -0.1509 -0.0192
17942W        W34790   7.655   2.422   2.520 -0.0158 -0.0519  0.3187
17943W        W34791   6.439  17.081  15.532  0.0852 -0.0576 -0.0966
17944W        W34792   6.272  13.727  15.474  0.0572  0.0924  0.2808
17945W        W34793   2.771   4.477   5.751 -0.1704  0.1606  0.1118
17946W        W34794   5.418   1.035  17.166  0.1137 -0.4468  0.1497
17947W        W34795  11.991  10.634   1.251 -0.2791  0.1445  0.1671
17948W        W34796   1.327   1.823  15.754 -0.0296 -0.0039 -0.5527
17949W        W34797  16.236   7.095  16.875 -0.1510  0.1930 -0.0010
17950W        W34798   5.842  12.587  14.926 -0.1633  0.2737 -0.0713
17951W        W34799  16.308   6.809  14.752  0.3265 -0.1704  0.2289
17952W        W34800  16.516   1.322   4.849  0.1014 -0.1620  0.1045
17953W        W34801   2.068  15.232   3.496  0.2898 -0.2802  0.4117
17954W        W34802  15.296   0.720   2.853  0.0183  0.3129  0.0843
17955W        W34803   7.049  14.245  11.580  0.2602  0.1371 -0.0829
17956W        W34804   8.133   7.994  11.885 -0.0065 -0.2650  0.0139
17957W        W34805   7.030   5.027  12.370  0.2373  0.0133  0.2143
17958W        W34806   6.092   1.026  17.147  0.1216 -0.0696 -0.0233
17959W        W34807   2.040   1.817   4.480 -0.2268  0.0626  0.1004
17960W        W34808   2.540   2.453  13.063 -0.0806 -0.0500  0.1400
17961W        W34809  13.955  16.898   0.458 -0.1158  0.1638 -0.2047
17962W        W34810  15.548   0.591  12.895  0.0888 -0.2178  0.0636
17963W        W34811  11.678   8.484   4.682 -0.3252 -0.1058 -0.1693
17964W        W34812   8.683  14.865   3.937  0.3765  0.0199 -0.1923
17965W        W34813  12.403  10.007   4.200  0.2531 -0.1370  0.0623
17966W        W34814   9.441   7.118  13.337  0.1060  0.0225 -0.2124
17967W        W34815  10.195  11.020  15.693 -0.1259 -0.0758  0.1312
17968W        W34816   4.574  11.181  14.740 -0.1719  0.1923 -0.2731
17969W        W34817   1.086   7.388   4.024 -0.0437 -0.0607  0.3572
17970W        W34818  10.556   5.530   0.640  0.0594  0.1323 -0.0643
17971W        W34819   4.269  12.008  14.150 -0.1592  0.0711 -0.1050
17972W        W34820  15.653   8.984   2.944  0.1034  0.2450 -0.2832
17973W        W34821   9.696   4.640   2.106  0.2112 -0.0962 -0.2302
17974W        W34822   3.172  12.278  15.886  0.0394 -0.1883 -0.2335
17975W        W34823   6.425   3.907  16.979  0.2303  0.1078  0.4551
17976W        W34824   6.114   7.267   3.093  0.2551 -0.0582 -0.0703
17977W        W34825  13.451  11.621   5.272  0.1981 -0.2553  0.1629
17978W        W34826   2.867  12.117  14.659 -0.1511 -0.0909 -0.3933
17979W        W34827   6.837   3.315   4.560 -0.2532  0.2666 -0.0072
17980W        W34828   4.730   2.290   3.269 -0.2313  0.0247 -0.0916
17981W        W34829   7.242  12.681   4.477  0.0107 -0.1218  0.1908
17982W        W34830   8.784   6.723   4.005 -0.3206  0.2590  0.0064
17983W        W34831  13.308   4.647   4.199 -0.0247 -0.3419  0.1522
17984W        W34832  12.735  12.304  16.469 -0.3159  0.0838  0.2693
17985W        W34833  15.472   5.763   0.966  0.0149 -0.1297  0.0977
17986W        W34834  17.158   1.197  17.553  0.0408  0.0835  0.1179
17987W        W34835   3.646  11.164   3.818  0.1731 -0.1587 -0.1200
17988W        W34836  14.813   6.859  16.782 -0.1279 -0.0064  0.2184
17989W        W34837  16.875   2.477   0.955 -0.0177  0.1589  0.2027
17990W        W34838   9.971  14.871  13.486  0.2775 -0.1104  0.1076
17991W        W34839  16.687  10.786  14.150  0.0937  0.3081  0.1441
17992W        W34840  12.983   4.332  12.635 -0.0795  0.2343  0.1020
17993W        W34841  13.085   9.228   1.366  0.0515  0.2186 -0.3271
17994W        W34842   3.989  10.302   1.810  0.2109 -0.3330 -0.1693
17995W        W34843   2.252  16.626   4.649  0.0788 -0.2883  0.0475
17996W        W34844  11.903   8.555   5.436  0.0603 -0.2422  0.1779
17997W        W34845  14.451   0.601   0.620 -0.1158  0.1075 -0.0409
17998W        W34846  16.233   0.954  17.201 -0.0625  0.1847 -0.1634
17999W        W34847   3.140  10.138   3.004 -0.1379  0.0439 -0.0766
18000W        W34848  13.793   0.559   4.684 -0.0404 -0.0167  0.1910
18001W        W34849   2.464   6.743  17.605 -0.0253 -0.2319  0.1281
18002W        W34850   6.905   9.019  15.148 -0.3023  0.2772  0.0706
18003W        W34851   1.049  10.036  14.054 -0.1450  0.3925 -0.2208
18004W        W34852   2.271  11.598   0.740  0.2572 -0.1836  0.0199
18005W        W34853   3.625   7.896  16.223 -0.0228 -0.1139 -0.0078
18006W        W34854   4.120   7.382  12.246  0.1706  0.1327 -0.3173
18007W        W34855  10.103  14.898  16.875  0.1463 -0.4071 -0.0190
18008W        W34856   1.066  15.454   4.597  0.0549 -0.2865  0.0632
18009W        W34857  13.832   1.841  16.080 -0.1260  0.3246  0.0295
18010W        W34858   4.028   1.237   4.569 -0.3283  0.0684  0.0087
18011W        W34859   9.693  16.320   2.993  0.0406  0.1780  0.0294
18012W        W34860  15.930  17.119  14.357  0.0202  0.2437  0.0189
18013W        W34861   4.193  13.252   5.782 -0.4719  0.1565  0.0446
18014W        W34862   1.579   9.516   2.781  0.2818 -0.0692  0.1470
18015W        W34863  13.752  15.653   4.854 -0.1519 -0.1988 -0.0917
18016W        W34864   2.960   3.370  17.104 -0.1466 -0.0886 -0.1480
18017W        W34865   1.209   7.559  12.645  0.1095  0.2181  0.3358
18018W        W34866   9.029  16.342  16.951 -0.0803 -0.2066 -0.2804
18019W        W34867  13.288  11.991   1.923 -0.0659  0.0097 -0.3067
18020W        W34868  14.714   1.476  16.272  0.2552  0.0942  0.3578
18021W        W34869   8.278  14.084  16.042 -0.1577 -0.0576 -0.3723
18022W        W34870  15.672   8.240   2.156 -0.0612  0.0568  0.1225
18023W        W34871   1.906  15.052  12.658  0.0772  0.0587  0.2868
18024W        W34872   3.277  16.619  16.413 -0.0340  0.0660  0.0981
18025W        W34873  15.365   1.252   5.484 -0.1918 -0.0528 -0.1015
18026W        W34874   1.273  14.770   1.974 -0.2634 -0.2572 -0.3467
18027W        W34875  12.733   9.572   4.873  0.1317 -0.3978 -0.2404
18028W        W34876   6.994  11.657  14.378  0.2741 -0.0788  0.0595
18029W        W34877  13.109  14.837   5.516  0.4212  0.2953 -0.1726
18030W        W34878  11.357   8.292   2.412 -0.0206  0.0869  0.1737
18031W        W34879   7.764   0.925  16.280  0.1125  0.2027 -0.1825
18032W        W34880  16.454  16.715   2.133 -0.2308 -0.1128  0.1268
18033W        W34881  13.189  15.976   2.556 -0.0809  0.0670  0.0897
18034W        W34882   5.932   2.453   1.539 -0.0225  0.1764  0.0670
18035W        W34883  14.377  12.043   4.133  0.0477  0.0173 -0.0049
18036W        W34884  14.905  12.555   4.135 -0.0795  0.3886 -0.0144
18037W        W34885  13.621   4.379  15.568  0.0358 -0.0764 -0.1689
18038W        W34886   7.033   6.163  14.739 -0.0923 -0.0690  0.2562
18039W        W34887   3.281   9.809  12.731  0.0590 -0.0940  0.1107
18040W        W34888  12.289   3.109  11.119  0.3140 -0.3390 -0.0144
18041W        W34889   9.883   2.649   3.035 -0.1329 -0.0328 -0.1020
18042W        W34890   5.659  15.321  13.860 -0.0333 -0.0581  0.0011
18043W        W34891  16.606  14.092   3.926 -0.0339 -0.0180 -0.1667
18044W        W34892   4.893  16.201   4.541  0.0490  0.0496  0.2345
18045W        W34893   5.117  11.086   2.997  0.1107  0.6248  0.1209
18046W        W34894  11.727   1.441  13.588 -0.0538  0.0144 -0.3485
18047W        W34895   8.054  10.907   2.024 -0.0892 -0.0633 -0.0692
18048W        W34896  13.884  11.415   0.414  0.0975 -0.0118  0.2466
18049W        W34897  11.069   7.228   1.043  0.2120 -0.3469 -0.0545
18050W        W34898   7.597  13.454   1.988  0.1286  0.2423 -0.1022
18051W        W34899  13.487   9.253  15.030 -0.1505  0.2493 -0.0555
18052W        W34900   6.033   5.666  12.664  0.0656 -0.1503  0.0157
18053W        W34901   5.346  12.646  16.127 -0.4246  0.2532  0.0434
18054W        W34902  10.912  12.552   2.276 -0.3901  0.2190 -0.1150
18055W        W34903  15.729   4.253  13.944  0.0532 -0.3108  0.2618
18056W        W34904  14.699   9.938  15.149 -0.0709 -0.1414  0.2051
18057W        W34905  14.231   3.907  12.098  0.0857  0.1821  0.2136
18058W        W34906  14.467  12.020  14.739  0.3967  0.0598 -0.2248
18059W        W34907   0.181   5.889   5.941  0.1577 -0.2831 -0.2579
18060W        W34908   0.706   6.884   0.172  0.2486 -0.2975 -0.0319
18061W        W34909   5.106   4.187  12.586 -0.0368 -0.2757  0.0491
18062W        W34910  13.450   1.140   2.254 -0.2287  0.0451 -0.1570
18063W        W34911  16.890  11.253   0.782 -0.0899 -0.4279  0.1552
18064W        W34912   1.749   8.764  13.188 -0.0121 -0.0632  0.3013
18065W        W34913  12.894  15.214   3.025 -0.0335 -0.0759  0.1574
18066W        W34914  10.545  10.661  14.067  0.0533  0.1182 -0.0245
18067W        W34915   2.673   3.601  16.487  0.0730  0.1739 -0.2539
18068W        W34916  13.905   9.604  13.044  0.2004  0.3654 -0.1401
18069W        W34917  15.847  10.637  14.386 -0.3786  0.2690  0.0493
18070W        W34918  13.545   9.013  11.924 -0.1890 -0.1633  0.5907
18071W        W34919   2.939   7.970  12.766  0.0404 -0.1983 -0.1579
18072W        W34920  13.999  13.145   5.404 -0.0878  0.2913  0.0889
18073W        W34921   4.631   6.741   4.057 -0.1603 -0.2103  0.0248
18074W        W34922   8.729   1.152  13.195  0.0790 -0.1677 -0.3357
18075W        W34923   3.237  11.182   4.994  0.2058  0.3572 -0.2293
18076W        W34924   6.257  13.932   4.902  0.3950  0.0405  0.4298
18077W        W34925  15.208  16.613  12.497 -0.0125 -0.1429  0.0647
18078W        W34926   9.744  11.978   5.068  0.1751 -0.1859 -0.3025
18079W        W34927   1.933  12.474   6.231  0.1583 -0.1098  0.2392
18080W        W34928   0.400  10.385   3.844 -0.0524  0.1047 -0.0546
18081W        W34929  11.535  16.897  13.276 -0.2673 -0.0302 -0.2182
18082W        W34930   0.551  12.055   3.968 -0.2128  0.0901 -0.1034
18083W        W34931  12.641   1.980   2.410  0.1486 -0.0332 -0.2637
18084W        W34932  14.781  16.633  16.459 -0.0137  0.0302  0.1421
18085W        W34933   4.038  10.762   0.245 -0.0904 -0.4696 -0.3298
18086W        W34934   8.534   6.410  13.605  0.1888  0.3010  0.0260
18087W        W34935   2.568   5.865   4.919 -0.4728  0.1576 -0.1818
18088W        W34936   3.352  13.936   3.910  0.1169  0.2976  0.1164
18089W        W34937  15.961   0.925   1.183  0.1986  0.1928  0.2352
18090W        W34938  10.720   5.448  14.577  0.3221  0.1124 -0.4146
18091W        W34939   5.867   6.110   1.898 -0.1298 -0.3362 -0.1284
18092W        W34940   8.600   8.082  13.419 -0.0447  0.0345 -0.2249
18093W        W34941   2.727   8.778  12.973 -0.0098 -0.0191 -0.2331
18094W        W34942  12.270   8.774   1.022  0.0585 -0.2537 -0.0110
18095W        W34943   2.845   0.940  16.969  0.4353 -0.1302  0.2001
18096W        W34944   6.835  15.238   4.723 -0.3425 -0.1584  0.2991
18097W        W34945  13.586   4.297  14.130 -0.0982  0.2256 -0.1219
18098W        W34946   5.069   7.265  12.612 -0.0825 -0.4614  0.0221
18099W        W34947  16.438   6.047   0.840  0.1300 -0.1036  0.2841
18100W        W34948   5.303  16.781  13.732 -0.2242 -0.2495  0.0768
18101W        W34949   8.628   5.979   3.145  0.0694 -0.0073 -0.1607
18102W        W34950  12.480   4.420   5.435 -0.0364  0.2990  0.4669
18103W        W34951  14.742  12.899   0.636 -0.1358  0.0546 -0.0318
18104W        W34952   0.809   7.607   1.370 -0.1656 -0.0612  0.0809
18105W        W34953  14.838   1.089   2.762 -0.1425 -0.2501  0.1751
18106W        W34954  14.743  15.693   1.851  0.2387  0.0958 -0.1876
18107W        W34955   5.572  14.206   0.065 -0.3092 -0.3151 -0.2794
18108W        W34956   0.098   7.045  17.188  0.1242 -0.0853 -0.0298
18109W        W34957   0.019   7.025  13.277 -0.0621  0.0219  0.0717
18110W        W34958   1.558  10.202   4.785 -0.1146  0.3173 -0.0579
18111W        W34959   1.925  11.346  14.698  0.2908  0.1996  0.1649
18112W        W34960  11.558  10.332   1.233  0.0508 -0.2160 -0.0188
18113W        W34961  16.089  16.745   5.507  0.1672  0.0045  0.1136
18114W        W34962  17.106   5.660   4.951 -0.4223  0.1540  0.1515
18115W        W34963   0.322  16.453   4.870  0.1676  0.2664 -0.0062
18116W        W34964   6.578   7.832   0.301 -0.1506  0.2380 -0.2456
18117W        W34965  11.400   6.716   4.073  0.0494  0.2165 -0.1631
18118W        W34966   2.941  10.764  13.047 -0.1030 -0.1331  0.0706
18119W        W34967   2.408   3.167  17.330  0.0175  0.0150 -0.2688
18120W        W34968  16.187  16.367   2.344  0.2348 -0.0613 -0.0071
18121W        W34969  10.406   2.165  13.572  0.1412  0.0913  0.0591
18122W        W34970  14.497   6.195   2.097 -0.1206  0.2059 -0.1353
18123W        W34971  10.476  12.038   0.876 -0.1242 -0.1770  0.0379
18124W        W34972  12.373  17.044   4.215 -0.3520 -0.0430  0.0220
18125W        W34973   1.041  11.892   3.829 -0.0997 -0.3510  0.0991
18126W        W34974   1.080  12.626   5.042  0.1686 -0.0418 -0.0853
18127W        W34975   4.157  16.474  16.529  0.2735  0.3952  0.1312
18128W        W34976   6.870   3.458  16.326  0.0121  0.0287 -0.0256
18129W        W34977  11.217   0.621   0.121  0.1555 -0.0298  0.2462
18130W        W34978  12.693  14.959  14.183  0.0864 -0.0155  0.2557
18131W        W34979  13.871   2.829   1.493  0.1690  0.0602 -0.1095
18132W        W34980  12.315  11.991  15.676  0.3480 -0.1684 -0.2824
18133W        W34981   9.446  16.437  11.444  0.2231 -0.2164  0.4021
18134W        W34982   4.535  15.457   0.100 -0.2475 -0.1218  0.1933
18135W        W34983   2.343   1.961  16.476  0.1516  0.2685 -0.6206
18136W        W34984   5.615  12.475   2.491 -0.1372 -0.1394  0.0809
18137W        W34985   3.311   8.229   2.282  0.2080 -0.1811 -0.1107
18138W        W34986  13.514  10.333  16.154 -0.1699  0.1518 -0.1153
18139W        W34987   0.211   0.226   6.977 -0.2165 -0.1038 -0.2246
18140W        W34988  10.589  14.839   2.011 -0.1322  0.1307 -0.0688
18141W        W34989   3.676   7.374  16.867  0.0309 -0.0137 -0.5350
18142W        W34990   1.706   3.721  17.083 -0.0930 -0.2415  0.2157
18143W        W34991  11.963  17.142  14.909 -0.2135  0.1770  0.0012
18144W        W34992  12.174  10.399   1.897  0.0034 -0.2315  0.1255
18145W        W34993   7.121  15.912   1.200 -0.0647 -0.4785  0.0721
18146W        W34994  11.874   3.733   0.097 -0.0841  0.0184 -0.0315
18147W        W34995   2.782  12.010  16.098  0.2449  0.0004  0.0831
18148W        W34996   8.483   9.141   0.378  0.1426  0.0678 -0.1249
18149W        W34997   6.440   7.327  16.462 -0.0375  0.0902 -0.0591
18150W        W34998   2.933   1.960   3.154 -0.0495 -0.2234  0.1009
18151W        W34999  11.128   2.138   1.567 -0.2637  0.0999 -0.4190
18152W        W35000  16.822   4.135   6.638  0.0695  0.0137  0.1619
18153W        W35001   8.650  13.371  17.764  0.1428  0.1850 -0.2197
18154W        W35002  13.755   4.134   1.246  0.0809  0.1753  0.0148
18155W        W35003  11.300  15.252  12.251  0.0293  0.2189 -0.1753
18156W        W35004  16.897   3.244  15.952 -0.0771  0.4021  0.1192
18157W        W35005   9.529   9.554   3.369  0.0607  0.0554 -0.0377
18158W        W35006   9.330  16.941  13.631 -0.3606  0.1118  0.2780
18159W        W35007   1.040  13.600   6.189  0.0479 -0.1357  0.2936
18160W        W35008  13.230   4.757  14.274 -0.2080 -0.1969 -0.1102
18161W        W35009   6.837   8.447  15.040 -0.3526 -0.2096  0.0545
18162W        W35010   5.476  10.832   5.559  0.0018  0.1046  0.1876
18163W        W35011   2.351  17.106   2.934 -0.0664  0.2099  0.2000
18164W        W35012   2.032  16.126   2.268 -0.2766  0.1136  0.2993
18165W        W35013   7.828   2.550   0.480  0.0779 -0.1041  0.1854
18166W        W35014  14.010   0.412  16.549  0.2435  0.2610  0.1345
18167W        W35015   0.638  13.533   5.813 -0.1496  0.2263  0.0637
18168W        W35016   1.613  10.631   0.390 -0.3503 -0.0490 -0.1656
18169W        W35017   5.155   6.379   5.339  0.1433 -0.2819  0.0433
18170W        W35018  10.134  15.946  15.778 -0.0623  0.0893  0.0824
18171W        W35019  12.417   0.506  14.703  0.3052  0.1145 -0.1394
18172W        W35020  12.704   2.395  14.144 -0.2003 -0.0165 -0.0203
18173W        W35021  12.822  11.392  17.652 -0.1590 -0.2514 -0.0803
18174W        W35022   7.787  15.598   2.440 -0.0359 -0.2785  0.1717
18175W        W35023   8.439   4.148  12.010  0.0255 -0.3238  0.3597
18176W        W35024   4.216   2.989  14.471  0.2536  0.0094  0.1784
18177W        W35025   5.214   9.413  14.836 -0.3236  0.1446 -0.0519
18178W        W35026  10.143   1.663  15.257  0.1212  0.0909  0.0780
18179W        W35027  11.724  13.045  13.665  0.1492 -0.4347 -0.1248
18180W        W35028   7.134   6.675  14.698  0.0276  0.2036  0.0984
18181W        W35029   1.037  14.572   3.050  0.0797 -0.2177  0.1791
18182W        W35030  10.688   4.365  12.736 -0.2068  0.0275  0.1327
18183W        W35031   3.899   1.591  14.987 -0.0768  0.2885 -0.1485
18184W        W35032   7.059   1.507  15.963 -0.0188  0.0386  0.0582
18185W        W35033  15.514   6.126   0.458  0.1179  0.2173 -0.0018
18186W        W35034   6.067  14.355  14.146 -0.1923  0.2192  0.1503
18187W        W35035  11.514   4.925  15.652 -0.0089  0.1907 -0.2636
18188W        W35036   7.558  15.589   0.592  0.1261  0.0668  0.0085
18189W        W35037  10.193   4.722  11.608  0.2846  0.2293 -0.3051
18190W        W35038   0.301   3.793   5.001 -0.0513  0.0342  0.0625
18191W        W35039   2.834   4.822  13.662  0.2046 -0.0079  0.0403
18192W        W35040  13.364   4.676  16.008 -0.2074  0.0550  0.0510
18193W        W35041   2.314   2.649   3.433 -0.0880  0.3901 -0.0134
18194W        W35042  12.491  14.987  16.308 -0.2422 -0.1965  0.1261
18195W        W35043   8.137   2.160   3.538 -0.0542 -0.2236 -0.2976
18196W        W35044   1.524   4.674   5.724 -0.1339 -0.0186  0.1455
18197W        W35045  13.414   1.127  16.715  0.1207 -0.4728 -0.0690
18198W        W35046  15.918  12.388  13.517 -0.0696  0.0600  0.0318
18199W        W35047  15.495  13.375  14.797  0.2696 -0.0301  0.0424
18200W        W35048  11.227   9.966   1.374 -0.0866 -0.1267 -0.2819
18201W        W35049   2.645  14.906   4.381  0.0207 -0.1428  0.3766
18202W        W35050  13.033  11.348   5.140 -0.1478 -0.1317 -0.1435
18203W        W35051   1.033  11.366   3.781 -0.2146  0.2550 -0.2022
18204W        W35052  12.785   8.867  13.160  0.1405  0.0528  0.0519
18205W        W35053  12.674  10.454   4.191  0.0283 -0.2773 -0.0047
18206W        W35054   5.660   0.956  16.316 -0.0916  0.1162 -0.3493
18207W        W35055   6.759   0.564   4.725 -0.2683  0.1504 -0.1229
18208W        W35056   4.531   6.208   5.374  0.1393  0.0307  0.0851
18209W        W35057  17.127   1.463  17.088  0.0927 -0.1823 -0.1996
18210W        W35058  14.769   3.912  12.380 -0.0480 -0.1923 -0.2142
18211W        W35059   3.196  11.924   0.826  0.2586 -0.0146 -0.0146
18212W        W35060  14.972  15.631  15.125 -0.0253 -0.2504  0.1144
18213W        W35061  13.624   3.322   3.218 -0.1230 -0.2607 -0.0989
18214W        W35062   7.158  11.101  16.251  0.0444 -0.1893  0.2138
18215W        W35063   3.611  16.450   1.017  0.0541  0.0403  0.0147
18216W        W35064   0.413  13.035  12.589  0.1656 -0.2872  0.0827
18217W        W35065   0.025   8.371   0.461 -0.0342  0.1290 -0.0062
18218W        W35066   7.806   9.823   2.925 -0.0732  0.0583 -0.1149
18219W        W35067   2.163   6.754  15.805 -0.3161 -0.0782 -0.0030
18220W        W35068   1.477  12.978  15.083  0.0217 -0.1371 -0.2452
18221W        W35069   5.108   3.119   3.751  0.1666  0.0101 -0.3269
18222W        W35070  16.496   6.688   5.037 -0.0875  0.1289 -0.3017
18223W        W35071   3.729   6.971  12.745  0.1978  0.0139  0.3524
18224W        W35072   2.813   1.122   5.625  0.1665  0.0791  0.0656
18225W        W35073   0.431   1.618  13.711  0.1012 -0.0206 -0.1351
18226W        W35074  16.144  12.352  12.344 -0.1267  0.0713  0.0395
18227W        W35075   5.563   5.059  12.426 -0.0131 -0.5305  0.0436
18228W        W35076   8.597   3.636  14.937 -0.0850  0.2803  0.1458
18229W        W35077   2.212   3.854  16.617 -0.0052 -0.0522 -0.0472
18230W        W35078  10.134  13.672  17.374  0.2052  0.2871  0.1921
18231W        W35079   7.882   5.080  16.588 -0.0226  0.2276 -0.1614
18232W        W35080   1.082   6.594  17.155  0.1435  0.0837  0.2499
18233W        W35081   7.953   0.368   1.813 -0.0744  0.3050 -0.3751
18234W        W35082   7.074  13.258   1.166  0.0683 -0.4186 -0.0637
18235W        W35083   2.810  13.965   3.939 -0.4135 -0.1151  0.0890
18236W        W35084   3.533  16.018  12.163 -0.2099  0.3238  0.2322
18237W        W35085   6.284   4.464  13.559  0.1978  0.1116  0.0889
18238W        W35086   5.029  12.859   5.511 -0.0546 -0.0536 -0.3217
18239W        W35087   1.305   2.774   3.705 -0.0117 -0.3387  0.0221
18240W        W35088   0.508   1.085  16.856 -0.1320 -0.1961  0.3017
18241W        W35089   8.376   9.583  17.724  0.1720  0.1472  0.1250
18242W        W35090  14.483   3.320   2.965 -0.3302 -0.1042  0.1753
18243W        W35091   7.476  16.090   2.510 -0.1259  0.0141  0.0587
18244W        W35092  13.589  14.483   4.714  0.5184 -0.1421  0.1582
18245W        W35093   6.197  10.586  17.348  0.4570  0.1073  0.1418
18246W        W35094   3.478   5.330  15.752  0.1842  0.0392  0.1049
18247W        W35095   8.336   3.475  13.276 -0.1896 -0.3009  0.2151
18248W        W35096   0.218  14.268   0.678  0.3480  0.0820 -0.0596
18249W        W35097   8.029   3.259   2.599  0.2887  0.1183  0.1876
18250W        W35098   3.668  11.202  13.276  0.3507  0.2930  0.1369
18251W        W35099  16.732   1.626  17.291 -0.1733 -0.4231  0.0676
18252W        W35100  11.188   4.490   0.033 -0.2499 -0.1594 -0.1100
18253W        W35101   9.354   1.035   4.804 -0.3769  0.1602  0.0997
18254W        W35102  10.225   3.173  13.872  0.1428  0.1092 -0.1414
18255W        W35103  11.458   0.798   4.432 -0.2294  0.1670 -0.0311
18256W        W35104   0.548  14.539  12.820 -0.0469  0.0729 -0.1295
18257W        W35105  16.845  10.007  16.195  0.0487  0.3882  0.1902
18258W        W35106   0.856   0.836  13.588  0.1164  0.0142  0.2089
18259W        W35107   3.015   0.134  13.160 -0.1145  0.0624 -0.1346
18260W        W35108   5.027  11.665  15.791  0.4092  0.0897 -0.1159
18261W        W35109   7.277  11.254   4.480  0.0542 -0.2124 -0.0013
18262W        W35110   4.246  16.401   5.607  0.0706 -0.2297 -0.0360
18263W        W35111  16.229   3.601   3.112  0.2927 -0.1346  0.0170
18264W        W35112  16.502  13.942  14.533 -0.0500  0.1293  0.0977
18265W        W35113   1.682   5.010   0.651  0.1239  0.1969  0.1870
18266W        W35114  16.021  12.886  16.021  0.1548 -0.0861  0.1867
18267W        W35115  16.669   8.957   3.255 -0.1026  0.1224 -0.0044
18268W        W35116   4.887   1.825  14.138  0.0995  0.1384 -0.1383
18269W        W35117  10.672   6.042   0.358 -0.1851  0.0481  0.0935
18270W        W35118  14.813   4.726  12.841 -0.3243 -0.1830  0.2094
18271W        W35119   2.335   4.300   2.718 -0.4137  0.0052 -0.3877
18272W        W35120   5.031   8.617  14.194  0.2169 -0.0798 -0.1625
18273W        W35121   6.967   9.944  16.810 -0.0182 -0.0918 -0.3348
18274W        W35122   4.473  11.053   0.313  0.2944 -0.1274 -0.0202
18275W        W35123  13.380  14.100  15.931  0.1429  0.3694  0.2113
18276W        W35124  11.384   2.285  15.057 -0.1682 -0.2092  0.0502
18277W        W35125  14.800  14.644   3.493 -0.0120 -0.1113 -0.2053
18278W        W35126  12.797  14.137  17.160 -0.0974  0.2117 -0.0327
18279W        W35127   0.522   2.505  12.785 -0.0494 -0.2032 -0.1898
18280W        W35128   1.416  11.130   3.407 -0.0349  0.0391 -0.0349
18281W        W35129   8.690  16.079  11.979  0.1271  0.0536  0.1449
18282W        W35130   9.583   1.478   1.230 -0.0911  0.0823 -0.1444
18283W        W35131  16.704  14.510   0.735  0.1382  0.1605 -0.2105
18284W        W35132  14.730   9.033  17.433 -0.0159 -0.3902  0.1272
18285W        W35133  13.389  13.542  15.354  0.1675  0.0919 -0.0905
18286W        W35134   1.239   8.428  16.128  0.1470  0.1775  0.0917
18287W        W35135  11.821  17.135   2.639  0.1227 -0.0500  0.0257
18288W        W35136  16.308   8.105   3.082  0.2573 -0.1665  0.0582
18289W        W35137  12.676   4.674   2.714  0.1921 -0.0694  0.2749
18290W        W35138   1.999   3.230   1.958 -0.1707  0.1621  0.1678
18291W        W35139  11.983   2.578   1.112  0.0781 -0.0125  0.0416
18292W        W35140   7.342   7.874   3.852 -0.2167 -0.1317  0.1228
18293W        W35141   0.665   1.864   0.866 -0.2495  0.1235  0.0794
18294W        W35142   0.939   2.354  16.196 -0.0667 -0.3641 -0.1322
18295W        W35143  15.120  12.039  13.534  0.2325 -0.1883  0.0106
18296W        W35144   7.129  12.385  14.637 -0.0154 -0.0761 -0.2772
18297W        W35145  15.573   5.800  12.583  0.1500 -0.1856  0.0852
18298W        W35146   6.261   4.345  17.165 -0.3239 -0.2244  0.1714
18299W        W35147   9.339   6.481  14.131  0.0100  0.0810 -0.2160
18300W        W35148  15.922   8.512  16.055 -0.0644 -0.0846  0.2565
18301W        W35149   1.246   8.929  13.844 -0.0068 -0.2006 -0.1437
18302W        W35150  14.041  11.275  12.581 -0.0216 -0.2744 -0.0871
18303W        W35151  10.791  11.456   1.569 -0.2376 -0.4878  0.2499
18304W        W35152   9.234  10.190  16.845  0.1839  0.0011  0.0742
18305W        W35153   0.951  13.140   1.154 -0.1064  0.0330  0.1598
18306W        W35154  13.671  16.691   3.075 -0.1105  0.0192 -0.2420
18307W        W35155   1.733   3.248   3.723 -0.0325  0.4540  0.1138
18308W        W35156   0.193   1.494   6.698 -0.1525  0.1683 -0.0303
18309W        W35157   4.267   5.124   0.150 -0.2103  0.1800 -0.1328
18310W        W35158   5.732  12.277   6.603  0.2487 -0.1036 -0.1815
18311W        W35159   9.721  11.076  16.743  0.0024  0.0285  0.0219
18312W        W35160   4.578   2.204   0.645 -0.2584  0.4587  0.0466
18313W        W35161   7.959  15.801   1.458 -0.1126  0.1895 -0.3252
18314W        W35162   4.585  13.539  12.382 -0.0096 -0.0759 -0.2072
18315W        W35163  16.045  11.350  13.497  0.1062 -0.1938  0.5044
18316W        W35164   5.479  14.846   3.619 -0.1429  0.1776  0.2488
18317W        W35165   6.494   5.502  12.445  0.0373  0.4809 -0.1567
18318W        W35166  12.583  17.037  13.211 -0.3576  0.1152 -0.0045
18319W        W35167  14.288   9.277   0.923  0.0282  0.1434  0.2013
18320W        W35168   4.012  11.303   3.056  0.5066 -0.0524  0.0847
18321W        W35169   7.953   8.229   1.657 -0.0493  0.0471  0.1928
18322W        W35170   6.514  13.024  14.371 -0.2274 -0.0914  0.1333
18323W        W35171   9.386   9.550   1.301 -0.0284 -0.1676  0.2523
18324W        W35172  13.558  15.032  17.036  0.1106 -0.2518 -0.0766
18325W        W35173   0.219   9.325  12.431  0.0723  0.0644  0.1426
18326W        W35174  15.059  14.511  13.293  0.0325 -0.0389  0.0296
18327W        W35175   1.867  13.270  16.774 -0.1557  0.2487 -0.1664
18328W        W35176   3.437  11.419  14.593 -0.1513  0.0557 -0.0815
18329W        W35177   7.471   8.583   3.262 -0.0996 -0.1130  0.0772
18330W        W35178   1.228  11.738  13.640  0.3094 -0.0035  0.0671
18331W        W35179  13.497   9.285  17.312  0.1793 -0.0053 -0.1011
18332W        W35180   0.622   4.614  15.038  0.0146  0.0777  0.2408
18333W        W35181   7.620   9.442  15.592 -0.1237 -0.1314  0.0774
18334W        W35182   8.027  11.280   2.417 -0.0742  0.0962  0.4203
18335W        W35183  16.418  10.438  11.837  0.0049 -0.3091  0.0362
18336W        W35184   4.585  14.003  14.631 -0.1109 -0.1225 -0.2933
18337W        W35185   0.963   1.083   3.366  0.1039  0.1255 -0.3104
18338W        W35186   9.635   1.665   0.736 -0.0775  0.0489  0.0031
18339W        W35187  15.129  12.064   4.736 -0.2159 -0.2199  0.0278
18340W        W35188   1.838   1.729   1.299  0.1792 -0.0697 -0.2629
18341W        W35189  12.692   4.677  14.252 -0.0604 -0.1692  0.1727
18342W        W35190   1.291   8.696  17.013  0.0815 -0.2994  0.3905
18343W        W35191   0.564  15.727  15.579  0.1754  0.0252 -0.2017
18344W        W35192   4.422  14.069  17.753 -0.0117  0.0459  0.0554
18345W        W35193   5.165   3.179  14.453 -0.2385  0.3207  0.2444
18346W        W35194   5.382   8.092  15.096 -0.1711  0.1526  0.1971
18347W        W35195  16.628   6.992   3.678  0.0725 -0.2249 -0.0324
18348W        W35196  16.430   9.924   1.964 -0.2656 -0.0021  0.1146
18349W        W35197   5.984  17.055  14.670  0.0570 -0.0046  0.2140
18350W        W35198   4.982  10.943   3.438 -0.1348 -0.3833 -0.0704
18351W        W35199  12.549   5.167  16.626  0.2527  0.0152 -0.2046
18352W        W35200  16.967   3.266   0.556 -0.0220 -0.0479 -0.3242
18353W        W35201   4.746   9.656  12.456 -0.2354  0.0076 -0.1554
18354W        W35202  11.987   9.464  12.111  0.3369 -0.1862 -0.3314
18355W        W35203   9.618   5.898  14.220  0.0521 -0.1861  0.1257
18356W        W35204   7.492   1.033   2.514 -0.0640  0.2246 -0.0670
18357W        W35205  12.593  12.735  17.008  0.0777 -0.2154  0.0469
18358W        W35206  10.187   1.598  17.112  0.1296 -0.1210  0.2539
18359W        W35207   8.468  15.680  13.547  0.0208  0.0879 -0.1602
18360W        W35208  12.068  10.309   5.298  0.2753  0.1033 -0.0634
18361W        W35209   4.038   0.318   3.274 -0.0852  0.2014 -0.1927
18362W        W35210  11.296   4.537   5.188  0.1186  0.2448  0.1906
18363W        W35211  11.072   0.471  15.524 -0.1480 -0.1172  0.0222
18364W        W35212  10.964   0.453  14.086 -0.2234  0.0489  0.2343
18365W        W35213  13.630   2.372  13.588  0.1704  0.0741 -0.0974
18366W        W35214   5.888   2.461  14.038  0.1417 -0.0157 -0.2726
18367W        W35215   1.663  12.082  15.835  0.0136  0.3365 -0.1753
18368W        W35216  12.089  10.666   4.422  0.0773  0.1717 -0.0796
18369W        W35217  10.040   8.111  14.861 -0.1162 -0.1994  0.0155
18370W        W35218   9.428  15.289   4.216 -0.2774  0.2021 -0.0036
18371W        W35219  12.959   9.816  12.143  0.1384 -0.0503 -0.1630
18372W        W35220   2.213  12.447  12.420  0.0949  0.1392  0.0540
18373W        W35221   0.852   3.218   0.675  0.3495 -0.1823 -0.1261
18374W        W35222   6.191   0.087   5.170 -0.0664  0.0670 -0.2111
18375W        W35223   7.946   4.061  14.127 -0.2514 -0.1262  0.0115
18376W        W35224   3.927   6.891  15.129  0.0653 -0.0968  0.0782
18377W        W35225  10.388  15.468  17.569 -0.1250  0.0157 -0.1510
18378W        W35226   8.637   5.182  16.198 -0.0963  0.2690  0.3466
18379W        W35227  16.821  16.244   2.989 -0.0977 -0.1160  0.1225
18380W        W35228   9.564   9.779  17.608  0.4350 -0.1701 -0.0197
18381W        W35229   4.891  12.004   3.571 -0.1444  0.1823 -0.0136
18382W        W35230  11.827  10.111  14.028 -0.0983  0.2332  0.2145
18383W        W35231  11.118   5.223  12.656  0.0006  0.0169 -0.2242
18384W        W35232   1.697   1.569  15.952 -0.1676 -0.0722 -0.2625
18385W        W35233  16.854  14.810  16.947 -0.1183  0.0864  0.0371
18386W        W35234  15.015  10.956  12.676 -0.1168 -0.3891 -0.2719
18387W        W35235  16.766  16.575  14.909  0.1880 -0.2059  0.3114
18388W        W35236   6.460   3.292  12.657  0.2160 -0.0514 -0.0379
18389W        W35237  14.144   7.989  16.251  0.2793 -0.3504  0.0495
18390W        W35238  15.014  14.876  16.120 -0.3632  0.1210 -0.2902
18391W        W35239   6.009  17.096  11.419 -0.1498 -0.0549  0.2134
18392W        W35240   4.013   5.452  16.094 -0.1028 -0.1710 -0.0623
18393W        W35241  14.927   5.081   5.041  0.1634  0.0035  0.2076
18394W        W35242   4.223   9.896  12.707 -0.0128 -0.0584 -0.3717
18395W        W35243   5.832   1.910  16.645 -0.1755  0.1058  0.0488
18396W        W35244   7.976  10.401  17.426 -0.0218  0.1597  0.2270
18397W        W35245  15.573   2.017   2.000 -0.0396  0.3978 -0.2197
18398W        W35246   3.021   6.523   4.020 -0.1767  0.1846  0.1124
18399W        W35247   6.141  12.101   5.581  0.1396 -0.0264 -0.1838
18400W        W35248   3.756  13.240  13.309  0.1263 -0.0621  0.1074
18401W        W35249   9.474   6.624   1.724  0.0940 -0.1112  0.0233
18402W        W35250   4.929   1.908   0.823 -0.1632  0.0719  0.1011
18403W        W35251  13.659   2.544   3.729 -0.0280 -0.1181  0.1798
18404W        W35252   5.556   3.758   0.741  0.3115 -0.0631 -0.1376
18405W        W35253   2.525   5.064  16.076  0.1192  0.1326  0.1157
18406W        W35254  12.024  12.982   1.671  0.2079 -0.1255 -0.0281
18407W        W35255   9.384   0.978   0.938 -0.0571  0.2221 -0.0348
18408W        W35256   7.824   9.721  17.111  0.1366 -0.1316 -0.0124
18409W        W35257  11.934   4.462  14.646 -0.0042  0.2618 -0.0727
18410W        W35258  10.123   3.664   3.625  0.0142  0.0772 -0.0736
18411W        W35259  16.937   7.158   0.630 -0.2042 -0.0239  0.4728
18412W        W35260  13.739  12.754  16.928  0.2938 -0.2127  0.0168
18413W        W35261  11.171   4.821   2.871 -0.1028  0.2007  0.1320
18414W        W35262  15.937  14.627  12.759 -0.0868 -0.2614  0.0796
18415W        W35263   3.908   8.512   5.410 -0.0827 -0.0910  0.4267
18416W        W35264   5.779   8.449  15.575  0.2996 -0.0978  0.0631
18417W        W35265  12.149   5.457   3.424 -0.0468 -0.1543 -0.2158
18418W        W35266   8.693   9.464   1.238 -0.1677 -0.2981  0.0057
18419W        W35267   8.600   2.890  16.415  0.4377 -0.0444  0.1675
18420W        W35268  11.873   0.581  12.958  0.1820  0.2565 -0.0866
18421W        W35269  12.782  12.253   4.407 -0.3504 -0.1651  0.0623
18422W        W35270  15.438  13.761   4.496 -0.2353 -0.0235 -0.2330
18423W        W35271  15.472   1.385  14.015 -0.1812 -0.0236 -0.2049
18424W        W35272   7.891  14.790  12.894 -0.0519  0.2124  0.1463
18425W        W35273  10.966   1.580   2.412 -0.0425  0.2099 -0.2891
18426W        W35274   4.136   2.356   2.085 -0.2374 -0.0146 -0.1621
18427W        W35275  12.615   9.130  12.741  0.0476 -0.2525 -0.2036
18428W        W35276  12.549  12.708  17.511 -0.0950  0.0966  0.2165
18429W        W35277   1.577  14.549   1.614  0.0977  0.0254  0.1388
18430W        W35278   1.080  16.927  15.154 -0.2334  0.1587 -0.0844
18431W        W35279  10.598   1.214   2.417  0.0960 -0.0744  0.0527
18432W        W35280  16.465  14.153   4.444  0.0269 -0.0158 -0.0896
18433W        W35281   3.168  12.782  15.893  0.1009 -0.2833  0.0562
18434W        W35282   2.357   4.232   1.076  0.1254  0.0284 -0.4885
18435W        W35283  10.276   2.084   4.074  0.1314  0.0465  0.1055
18436W        W35284   2.660   9.864  15.240  0.0631 -0.1079 -0.0829
18437W        W35285   1.156   3.028   0.352 -0.1333  0.0782  0.1277
18438W        W35286   2.446   7.779  12.665 -0.1469 -0.0886 -0.2423
18439W        W35287   4.806  14.252   3.170 -0.0708 -0.1211  0.0395
18440W        W35288   6.918   0.580   5.651  0.3080 -0.0263 -0.0713
18441W        W35289  12.271  15.700   0.414 -0.2116  0.0509  0.0082
18442W        W35290   4.051  10.410   2.789 -0.0281  0.0123 -0.1616
18443W        W35291   3.541  11.206  15.027  0.4019  0.0712 -0.5088
18444W        W35292   6.059   1.169  12.585 -0.0370 -0.0377  0.1395
18445W        W35293  17.069   7.763   4.997  0.1573  0.1650 -0.1073
18446W        W35294  12.155  11.773   1.621  0.1031 -0.0605  0.2312
18447W        W35295   7.971   7.220   4.311 -0.1000  0.1623 -0.2786
18448W        W35296   1.110  10.804   0.337  0.0819 -0.2464 -0.2347
18449W        W35297   8.206  10.150  11.969 -0.0557 -0.0538 -0.0338
18450W        W35298   0.855  16.695   4.722 -0.0937 -0.1817  0.1216
18451W        W35299   5.744   3.265   0.926 -0.1955  0.1031 -0.0949
18452W        W35300   9.520   5.159   3.794 -0.0181 -0.0209  0.0336
18453W        W35301   8.158   0.885  12.049 -0.1645  0.2448  0.3006
18454W        W35302   8.494   7.293   3.492  0.2327  0.0239  0.1320
18455W        W35303  16.043  13.183  15.542 -0.0421 -0.0055  0.0550
18456W        W35304   2.565  16.126   3.220 -0.1081 -0.1281 -0.2174
18457W        W35305   3.747   1.425  14.112  0.0068 -0.0557 -0.2341
18458W        W35306   0.030   6.968   1.520  0.2890 -0.1507  0.0756
18459W        W35307   8.437   1.959   1.100  0.0774  0.3137 -0.0347
18460W        W35308   8.706   6.325   5.537 -0.1256 -0.0616 -0.0196
18461W        W35309  15.981   8.495   4.846  0.1032  0.0190 -0.2664
18462W        W35310   1.813   6.264  17.300 -0.1088 -0.5054 -0.0001
18463W        W35311   4.178   1.218   3.754 -0.4201  0.2278 -0.0608
18464W        W35312   3.376   8.979   5.937  0.0214 -0.0178 -0.1114
18465W        W35313   7.202   5.858   2.234  0.1817 -0.2155 -0.1628
18466W        W35314   5.846   3.587  15.515 -0.2688 -0.0143  0.0210
18467W        W35315   5.223   3.300   4.596  0.0748 -0.1815  0.1426
18468W        W35316   4.905   0.173  12.344  0.2083  0.0603 -0.1450
18469W        W35317  12.763   9.662   5.338  0.0367  0.2819  0.0239
18470W        W35318   2.516   6.514  14.712  0.0502  0.2175  0.1586
18471W        W35319  15.192  15.545  17.301 -0.5380  0.1734  0.1672
18472W        W35320   4.258   4.289   5.561  0.0813  0.0706 -0.0678
18473W        W35321   6.045   8.198  12.935 -0.1379  0.3068 -0.1222
18474W        W35322  11.370   7.033   4.996  0.2240 -0.1744  0.1518
18475W        W35323   6.298   0.662   0.542 -0.2066  0.0726 -0.3623
18476W        W35324  16.186  14.968  13.533  0.2145  0.0996 -0.1076
18477W        W35325   1.709  12.792   1.123  0.0508  0.3672  0.2080
18478W        W35326  17.006  10.447   4.314  0.1250  0.0196  0.0368
18479W        W35327   9.615   2.101  16.680  0.0603 -0.0502 -0.4001
18480W        W35328   6.474  14.471   0.128  0.0747 -0.1805  0.0721
18481W        W35329  15.805  14.350   1.888  0.0080 -0.2096  0.2144
18482W        W35330   9.814  10.147  13.689  0.0378  0.0622 -0.1501
18483W        W35331  12.916   6.012  16.472 -0.1594  0.0480  0.0784
18484W        W35332   0.656   8.187   0.131 -0.1398  0.1570  0.0367
18485W        W35333   4.437  14.207  16.372  0.1556  0.2008 -0.1291
18486W        W35334   0.913   1.788   6.023 -0.1327  0.0374  0.1023
18487W        W35335  14.539  13.684   2.542  0.1288 -0.1315  0.1456
18488W        W35336   9.550   5.240   3.139 -0.0665 -0.2237 -0.2832
18489W        W35337  15.019   5.509   4.737  0.3393  0.0105  0.0522
18490W        W35338   5.877  12.874   3.706  0.0355 -0.0094  0.0225
18491W        W35339  16.389   0.883   1.470 -0.3839  0.0005  0.3296
18492W        W35340   6.902   2.983   0.053 -0.2938  0.2630  0.2774
18493W        W35341   1.753  13.470  14.878  0.0142 -0.1577 -0.3126
18494W        W35342   7.691   1.505  15.015 -0.1213  0.3803 -0.1123
18495W        W35343  12.010   6.169  12.637  0.1544  0.2092 -0.0325
18496W        W35344  15.439   6.974  15.849  0.2246 -0.1166 -0.2217
18497W        W35345  13.947  12.034  15.157  0.0688  0.2457  0.2068
18498W        W35346  10.863   1.521   0.202 -0.1707 -0.0306  0.0437
18499W        W35347   6.559   5.724  13.907  0.1899 -0.0333  0.0122
18500W        W35348   5.171   1.399   1.162  0.1729 -0.2731 -0.0405
18501W        W35349   1.273   0.067  13.194  0.0040 -0.0874 -0.0003
18502W        W35350   5.322   8.845  12.368 -0.1616 -0.0719 -0.0315
18503W        W35351  14.166   7.746  14.439 -0.1981  0.0560  0.0416
18504W        W35352   9.944   1.314   0.836 -0.0506  0.2644 -0.1046
18505W        W35353   2.023   4.955   5.717 -0.1894  0.4216 -0.1348
18506W        W35354   9.787  13.547  12.180  0.1066 -0.3049  0.0169
18507W        W35355  16.746  15.787   1.633 -0.1257 -0.0617  0.1313
18508W        W35356   8.705   5.331   2.062  0.1051  0.2441 -0.1258
18509W        W35357  12.274   8.572   1.632 -0.1661 -0.0698 -0.1058
18510W        W35358   8.670   1.540   2.724 -0.1200 -0.1064  0.1293
18511W        W35359   7.200   8.500  12.243 -0.0792 -0.0850 -0.4243
18512W        W35360   6.647  10.419  15.156  0.0913  0.1264 -0.0258
18513W        W35361  11.263   9.393  14.612 -0.0433  0.0841  0.0913
18514W        W35362   7.605  10.412  12.782  0.3853 -0.0460 -0.0163
18515W        W35363   0.143  10.322   5.272 -0.3434 -0.0275  0.2419
18516W        W35364  16.299  13.314   5.450 -0.1640  0.0081  0.2222
18517W        W35365  12.077   0.405   0.298  0.0395  0.1578 -0.1467
18518W        W35366   3.894   3.805  13.012  0.1039  0.2568  0.0892
18519W        W35367   2.997   8.518   4.114  0.2446 -0.2663 -0.1826
18520W        W35368  11.753   7.089   0.548  0.0894 -0.0551  0.0065
18521W        W35369   7.628   6.122  13.355 -0.1763  0.1262  0.0109
18522W        W35370  13.146   9.878  16.081  0.1097 -0.0005 -0.1961
18523W        W35371  12.749   8.066   2.129 -0.2436 -0.2624 -0.1985
18524W        W35372   7.182   9.466  14.883  0.2101 -0.0035  0.0965
18525W        W35373   3.616   5.189   0.966 -0.1032 -0.1988 -0.1276
18526W        W35374   4.579  11.890   1.981  0.1071 -0.0553  0.1559
18527W        W35375  15.840   2.394  14.906 -0.3023 -0.3303  0.2657
18528W        W35376   8.632  12.788   0.771 -0.3696  0.0636 -0.0613
18529W        W35377   4.849   4.712  16.209 -0.3176 -0.0438 -0.1632
18530W        W35378   3.040  16.246  15.635 -0.0315 -0.0346 -0.2727
18531W        W35379   6.656   7.451   3.708 -0.0298 -0.3006 -0.1881
18532W        W35380   8.631   9.388  14.344  0.1580 -0.1176  0.0172
18533W        W35381   1.016  13.381  16.832 -0.1926  0.0052  0.0481
18534W        W35382   2.029  15.948  13.530  0.2548 -0.0749  0.1427
18535W        W35383   6.028   0.411  17.300  0.4443  0.3314  0.0498
18536W        W35384   9.250  10.538  12.796  0.0208 -0.0932 -0.2044
18537W        W35385  14.420   5.379  14.047  0.2783 -0.0177 -0.0449
18538W        W35386  15.949  13.793  16.926 -0.1802 -0.0599 -0.1824
18539W        W35387   0.015  14.226  13.415 -0.1303  0.0106 -0.1509
18540W        W35388   1.987   2.435  15.051 -0.0791 -0.0202  0.1404
18541W        W35389  12.027   1.462  15.051  0.1912  0.0739  0.4634
18542W        W35390  12.964  15.349  13.929 -0.0108  0.3545 -0.1741
18543W        W35391  13.244   6.155   5.995  0.2406  0.0529  0.1067
18544W        W35392   9.802  11.987   2.996 -0.1042  0.0867  0.3668
18545W        W35393   3.828  13.012  13.721  0.3455 -0.1836  0.0987
18546W        W35394  12.577   2.479  14.809  0.0600  0.0636  0.1215
18547W        W35395  12.492  12.473   1.113 -0.3175 -0.0453 -0.0804
18548W        W35396   8.675   1.925  16.585 -0.0799  0.0094  0.0834
18549W        W35397  13.806  13.571   2.313 -0.1982  0.1263 -0.1806
18550W        W35398  13.214   4.638  17.474  0.0054  0.0571  0.0387
18551W        W35399   8.000  15.335   5.235  0.1653  0.2236  0.2476
18552W        W35400   8.893   6.674   3.337  0.0098  0.4238  0.1066
18553W        W35401  16.886   0.583   5.247  0.2249  0.3513  0.1084
18554W        W35402   9.118  11.104   1.236 -0.0955  0.0009  0.0464
18555W        W35403   2.156  10.501  17.287 -0.1010  0.0946 -0.2958
18556W        W35404   5.424  15.941  15.322  0.0084 -0.1174  0.0545
18557W        W35405   6.326   6.425   4.760  0.3400 -0.2437  0.0178
18558W        W35406   9.900  10.480   4.935 -0.3516 -0.1853  0.0874
18559W        W35407   4.283  10.601  14.864 -0.0880 -0.2510  0.0959
18560W        W35408  15.987   9.560  13.801  0.1397 -0.2995 -0.0397
18561W        W35409  15.303  16.728   1.440  0.0900  0.5609  0.1303
18562W        W35410   2.106   9.057  15.024 -0.0310  0.1353  0.3590
18563W        W35411  12.046   0.947   0.174  0.0626 -0.0278 -0.1719
18564W        W35412   7.942   3.117  15.519  0.4275  0.2524  0.0134
18565W        W35413  15.016   3.183   3.547 -0.0379  0.2379  0.4133
18566W        W35414   8.802   9.312  16.333  0.0504  0.1415  0.0599
18567W        W35415  12.433   0.706   2.544  0.1657  0.1372 -0.1659
18568W        W35416  12.696  10.022   1.053 -0.0730 -0.1812 -0.2270
18569W        W35417  12.141  12.793   2.717  0.1271 -0.0205  0.0046
18570W        W35418  13.661  15.068  17.609  0.0598 -0.0099  0.0165
18571W        W35419   0.494   9.474  15.910 -0.0314 -0.0225 -0.2445
18572W        W35420   6.176   8.438   1.006 -0.0291 -0.2065 -0.2284
18573W        W35421   6.076  12.272  15.880  0.0299 -0.2276 -0.1036
18574W        W35422  13.823  12.873  15.714  0.3801  0.2298 -0.3126
18575W        W35423   6.464   0.112  14.617  0.0654 -0.4820 -0.3080
18576W        W35424   2.052   2.913  17.063 -0.0467 -0.1252 -0.0512
18577W        W35425   3.598  11.590  16.848  0.0596  0.0607 -0.2232
18578W        W35426   8.573   1.202  11.779  0.1904  0.0249  0.1567
18579W        W35427   2.527   2.191  13.470 -0.0370  0.1541 -0.3269
18580W        W35428  12.605  11.076   0.754 -0.0856 -0.2096 -0.0556
18581W        W35429  10.833   1.403  13.251 -0.0620  0.0856  0.0338
18582W        W35430  10.136   3.822   2.332  0.1685  0.0172 -0.0371
18583W        W35431   7.371  13.594  16.592 -0.0774  0.1114  0.3190
18584W        W35432  15.249   8.059   3.556 -0.0431  0.0484 -0.0611
18585W        W35433  15.753   5.637  14.157 -0.1410 -0.1116  0.0758
18586W        W35434  13.140   3.491  13.534  0.0218 -0.2059  0.0228
18587W        W35435  12.449   2.513   1.804  0.1432 -0.0189  0.0152
18588W        W35436   6.734   6.082   3.356  0.1183  0.0224  0.1560
18589W        W35437  12.889   4.056  13.094 -0.0688 -0.0020  0.1601
18590W        W35438  15.499   1.695   3.950  0.0727  0.3473 -0.3625
18591W        W35439   9.766   4.662   5.135  0.0537  0.1864  0.1596
18592W        W35440  13.818  11.300   3.612  0.0772 -0.0615 -0.0262
18593W        W35441   1.008   2.683   5.237  0.2545  0.1831  0.0378
18594W        W35442   3.439   4.194   4.434  0.0326  0.2766  0.0255
18595W        W35443  15.345   7.567   3.424 -0.1252  0.0044 -0.2363
18596W        W35444  13.990   1.978  13.682  0.2402 -0.0888 -0.0118
18597W        W35445  13.980  11.464   2.757 -0.1458  0.4706 -0.3258
18598W        W35446   4.255  15.334  15.797 -0.1550  0.0848 -0.1193
18599W        W35447  14.182  13.074  12.177 -0.0763 -0.0883  0.2582
18600W        W35448  14.686   4.311   0.777 -0.0384 -0.1654 -0.0632
18601W        W35449   7.478   7.835   5.130 -0.0827 -0.0050  0.0829
18602W        W35450   6.291   3.749   2.182 -0.1155  0.1585  0.2377
18603W        W35451  11.761  16.276  14.682  0.0895  0.1599  0.0995
18604W        W35452  11.025  16.875   3.726  0.3586  0.0327 -0.0460
18605W        W35453   5.207   5.291   1.750  0.0300  0.0259  0.3244
18606W        W35454   7.069   5.987  12.654 -0.0337 -0.2403 -0.1864
18607W        W35455   8.501  10.619  15.212 -0.0758 -0.1298 -0.3788
18608W        W35456   3.174   0.148   3.296 -0.4210  0.3527  0.4906
18609W        W35457   9.399  15.771   1.670 -0.0247  0.2538  0.1065
18610W        W35458   0.617   5.344   1.110  0.3644 -0.0724 -0.2186
18611W        W35459   1.154  16.738   1.571  0.0300  0.1354 -0.0971
18612W        W35460   7.149   9.096  15.575 -0.0614  0.0429 -0.4210
18613W        W35461   0.118   3.424   0.131  0.0617  0.0075  0.0688
18614W        W35462   2.037   4.291  12.543 -0.0544 -0.0724  0.0507
18615W        W35463   0.942   1.549   1.753 -0.0916  0.1053 -0.0885
18616W        W35464  16.216  15.046   0.265  0.0668 -0.0497 -0.1582
18617W        W35465   3.385  16.650   6.516 -0.1726  0.2077  0.1856
18618W        W35466   1.823   2.624   1.596 -0.1731 -0.2268 -0.1381
18619W        W35467  11.499   7.451  16.474  0.1025 -0.0042  0.0922
18620W        W35468  14.820   1.454   0.995 -0.0209 -0.2621  0.1514
18621W        W35469  11.558   6.007   4.558 -0.1448  0.1791 -0.1874
18622W        W35470  13.185   3.098  13.150  0.2755 -0.0594  0.2385
18623W        W35471  16.175   7.926  15.341 -0.0441 -0.0523  0.2786
18624W        W35472  14.965  11.660  17.076  0.1071 -0.0151  0.1139
18625W        W35473  10.298  16.525   3.778  0.0475  0.0062  0.3681
18626W        W35474   7.642  11.468  12.941 -0.0499 -0.1060 -0.2176
18627W        W35475   3.639   8.449  13.051 -0.3227  0.2071  0.0791
18628W        W35476   3.856  16.965  15.292 -0.1416 -0.2383 -0.2265
18629W        W35477  12.001  11.243   3.002  0.1451  0.1548  0.2018
18630W        W35478   5.806  17.044  13.607 -0.3260 -0.0586 -0.2739
18631W        W35479  14.171  16.519   2.943 -0.0773  0.0019 -0.1599
18632W        W35480  14.995  10.085  17.365 -0.0653  0.1081  0.0875
18633W        W35481   9.908  10.750   4.500  0.0686 -0.2171  0.3783
18634W        W35482   4.798   2.410   5.875  0.5883 -0.0327 -0.0860
18635W        W35483   2.386  17.151  14.137  0.2492 -0.3312 -0.2664
18636W        W35484   6.515  14.758   3.850  0.0553 -0.0098 -0.0263
18637W        W35485   8.295   4.953  12.570 -0.0642 -0.2823 -0.1610
18638W        W35486   0.223  12.552   5.128 -0.0239 -0.0299 -0.3163
18639W        W35487   7.665   7.375   3.710 -0.0938 -0.4429 -0.0943
18640W        W35488   4.625   0.062  15.497 -0.1487 -0.1598  0.1998
18641W        W35489  11.798   1.097   1.505 -0.3373  0.0736 -0.2447
18642W        W35490  15.668   6.486  13.900  0.0949  0.1331  0.1133
18643W        W35491  12.127   9.915  17.628 -0.3349  0.0909 -0.0600
18644W        W35492  17.018   8.624   1.355  0.0086 -0.1307 -0.1620
18645W        W35493  16.024   2.884  15.118 -0.0027 -0.2216  0.1272
18646W        W35494   9.472  13.166  12.877 -0.1361 -0.0881 -0.0804
18647W        W35495  12.538   0.095   1.553  0.1063  0.0057  0.3296
18648W        W35496   3.396  10.685  15.139 -0.0747 -0.1315  0.1667
18649W        W35497   1.163   1.456   5.768  0.1650 -0.0511 -0.0491
18650W        W35498  16.668   9.728   4.811 -0.1544  0.0707  0.2681
18651W        W35499  10.576  11.100   2.446  0.2203  0.0930  0.1709
18652W        W35500   3.794  10.927   1.187 -0.0474  0.2457 -0.1880
18653W        W35501  11.815  13.835   3.453  0.2518  0.2843  0.0043
18654W        W35502  12.096   2.707  11.238 -0.0129 -0.0096 -0.3142
18655W        W35503   1.610   8.960   4.391 -0.4213 -0.2273 -0.1421
18656W        W35504   2.525   9.960  13.342  0.1645  0.3340  0.0712
18657W        W35505   5.355  12.786   3.926  0.0248 -0.2955  0.1898
18658W        W35506  10.362  17.063  12.894 -0.1241  0.1839  0.1516
18659W        W35507   6.485  10.394  14.021 -0.0046  0.2512 -0.2030
18660W        W35508  16.360   3.658  12.878 -0.0544  0.0814 -0.0884
18661W        W35509   5.915  12.653  16.972 -0.0119 -0.1563  0.1315
18662W        W35510  15.088   5.026   4.578  0.0663  0.1949  0.0211
18663W        W35511  13.817   4.455   3.215 -0.0640  0.0861  0.1072
18664W        W35512   3.009   6.143  13.975 -0.1019 -0.2721  0.0699
18665W        W35513  12.204  16.907   1.368  0.0368  0.4742  0.1186
18666W        W35514   0.617   3.341   5.572 -0.1087 -0.2346  0.1262
18667W        W35515   6.526   0.318  17.116  0.0180  0.0294 -0.1633
18668W        W35516  14.268  12.657   2.178 -0.1417 -0.1124 -0.0242
18669W        W35517   0.382   4.427  13.115 -0.1668 -0.0992  0.0412
18670W        W35518   6.103  16.831  13.178 -0.1658  0.2233 -0.2093
18671W        W35519  13.296  15.109   3.803  0.3272 -0.1862  0.1857
18672W        W35520  11.559   0.434   0.438  0.0260  0.1959  0.2249
18673W        W35521   4.688  15.487   4.099  0.0333 -0.2034  0.0474
18674W        W35522  15.669   1.590  14.450 -0.0359  0.0083  0.0502
18675W        W35523   7.068  10.775   1.129  0.2817  0.0136  0.1416
18676W        W35524   5.094   6.800  17.094 -0.3678  0.2585  0.1372
18677W        W35525   2.810   5.062   4.599 -0.1934  0.1577 -0.0098
18678W        W35526  16.446   1.827   2.370 -0.2467 -0.3840 -0.0244
18679W        W35527  10.552   6.037  12.092  0.0343 -0.1987 -0.1348
18680W        W35528  16.925   5.195  17.708 -0.2990  0.0464 -0.0413
18681W        W35529   5.905   2.759  12.557  0.1041  0.0735  0.1899
18682W        W35530  14.511   5.156   0.662  0.0289 -0.0138  0.3294
18683W        W35531  15.381   9.509  14.639 -0.0723  0.0613  0.1321
18684W        W35532  16.571  10.191  17.334 -0.0437 -0.3093 -0.0405
18685W        W35533  12.806   2.252  13.001  0.2459  0.1891  0.1779
18686W        W35534   3.155   7.871   0.421 -0.0666 -0.2323 -0.1083
18687W        W35535  10.671   4.067   4.643 -0.1675  0.1951  0.0696
18688W        W35536   1.178  14.544  14.818  0.2179 -0.1716 -0.0461
18689W        W35537   2.753   8.851  16.061 -0.1469  0.1868  0.2056
18690W        W35538   3.229   1.593   2.237 -0.1583 -0.0676  0.1451
18691W        W35539  12.449   3.853   1.396 -0.1003  0.3306  0.1513
18692W        W35540   9.262   8.647  14.048  0.1988  0.0180 -0.1092
18693W        W35541   5.754   3.990   1.530 -0.0002  0.2309  0.1885
18694W        W35542   6.271   7.594   3.977 -0.1372 -0.1224 -0.2110
18695W        W35543   2.023   9.140  15.794 -0.2959  0.1393  0.0751
18696W        W35544   5.866  11.055  15.314  0.1649  0.3393 -0.3006
18697W        W35545  12.148   1.969  12.604 -0.0957  0.2692 -0.1437
18698W        W35546  12.235   1.727   3.669 -0.1101 -0.0790  0.1291
18699W        W35547   5.306  16.523   5.861  0.0080 -0.1957  0.1179
18700W        W35548   0.624   7.547  16.069  0.0756 -0.0543 -0.1125
18701W        W35549   8.799   6.885  12.295  0.0353 -0.0794 -0.1799
18702W        W35550   5.573   4.589  16.609  0.0866 -0.1267 -0.1973
18703W        W35551  14.350   5.050   5.228  0.0484 -0.2340  0.2545
18704W        W35552  14.199   1.668   3.275  0.0951 -0.1169  0.0128
18705W        W35553   0.091   0.328   5.468  0.0826 -0.4341  0.1360
18706W        W35554   3.384   4.259   1.859 -0.1124 -0.0454 -0.2477
18707W        W35555   6.729  15.477  16.881  0.0985  0.0154  0.3021
18708W        W35556  10.745  11.426  17.012 -0.0746  0.0838 -0.0163
18709W        W35557   4.630   5.756   2.244  0.1073 -0.0098 -0.3183
18710W        W35558   7.808  10.821  14.545 -0.2870 -0.1586  0.2695
18711W        W35559   6.765  15.088  15.427  0.0105  0.1755  0.1512
18712W        W35560  10.086   8.291   2.919 -0.0919 -0.0943  0.0177
18713W        W35561  16.654   3.633   2.793 -0.2941 -0.0772 -0.4602
18714W        W35562  15.454   7.045  13.262 -0.2668 -0.1358  0.2191
18715W        W35563  10.085   2.738  12.013  0.0400  0.0031 -0.0872
18716W        W35564   1.248   4.332  14.306 -0.0496 -0.2212  0.0547
18717W        W35565   4.933  15.161   5.328 -0.1470  0.2363 -0.1007
18718W        W35566  13.596   3.831  15.369  0.0416 -0.2088 -0.0926
18719W        W35567   3.722  16.526   2.433  0.1817 -0.1381 -0.0359
18720W        W35568   1.898   1.721  16.666  0.1060  0.0593  0.0202
18721W        W35569   0.788  15.609   2.454 -0.6000  0.1877  0.0081
18722W        W35570   1.315  14.314   6.026  0.3870 -0.2358 -0.1317
18723W        W35571  12.603   1.350   0.298 -0.0780 -0.0602  0.2088
18724W        W35572   2.856  16.049   0.842  0.2123 -0.1711  0.3066
18725W        W35573   6.166   4.688   3.630 -0.0193 -0.2155  0.0563
18726W        W35574   1.317  10.507   2.742 -0.2037  0.1817 -0.0308
18727W        W35575  12.848  13.691  16.894  0.2680 -0.1276 -0.1120
18728W        W35576  12.619   2.273   4.676  0.1684 -0.0911  0.3409
18729W        W35577  13.668   6.896  12.141 -0.1283 -0.0026  0.1326
18730W        W35578   7.411   1.491   4.893 -0.2407 -0.1489 -0.2623
18731W        W35579   1.644   8.579   1.500 -0.0506  0.0250 -0.1267
18732W        W35580   6.765  11.617  12.559  0.2393  0.0042  0.2218
18733W        W35581   9.620   9.159   6.458 -0.2744  0.1736  0.1446
18734W        W35582   6.844  10.582  14.337  0.0987  0.0746  0.0180
18735W        W35583   0.997   8.981   4.135  0.1943 -0.2581  0.0236
18736W        W35584  12.690   4.751   0.532  0.0407  0.2114  0.1347
18737W        W35585   7.998  10.121  14.136 -0.0561  0.1626  0.1505
18738W        W35586   3.310   3.919  13.725  0.2356  0.1939 -0.2541
18739W        W35587   1.052  11.372   5.937 -0.0986  0.1296  0.0856
18740W        W35588  11.336   4.294   1.584  0.1227 -0.0535 -0.3494
18741W        W35589   7.667  11.469  12.419 -0.1888 -0.0875 -0.3460
18742W        W35590  13.392   7.048  14.578 -0.1401 -0.1507  0.0204
18743W        W35591  13.792   5.256  17.281 -0.1120  0.0357 -0.4401
18744W        W35592  14.066   1.842  14.174  0.0377  0.1305  0.2143
18745W        W35593   5.951   4.119  15.858  0.1159 -0.1243  0.3480
18746W        W35594  14.115  16.569   4.645 -0.0356 -0.1617 -0.0254
18747W        W35595   3.629   3.969   4.855 -0.2373  0.0512  0.0254
18748W        W35596   5.898   5.341  17.470  0.2608  0.0406  0.1847
18749W        W35597  16.553   8.654   2.923  0.0936 -0.0597 -0.1915
18750W        W35598   3.814   7.562  15.908 -0.1463  0.0797  0.0325
18751W        W35599   2.850   5.598   2.043  0.0783 -0.0139 -0.1600
18752W        W35600   2.173  12.844  17.013  0.1896  0.3101  0.1876
18753W        W35601   2.197  15.690  15.917 -0.0659  0.0301 -0.0079
18754W        W35602  15.360  13.964   4.067  0.0860  0.0695 -0.0448
18755W        W35603   1.442  13.349   1.654 -0.3709  0.0125  0.1129
18756W        W35604   7.612   6.768   2.516  0.0220  0.0160 -0.1272
18757W        W35605  11.915  17.067  17.133 -0.0253  0.2638  0.2676
18758W        W35606  17.105  10.242  13.464 -0.1201  0.0853 -0.0020
18759W        W35607   6.881  12.929  15.754 -0.1123  0.2542  0.0122
18760W        W35608   5.275   0.631   2.065 -0.0806 -0.2253 -0.0668
18761W        W35609  10.991   4.910   4.847  0.1901  0.0978  0.0918
18762W        W35610   3.059   9.671   2.145 -0.0040  0.1445 -0.1839
18763W        W35611  16.534   3.149  12.809 -0.1239 -0.2403  0.1187
18764W        W35612   4.887   7.711  17.538 -0.1426  0.0651 -0.1390
18765W        W35613   3.061   3.203  12.227 -0.1168 -0.3210 -0.0119
18766W        W35614  14.580   8.012   1.973  0.5947  0.0813 -0.0282
18767W        W35615  13.605   7.916  17.466  0.2121 -0.0823  0.1033
18768W        W35616   9.133   2.980   3.172  0.0554 -0.1914 -0.4612
18769W        W35617   9.083  14.244   2.902 -0.0212 -0.0660 -0.0064
18770W        W35618   8.188   1.135  15.252 -0.1029 -0.1245  0.2553
18771W        W35619  13.878   5.591  16.784 -0.0327 -0.1823  0.0973
18772W        W35620   7.087  11.897   1.527  0.0080  0.2254  0.2087
18773W        W35621   6.607   5.324  13.644  0.1483 -0.1504  0.0011
18774W        W35622  14.933  16.262   5.623 -0.2455 -0.0502  0.0259
18775W        W35623   4.438   9.914  14.215  0.1525 -0.5941 -0.1528
18776W        W35624  12.246  16.910  17.540  0.0243  0.2065  0.0159
18777W        W35625   2.722   0.571   2.610 -0.0809 -0.3175  0.1816
18778W        W35626  10.662  14.045  13.453  0.0290  0.1275 -0.2078
18779W        W35627   1.862  16.719   6.367  0.0637  0.0565  0.0654
18780W        W35628  15.574   5.520   3.941  0.0696 -0.1597 -0.2506
18781W        W35629  10.583   8.833   3.548  0.3363 -0.0939 -0.1853
18782W        W35630  16.938   5.439   0.496  0.1252  0.1796  0.1213
18783W        W35631  14.157  13.937   2.368  0.1998  0.0462 -0.0665
18784W        W35632   8.932   5.873  12.312 -0.2812 -0.3694 -0.4022
18785W        W35633  16.394  12.481  16.117 -0.0127 -0.1500 -0.0946
18786W        W35634  16.965   6.085  15.934  0.0590 -0.0344  0.0210
18787W        W35635   5.500   7.129  17.069  0.0823 -0.1382 -0.1187
18788W        W35636  13.602   0.105   3.842  0.0346 -0.2260  0.0109
18789W        W35637  15.236  12.949   5.957  0.1030 -0.0401  0.0332
18790W        W35638  11.643   3.341  16.609 -0.0726 -0.0896  0.0548
18791W        W35639   6.399  11.352   5.643  0.2687 -0.0463  0.2374
18792W        W35640   3.322  16.643   2.120  0.1888  0.2435  0.4116
18793W        W35641  15.387   2.429   2.661  0.2147 -0.0485 -0.0444
18794W        W35642  16.350   0.903   1.990  0.2690 -0.1118  0.0931
18795W        W35643   8.589   1.371  13.694 -0.2196 -0.3123  0.0338
18796W        W35644   6.017  16.309  12.988 -0.1927 -0.2379 -0.2219
18797W        W35645   3.264   1.258  14.063  0.1219  0.2587  0.2410
18798W        W35646   9.824   7.773   0.658 -0.0246 -0.3292  0.1710
18799W        W35647  10.208   0.520   5.387 -0.2269 -0.0765 -0.0193
18800W        W35648   4.641   3.576  16.513  0.1753 -0.2699  0.1451
18801W        W35649   0.917  14.112   4.923 -0.2250 -0.0046 -0.0101
18802W        W35650   4.274   2.296  16.046  0.0483 -0.1834  0.1177
18803W        W35651  16.864  12.838  13.340 -0.0237 -0.3730  0.0098
18804W        W35652   0.548   3.304   1.793  0.0402  0.1384 -0.0619
18805W        W35653   3.164   0.329  14.161 -0.2752 -0.1562 -0.0206
18806W        W35654   1.227   4.329   6.541  0.2429  0.0526  0.0818
18807W        W35655   3.614  14.188   5.146 -0.1326 -0.2080  0.0192
18808W        W35656   7.130   8.471   0.503  0.1697  0.2398 -0.1372
18809W        W35657  11.648   1.879  16.322  0.0378  0.0161  0.0926
18810W        W35658   7.511  12.321  15.953  0.1276  0.0245 -0.1544
18811W        W35659  12.728   0.135   1.019  0.2128  0.0569  0.0927
18812W        W35660   5.449  16.669  12.326  0.0538 -0.1866 -0.1316
18813W        W35661  13.895   8.636  11.918 -0.1432  0.2550  0.1064
18814W        W35662  15.262   0.452  15.441  0.3300 -0.0932  0.0709
18815W        W35663   9.848  12.687   3.541  0.1698 -0.3304  0.3649
18816W        W35664  11.909   6.813  15.952 -0.2410 -0.0225  0.3122
18817W        W35665   5.069  14.436  12.630 -0.2907 -0.4827  0.1412
18818W        W35666  11.398  11.116   5.835  0.0682 -0.2254  0.1858
18819W        W35667   3.671  10.210   3.995  0.1829  0.1988  0.2137
18820W        W35668  15.004  13.801  16.717 -0.1049 -0.0497  0.3453
18821W        W35669   8.828  11.793   5.332  0.3409  0.2502  0.1751
18822W        W35670  11.247  14.028   4.748 -0.2821 -0.1691 -0.0524
18823W        W35671   2.287  13.438   1.614  0.0130  0.1017  0.0095
18824W        W35672   4.837   4.074   4.981  0.2736  0.1197 -0.0672
18825W        W35673   9.570   3.862   1.734  0.0259  0.2361  0.2797
18826W        W35674  12.793   6.017   3.626  0.0656 -0.1974  0.0970
18827W        W35675   6.817  14.572  12.600 -0.1154  0.0651  0.0553
18828W        W35676   6.923   4.840   1.747 -0.1250 -0.1279  0.2398
18829W        W35677  10.028   9.283  15.627 -0.0996  0.1657  0.0404
18830W        W35678   8.954  14.629   3.527  0.2229  0.0405 -0.0607
18831W        W35679   5.918   0.748  14.784  0.1274  0.0405  0.0261
18832W        W35680   7.656  15.815  17.142  0.0873  0.0908 -0.0982
18833W        W35681  11.843   6.893   5.282  0.0445 -0.1161 -0.0949
18834W        W35682  14.115  16.891  13.176  0.1026 -0.1920 -0.2379
18835W        W35683   9.188   0.991  17.645 -0.3294 -0.1633  0.3897
18836W        W35684   1.142  10.075   3.549  0.1923  0.1056  0.0821
18837W        W35685   6.597   8.730  13.474  0.3983 -0.0190 -0.1601
18838W        W35686   0.880   3.299   4.658 -0.0075 -0.2432 -0.2737
18839W        W35687   8.014  16.438  13.212  0.0830 -0.0912 -0.0917
18840W        W35688  11.219  11.838  12.726  0.0704  0.0105  0.4520
18841W        W35689   0.203   8.226  15.271  0.1684  0.3218  0.0422
18842W        W35690   8.486   2.811   1.003  0.0798  0.0609  0.0473
18843W        W35691   6.499   6.362   1.077  0.3812 -0.1001 -0.1531
18844W        W35692   7.529  13.937  11.336 -0.0841  0.0952  0.0825
18845W        W35693   6.819   5.890  16.413 -0.1219 -0.1507  0.3044
18846W        W35694   3.978  17.161  16.089 -0.0637  0.3037  0.0908
18847W        W35695  11.334  15.088  11.236  0.2139  0.0186  0.0230
18848W        W35696  14.254   7.131   0.459  0.2812  0.3361 -0.0612
18849W        W35697  14.812  10.341  14.438  0.2550 -0.0519  0.1582
18850W        W35698  15.567   8.491  16.625  0.1887 -0.2103 -0.0451
18851W        W35699  17.127   5.790  13.735  0.1369 -0.2002 -0.0860
18852W        W35700   1.953  12.276   1.261 -0.0047 -0.0201 -0.1231
18853W        W35701  12.444   4.194   3.162  0.0722  0.0264  0.1830
18854W        W35702  10.717   3.818   3.042  0.2574 -0.3912 -0.0980
18855W        W35703  14.307   1.103  16.200 -0.1074 -0.1202  0.0716
18856W        W35704   6.853  15.160  14.954  0.0077  0.4280  0.1249
18857W        W35705   7.700  14.111   6.376 -0.1665 -0.0266 -0.1183
18858W        W35706  12.091   3.988   2.882  0.1009 -0.0704 -0.0145
18859W        W35707   7.820   4.659   3.001  0.1425  0.0246  0.4198
18860W        W35708  15.380   1.780   3.056  0.1362  0.0665 -0.0552
18861W        W35709   7.673   4.467  16.927 -0.0031 -0.2292 -0.0746
18862W        W35710   7.424  14.623   0.026 -0.1111 -0.2416 -0.0751
18863W        W35711   8.225   2.069  17.386 -0.1714 -0.2214 -0.1851
18864W        W35712   5.059  13.949  14.346 -0.1282 -0.2573 -0.1695
18865W        W35713  14.083  16.018   1.553 -0.3435  0.0437  0.0842
18866W        W35714  13.584  10.220   2.729  0.0122 -0.3297 -0.1598
18867W        W35715   5.994   8.954  17.503  0.0354  0.1120 -0.0431
18868W        W35716   9.053  11.571   1.526 -0.0500 -0.3165 -0.1288
18869W        W35717   0.134   8.274   4.810  0.3646 -0.1795 -0.0177
18870W        W35718   2.107  13.055   2.705 -0.1645 -0.0826  0.2226
18871W        W35719  12.596   9.350  13.779 -0.0791 -0.1614  0.0150
18872W        W35720  12.889  10.322   1.527  0.1073 -0.2815  0.0640
18873W        W35721  15.945  14.669   2.391  0.2313 -0.0165  0.1512
18874W        W35722  16.497   6.290  12.063  0.1641 -0.1763 -0.0777
18875W        W35723   5.826  15.746  13.728 -0.0444 -0.0689  0.0014
18876W        W35724   5.468  11.602  17.479  0.3411 -0.1314 -0.0032
18877W        W35725   9.056   9.216  13.111 -0.0463 -0.0764 -0.0054
18878W        W35726  13.575   7.911  13.587 -0.1953  0.1761 -0.4584
18879W        W35727   3.800   1.134  13.141  0.0806  0.2345 -0.1316
18880W        W35728   8.043  12.995  16.740  0.1144  0.3574 -0.0954
18881W        W35729   9.216   0.468  17.637 -0.4788  0.4794  0.2193
18882W        W35730  11.972   2.201  13.594 -0.3551  0.0062  0.2257
18883W        W35731  11.322  16.792   2.068  0.0622 -0.0041 -0.0018
18884W        W35732   6.365   6.674  14.184 -0.2787  0.0761  0.2376
18885W        W35733   3.925   9.338   4.173  0.1361 -0.1287 -0.0895
18886W        W35734   3.217   8.521  16.818 -0.0560 -0.0380  0.0374
18887W        W35735  17.148   9.543   4.688 -0.3060 -0.1558 -0.3523
18888W        W35736  13.498  13.242   5.362 -0.0763 -0.1739 -0.5285
18889W        W35737  11.887  11.033   0.925  0.1588  0.2041  0.1433
18890W        W35738  12.153   4.486  16.805  0.0543  0.0432 -0.0085
18891W        W35739   3.299  13.935  13.621  0.1412 -0.1858  0.1350
18892W        W35740  13.927   4.881   2.998  0.2857  0.0275  0.1189
18893W        W35741   1.390   9.109  14.907  0.2391 -0.0482  0.0806
18894W        W35742   9.180   6.640  17.722 -0.1805  0.3768  0.2155
18895W        W35743  15.763  16.458  12.180  0.0256  0.2550 -0.3490
18896W        W35744  15.431  11.100   0.590 -0.0347 -0.0211 -0.2066
18897W        W35745   4.249   2.160   6.275  0.0276  0.1198 -0.1847
18898W        W35746  16.635   5.764   4.731  0.0146  0.0498  0.1198
18899W        W35747  14.836   0.468   4.132  0.2532 -0.3936  0.3856
18900W        W35748   3.605  10.663   0.801  0.0408  0.1616 -0.1253
18901W        W35749   7.993   1.670   1.818  0.2469 -0.1057 -0.2035
18902W        W35750   8.718  11.515  14.414 -0.0275 -0.0373  0.1080
18903W        W35751   7.620   9.956   6.510 -0.4676 -0.0368  0.2529
18904W        W35752   4.543  12.775  15.880  0.0016  0.0023 -0.2816
18905W        W35753   8.849   4.822   2.117 -0.0046  0.0702 -0.4363
18906W        W35754   5.984   2.192  11.747  0.1375  0.1286 -0.4202
18907W        W35755   5.282   6.836  15.524 -0.2468  0.0405  0.0901
18908W        W35756   1.383   8.843   5.760  0.3270  0.0117 -0.1103
18909W        W35757   9.048  14.918   0.623 -0.0384 -0.3033 -0.3692
18910W        W35758   0.326   0.317   4.558 -0.1509  0.0929 -0.0291
18911W        W35759   9.491   2.072  13.538 -0.0385  0.0706  0.1226
18912W        W35760  12.537  10.033   6.035  0.1352 -0.1863 -0.0996
18913W        W35761   4.659   8.328  16.824 -0.0230  0.0542  0.0706
18914W        W35762  11.250  11.357  12.196  0.3231 -0.0776  0.0452
18915W        W35763  16.061   3.152   2.256 -0.4678 -0.0822 -0.0940
18916W        W35764  13.114   8.180  14.291 -0.0026  0.0801  0.2059
18917W        W35765   4.933   6.790  15.140  0.0712 -0.0376 -0.0858
18918W        W35766   5.177   3.850  16.221 -0.0724  0.2488 -0.0388
18919W        W35767  12.062  11.558  12.618 -0.0553  0.0457 -0.2571
18920W        W35768   5.475   2.671   0.820 -0.0546  0.0444 -0.0706
18921W        W35769  12.509   6.940  15.199 -0.1600  0.2326  0.0446
18922W        W35770  10.035  16.832   0.645 -0.1759  0.0008 -0.4013
18923W        W35771   2.274   9.715  14.380  0.1843  0.0974 -0.1428
18924W        W35772  11.033   7.768  15.813 -0.2123  0.5076 -0.1868
18925W        W35773   9.103  12.065  17.587 -0.1971 -0.2155 -0.3633
18926W        W35774   5.786   4.250   3.755 -0.0742  0.2680  0.2721
18927W        W35775   7.818  14.853   1.764 -0.0823 -0.1022  0.0116
18928W        W35776  16.157   3.308  13.225  0.1297 -0.0053 -0.0726
18929W        W35777   1.016  16.373  15.845 -0.1537 -0.2078  0.1734
18930W        W35778   7.814   0.071  12.653 -0.0475  0.2428 -0.2381
18931W        W35779   0.993  13.111  16.412  0.1977 -0.0321  0.3061
18932W        W35780  11.149  16.051  13.813 -0.0944  0.0283  0.2905
18933W        W35781   2.581   5.937   1.762 -0.2656 -0.0094  0.1122
18934W        W35782   4.209   1.505   5.012 -0.0363  0.1305 -0.3763
18935W        W35783  15.474  11.980   5.085  0.0469 -0.1467  0.0212
18936W        W35784   2.293  15.222  14.823 -0.1232 -0.2721 -0.2984
18937W        W35785   6.104   7.722   5.463  0.1755 -0.0923  0.0325
18938W        W35786   5.015  16.181  17.346 -0.0397 -0.0157  0.1270
18939W        W35787   2.903  11.127   6.163 -0.2296 -0.1018  0.1098
18940W        W35788   2.548   4.218   4.800 -0.0228 -0.3916 -0.1092
18941W        W35789  13.597   2.010  13.953  0.1007  0.1711 -0.0198
18942W        W35790  12.696  15.192  17.171  0.1141  0.2121 -0.1028
18943W        W35791   0.725  12.837  16.877 -0.1278 -0.1394  0.0758
18944W        W35792   4.456  15.461  14.909  0.1490 -0.0036 -0.2275
18945W        W35793   5.420  16.042   2.392 -0.0158 -0.0721  0.0665
18946W        W35794   6.646  10.369   5.765  0.3315 -0.0372 -0.2166
18947W        W35795  17.159   4.376   4.261 -0.1040  0.0510 -0.2887
18948W        W35796   8.232  13.528   4.136  0.1888  0.0142  0.0740
18949W        W35797   4.611  10.358   7.054 -0.1229  0.1191  0.0172
18950W        W35798   8.260   2.377  13.184  0.1585 -0.3860 -0.0022
18951W        W35799   7.698   8.290   3.728  0.1383 -0.1653 -0.3523
18952W        W35800  15.540  10.440  15.246  0.1140  0.2249 -0.0117
18953W        W35801  10.295   8.492  14.758  0.1601 -0.0655 -0.2408
18954W        W35802   2.289   4.604   6.322  0.1873 -0.4229  0.2383
18955W        W35803  10.367   1.086  14.188  0.1308 -0.0595 -0.2263
18956W        W35804   2.761   3.053  13.283  0.3031  0.0063  0.1094
18957W        W35805   1.946   4.128   0.108 -0.1649 -0.1814  0.1804
18958W        W35806   2.315   7.579  17.360 -0.1946  0.1530 -0.0027
18959W        W35807   8.062  10.611   1.626  0.2003  0.3163  0.0130
18960W        W35808   4.179  14.212   3.808  0.0217 -0.3544  0.0848
18961W        W35809   4.568   7.050   0.142  0.0711  0.1562 -0.0200
18962W        W35810   0.873   1.779  17.091  0.0181  0.1384 -0.2637
18963W        W35811  16.311   3.048  13.984 -0.0808 -0.2816 -0.2276
18964W        W35812  13.039   8.304  15.868 -0.1395 -0.1695  0.1892
18965W        W35813  14.839   8.332   2.260 -0.2141 -0.2590  0.4655
18966W        W35814   2.400  12.278  16.408  0.0659  0.2109 -0.1118
18967W        W35815   8.351   1.960   5.292 -0.1160  0.3004 -0.1432
18968W        W35816  12.414   7.845  14.805  0.4744  0.0938  0.2409
18969W        W35817   2.698  10.704   1.899  0.0425 -0.1737  0.4538
18970W        W35818   8.419   6.779   3.686 -0.1565  0.1233 -0.2998
18971W        W35819   1.560  15.685  13.646 -0.0235  0.0575  0.0487
18972W        W35820   6.197   4.841  12.839  0.1044  0.1678 -0.2731
18973W        W35821   6.788  12.866   4.399 -0.1602 -0.0864 -0.1304
18974W        W35822   2.400   2.440  16.318  0.0222  0.0717 -0.0487
18975W        W35823  13.760  15.521   3.816 -0.2428 -0.0073 -0.0830
18976W        W35824  13.498  15.447  15.960  0.1355 -0.3420  0.1538
18977W        W35825  13.473  16.463  16.177 -0.1305  0.1225  0.1180
18978W        W35826   6.439  13.455   3.359  0.0142  0.1824 -0.0256
18979W        W35827   2.915   0.119   0.625 -0.0088 -0.2361  0.5549
18980W        W35828   1.708  16.637   5.898 -0.1181 -0.0522 -0.3299
18981W        W35829   9.815  11.154  13.745 -0.0643 -0.2938  0.2017
18982W        W35830  12.519   9.627  16.095  0.2440 -0.0211  0.1084
18983W        W35831   6.987   5.500   2.485 -0.1294 -0.1260 -0.1309
18984W        W35832  16.196  11.866  12.695  0.0485 -0.0136  0.1736
18985W        W35833  12.826  11.548   0.691 -0.1229  0.1090  0.1310
18986W        W35834  10.128  16.857  13.393 -0.0555 -0.1186 -0.1039
18987W        W35835  15.582  15.264  16.266  0.1065 -0.1079 -0.0202
18988W        W35836  10.741  13.710  15.271 -0.2306 -0.0126  0.0428
18989W        W35837  15.632  10.532   2.648 -0.1649 -0.0480 -0.1820
18990W        W35838  15.206   6.451   4.527  0.2641  0.2333  0.2620
18991W        W35839   6.107   9.069  14.023  0.1233  0.2467 -0.1259
18992W        W35840   3.954   2.424  17.673 -0.4494 -0.0242 -0.4170
18993W        W35841  12.042   2.829  10.770  0.4366 -0.1583 -0.0692
18994W        W35842  14.947  12.892  12.268 -0.0623  0.1432  0.2145
18995W        W35843  12.418   4.310   1.182  0.1476  0.1129  0.0745
18996W        W35844   6.234  16.890   3.457 -0.1453 -0.1298  0.1768
18997W        W35845   2.363   5.680   0.935  0.0041 -0.3873  0.0823
18998W        W35846   8.295   1.494   1.308 -0.0623  0.0413 -0.0635
18999W        W35847   4.058   7.586   1.706 -0.1523 -0.1044 -0.0974
19000W        W35848   3.369  13.990  12.335  0.1125  0.0848 -0.2163
19001W        W35849   5.580  11.854  15.659  0.0972 -0.3589 -0.1617
19002W        W35850   3.940   8.766  15.095 -0.1734 -0.1949  0.2853
19003W        W35851   5.550   2.380   3.722 -0.2130  0.3916  0.2279
19004W        W35852   2.874  11.007  17.354  0.2804 -0.6222  0.1529
19005W        W35853   5.658   7.487  14.920  0.0948 -0.2884  0.0300
19006W        W35854   1.396   9.591   0.813  0.3107 -0.1120 -0.1091
19007W        W35855  13.663  11.270  11.513  0.3705  0.1973 -0.1155
19008W        W35856  12.271   0.358   5.469  0.0919 -0.1618  0.0712
19009W        W35857   1.050   7.865  13.076 -0.0961  0.2233 -0.0175
19010W        W35858   6.866   0.215  15.418  0.0953 -0.1144 -0.2471
19011W        W35859   3.107   1.607  16.145 -0.1503 -0.0644 -0.0252
19012W        W35860  10.419   5.289  14.987 -0.3020 -0.1402  0.2829
19013W        W35861   3.594   7.331  14.903 -0.3160  0.1424 -0.0650
19014W        W35862   4.374   2.873   2.147  0.0495  0.2665 -0.0470
19015W        W35863  16.812  11.046   2.473 -0.1089  0.0276  0.3273
19016W        W35864   0.542   8.047  13.341 -0.1444  0.0942 -0.1064
19017W        W35865   7.300  12.847   4.961 -0.0112 -0.0253  0.0952
19018W        W35866  13.137   2.223  16.886 -0.0774  0.1093  0.0042
19019W        W35867  14.286   7.593   0.919  0.3840 -0.0990 -0.1894
19020W        W35868   7.646  16.439  17.697  0.0109 -0.1031 -0.3697
19021W        W35869  13.458   3.947   5.567  0.1528 -0.1606  0.4477
19022W        W35870   9.252  16.263   5.554  0.0394  0.0162  0.2706
19023W        W35871   3.253   9.287  14.892  0.1097 -0.1532  0.0488
19024W        W35872   9.370   7.602  16.243  0.1043 -0.1235 -0.3229
19025W        W35873  10.248  13.338   3.098 -0.1310 -0.2297 -0.2502
19026W        W35874  13.231   6.567   0.943  0.4773 -0.0425  0.1378
19027W        W35875   7.933  12.058  14.307  0.1082  0.0354 -0.1919
19028W        W35876  16.001   5.277   3.001 -0.0539  0.0105  0.1852
19029W        W35877  13.231   9.625  14.740 -0.2451  0.2945  0.2271
19030W        W35878   5.496  10.256   3.915  0.1597 -0.0757 -0.2311
19031W        W35879  12.467   4.247  12.922 -0.0350 -0.0773 -0.3545
19032W        W35880  13.035   1.783  12.911  0.1815 -0.3976 -0.0602
19033W        W35881  14.868   9.914   3.824  0.4089 -0.0257  0.0497
19034W        W35882   8.288   9.132   3.396 -0.0056 -0.0574 -0.0956
19035W        W35883   9.734   3.167   2.405 -0.0531 -0.0384  0.0912
19036W        W35884   8.348   2.745  15.227  0.1577 -0.1136  0.1457
19037W        W35885   1.523   1.617   1.807  0.1162  0.2362 -0.0457
19038W        W35886   3.496   0.837  12.869 -0.3181  0.4216  0.0904
19039W        W35887   3.677   1.742   0.351 -0.0929 -0.1962 -0.1591
19040W        W35888   4.019  11.863   7.043 -0.1216 -0.3427  0.0830
19041W        W35889  16.869  14.862   6.126 -0.0548  0.1062 -0.0885
19042W        W35890   5.085   2.292  16.588 -0.1133  0.1382 -0.1856
19043W        W35891   8.518  15.796   4.606 -0.3456  0.2186  0.0581
19044W        W35892  16.331   0.184   4.530  0.2901  0.0020 -0.2365
19045W        W35893  12.896   5.918  14.443  0.3377  0.0570  0.1036
19046W        W35894   6.137  14.449  17.525  0.0400 -0.2024  0.0106
19047W        W35895   8.914   1.560  15.038  0.2216  0.0122 -0.0559
19048W        W35896  14.189   0.916   4.866 -0.1365 -0.1867 -0.2155
19049W        W35897   9.123   2.152   2.143 -0.2032  0.1749  0.0284
19050W        W35898  14.975  12.536   5.475 -0.0407  0.0107 -0.4858
19051W        W35899   7.226  15.522  17.143  0.0859 -0.1200 -0.1053
19052W        W35900   2.849   0.910  13.433  0.0307  0.1327 -0.2084
19053W        W35901  10.649   0.690  15.400  0.1215 -0.2107  0.0205
19054W        W35902  17.072   8.872  12.377  0.2024  0.1504 -0.3155
19055W        W35903  11.593   3.499   2.584 -0.0090  0.0762  0.2404
19056W        W35904  12.644   2.543   1.317  0.0771  0.0246  0.3953
19057W        W35905   2.904   6.694   5.046 -0.0778  0.0196 -0.1859
19058W        W35906   9.726   2.076  13.072  0.0954 -0.0963 -0.1459
19059W        W35907  16.157  15.359  15.078  0.0599 -0.1422 -0.0699
19060W        W35908  16.313   7.656  11.775  0.3060 -0.2088  0.3318
19061W        W35909  12.772   1.007   0.634  0.2154 -0.1008 -0.1399
19062W        W35910   2.487   2.802   4.278 -0.0131 -0.0352 -0.1552
19063W        W35911   5.086  11.461   2.624 -0.1040 -0.1043 -0.0082
19064W        W35912  13.982   3.819   5.561  0.2843  0.0884  0.1260
19065W        W35913  16.829   8.482  12.202 -0.0814 -0.1170  0.1019
19066W        W35914  11.188   6.493   0.405 -0.4284 -0.3563 -0.3568
19067W        W35915   6.890  15.508   5.214  0.0112  0.3383  0.0365
19068W        W35916   4.828  16.953  17.055 -0.0269  0.2168  0.0090
19069W        W35917   9.788  10.787   0.102  0.1937 -0.1440 -0.0642
19070W        W35918   4.022   0.756   1.546 -0.0241 -0.0009 -0.0729
19071W        W35919  12.000  14.304   0.546 -0.3021 -0.0496  0.0795
19072W        W35920  10.382   7.025   3.300 -0.1890  0.2757 -0.1163
19073W        W35921  12.315   2.621  16.297 -0.1626 -0.1593 -0.0642
19074W        W35922   2.296  14.783   3.919 -0.0913 -0.1019  0.0911
19075W        W35923   1.223   8.367  13.061 -0.2648  0.1289  0.1640
19076W        W35924  11.101  12.431  14.011  0.0617 -0.1032 -0.0002
19077W        W35925  16.347   4.141   2.979  0.0517 -0.0042 -0.1143
19078W        W35926   9.404   1.043  12.107  0.1245  0.0451 -0.2292
19079W        W35927   7.258   8.595  16.475  0.1049 -0.1428 -0.2603
19080W        W35928  12.364  14.983  12.916  0.3472  0.1989  0.2686
19081W        W35929  12.014   3.720  17.352 -0.1402 -0.1618  0.2935
19082W        W35930   3.473   3.035   0.073  0.0837 -0.2854 -0.3650
19083W        W35931   7.535   7.958   2.099 -0.1743 -0.0752  0.2739
19084W        W35932   7.896   9.570  12.460 -0.1203 -0.2340  0.2547
19085W        W35933  14.251   2.461  14.464  0.0681 -0.1284  0.1228
19086W        W35934   1.049   7.411  17.032 -0.0206 -0.0006  0.3306
19087W        W35935  10.967   6.520   3.927 -0.1132  0.0115 -0.3273
19088W        W35936  13.915  11.888   4.137 -0.1452  0.0595  0.0781
19089W        W35937   8.520   8.613  15.268 -0.1106 -0.0228  0.0215
19090W        W35938   1.422   6.971  15.866 -0.0418  0.3476  0.1039
19091W        W35939   1.136   8.146  17.766 -0.2092 -0.0087  0.0534
19092W        W35940   5.610   5.005  17.111  0.1094  0.0352  0.0975
19093W        W35941  15.125   7.275  16.877 -0.0502 -0.2535 -0.1885
19094W        W35942  13.031   0.924  15.691 -0.2006  0.2035  0.1383
19095W        W35943  10.530  12.327  15.634  0.0059 -0.1252 -0.1339
19096W        W35944  16.247   5.790  13.281  0.2279 -0.2585 -0.0033
19097W        W35945   6.418  13.950   2.606 -0.0891 -0.2615 -0.1802
19098W        W35946  15.770  14.528  15.140  0.0701  0.2688  0.0174
19099W        W35947  16.976   6.462   1.729  0.0310 -0.0539  0.0918
19100W        W35948  16.676  12.226   0.561  0.0423  0.1149 -0.1317
19101W        W35949  15.328   6.195   4.048  0.0766  0.1495  0.0134
19102W        W35950  11.641   6.375  15.004  0.0753  0.1458  0.1161
19103W        W35951  14.445   8.046   2.432  0.0909 -0.3470 -0.2705
19104W        W35952  15.575   5.118  13.963 -0.0214  0.0178 -0.2707
19105W        W35953   8.164  11.533  14.794 -0.0856  0.1386 -0.1108
19106W        W35954   8.263   3.718  17.551  0.3008 -0.2635 -0.2382
19107W        W35955  14.698   9.327   4.629  0.1293 -0.1288 -0.0883
19108W        W35956  15.790  16.874   4.791 -0.0496 -0.0624 -0.0439
19109W        W35957  11.029   6.954   0.255  0.1309 -0.1101  0.0522
19110W        W35958   1.588   8.965  17.279 -0.0211  0.0489 -0.1330
19111W        W35959   8.875   8.674   0.668  0.3162 -0.0514 -0.1941
19112W        W35960   4.168  11.670   0.779 -0.0072  0.2647 -0.0087
19113W        W35961   4.380  12.370   2.054  0.1541 -0.0095 -0.0511
19114W        W35962   3.805  16.618   5.325  0.2730 -0.2221 -0.0495
19115W        W35963  14.622   2.158   5.160 -0.2059  0.1351  0.1652
19116W        W35964   6.298   2.439   0.687  0.2337  0.0497  0.1809
19117W        W35965   3.428  14.395  13.381  0.0865 -0.0843  0.1089
19118W        W35966   0.054   2.813   0.713 -0.2063 -0.1401  0.0852
19119W        W35967  12.615   7.702   2.831 -0.0289  0.1830 -0.0592
19120W        W35968   8.140   6.941  17.394  0.1399  0.0218  0.3090
19121W        W35969   7.413  12.115  15.533 -0.0327  0.2187 -0.1712
19122W        W35970   1.183   9.254   0.473 -0.0098 -0.0726  0.0179
19123W        W35971  13.065  16.904   1.593  0.1240  0.1894 -0.0580
19124W        W35972   0.643   9.398   4.036  0.0066  0.1428  0.1041
19125W        W35973  15.495   5.459   1.727 -0.1551  0.1129 -0.2890
19126W        W35974   2.268   8.539   0.795  0.0054 -0.3021 -0.0123
19127W        W35975  16.970   2.919   0.181  0.1582 -0.1739  0.0628
19128W        W35976   3.468   2.655  12.724 -0.0245  0.2305  0.2080
19129W        W35977  12.548   1.564   4.056  0.0498 -0.0937  0.1148
19130W        W35978   8.156   2.205   0.720  0.2790  0.2315  0.1303
19131W        W35979  13.241   2.917   1.483  0.1735 -0.2293  0.1262
19132W        W35980   1.617   7.227   1.872 -0.3630  0.0179  0.1052
19133W        W35981  15.402   0.591   1.854  0.0150 -0.0847 -0.0246
19134W        W35982   4.326   6.776   2.893 -0.2211 -0.0663 -0.0207
19135W        W35983  16.826   2.785   1.532 -0.0622  0.0751  0.1699
19136W        W35984   6.426  16.400   5.193  0.0698  0.0588  0.1451
19137W        W35985   7.687   4.833  15.075 -0.1435 -0.2536 -0.0931
19138W        W35986   4.529   0.680   1.547  0.1501 -0.2209 -0.3526
19139W        W35987   4.306   1.110  16.819 -0.1359  0.0055  0.1907
19140W        W35988   0.750   4.168   3.016 -0.0026 -0.3629 -0.1988
19141W        W35989  14.361   1.677  12.470  0.1408 -0.1394 -0.1900
19142W        W35990  12.532   7.571  12.999  0.3343  0.0146  0.2219
19143W        W35991  10.154  12.263  16.975 -0.0435 -0.0253  0.2375
19144W        W35992   1.951   9.997   3.479  0.0814  0.1047 -0.1084
19145W        W35993   8.474   8.484  13.007  0.0883  0.0406  0.0542
19146W        W35994   5.233   7.351   2.560 -0.2647 -0.1286  0.0324
19147W        W35995   5.262   4.107   5.628 -0.2008 -0.1045  0.2508
19148W        W35996   0.933   4.107  17.264 -0.2603  0.0148 -0.0184
19149W        W35997   7.162  15.802   2.028 -0.2150 -0.2529  0.2559
19150W        W35998  11.527  12.415   3.372  0.0944  0.2011  0.1953
19151W        W35999  15.655  10.384  13.168 -0.1163  0.0762  0.0435
19152W        W36000   3.333  11.017  17.561 -0.0406 -0.0461 -0.1336
19153W        W36001  10.155   3.533  13.016  0.1913  0.0522  0.1341
19154W        W36002   2.063   1.337  16.246 -0.1966 -0.1110 -0.0571
19155W        W36003  12.280   9.168   4.358  0.0140 -0.2440 -0.0715
19156W        W36004   9.959  11.191  12.204 -0.2006  0.0739 -0.2549
19157W        W36005   0.887   6.975   3.173  0.0067  0.0488  0.2381
19158W        W36006  15.093   7.811  15.154 -0.0616 -0.0571  0.0886
19159W        W36007   2.026  16.136  14.434  0.1971 -0.0258  0.1781
19160W        W36008   0.825  10.043   5.387  0.3325  0.0350 -0.0559
19161W        W36009   0.378  11.129   6.037  0.2716  0.2772  0.0442
19162W        W36010   8.505   7.703  16.255  0.0524 -0.0254 -0.0465
19163W        W36011  13.439   2.792   4.681  0.2177  0.1927  0.0669
19164W        W36012  16.715   6.441   3.361 -0.2745  0.1356  0.0417
19165W        W36013  10.476   9.532  16.519  0.3234 -0.0857  0.2064
19166W        W36014   8.806   8.433  16.492 -0.0863 -0.2376  0.0378
19167W        W36015   4.633  16.111  14.714 -0.5788 -0.0167  0.1484
19168W        W36016  13.944   3.465  15.219  0.1008  0.1084  0.2326
19169W        W36017  13.018   9.010  14.164 -0.2974  0.0032  0.2661
19170W        W36018   3.483   2.094  12.776  0.2207  0.1245  0.2509
19171W        W36019   5.598  13.938  16.553  0.0915  0.0422 -0.1994
19172W        W36020   7.688   4.608   4.884 -0.1315 -0.0285 -0.1835
19173W        W36021  12.971  12.228   0.046  0.0051 -0.0527 -0.1553
19174W        W36022  15.532   9.375  17.420  0.2045  0.0875 -0.1210
19175W        W36023   8.070   6.129   5.080 -0.2027  0.1418 -0.0387
19176W        W36024  10.034   5.572  13.409  0.2104 -0.0376 -0.2177
19177W        W36025  15.293  12.116  14.865  0.1946  0.1105 -0.1459
19178W        W36026   1.307   0.239  12.679 -0.1212  0.0153  0.0958
19179W        W36027   1.473  11.724  17.541  0.0041  0.0055 -0.3031
19180W        W36028   3.794  11.946   5.397  0.3488  0.0466 -0.1265
19181W        W36029  10.544   4.880   0.611  0.0092 -0.0311  0.2509
19182W        W36030   7.867   0.395   1.310  0.0170 -0.2125 -0.1666
19183W        W36031  12.455  16.758  15.791  0.1187 -0.0209 -0.0333
19184W        W36032  10.372  10.658  12.968  0.3758  0.0902  0.0613
19185W        W36033   8.410   0.133   2.673  0.1187 -0.2532  0.1402
19186W        W36034  14.311   6.611   0.891  0.0811  0.1905 -0.0755
19187W        W36035   7.556  15.453   4.331  0.1167 -0.0934 -0.1797
19188W        W36036   1.702   8.069  17.511  0.0762 -0.0386  0.0203
19189W        W36037  10.513  16.244  15.197  0.5089  0.1850 -0.4414
19190W        W36038   8.003  10.984   5.572  0.2084  0.0260  0.2100
19191W        W36039   2.115   7.798   5.600 -0.2023 -0.0584 -0.1415
19192W        W36040   4.097   0.371   1.857 -0.0200 -0.0410  0.1472
19193W        W36041  13.061  11.858  13.108  0.0570  0.0360 -0.0551
19194W        W36042  16.042   2.190   5.238 -0.1372 -0.3411 -0.1174
19195W        W36043   3.294  11.277   6.473 -0.0300 -0.1157  0.0743
19196W        W36044   2.009   7.807   0.653 -0.2240  0.0928 -0.0454
19197W        W36045   4.879   2.553  12.524  0.2391  0.2002 -0.1075
19198W        W36046   7.135  10.649   1.593 -0.1152 -0.1404 -0.0166
19199W        W36047  10.300  11.376  11.888 -0.3234  0.0895  0.1488
19200W        W36048   7.580   0.084   0.509 -0.1691 -0.1029 -0.0550
19201W        W36049   9.065  15.807  11.703 -0.0358 -0.1580  0.1046
19202W        W36050  17.126  15.328   1.351  0.1730  0.2494 -0.0371
19203W        W36051  16.130  12.964  11.481 -0.0164  0.0635  0.3079
19204W        W36052  12.909   4.468   0.087  0.1304 -0.2006 -0.1881
19205W        W36053   3.331   4.458  15.694  0.2749 -0.0267 -0.1414
19206W        W36054   7.356   4.682  12.096 -0.0911 -0.2473 -0.1958
19207W        W36055  15.437   4.777  15.705  0.0537  0.0460 -0.0185
19208W        W36056  15.442   8.613  12.664  0.2018  0.0990 -0.0962
19209W        W36057  11.387  10.321  13.811  0.0721 -0.0719 -0.3436
19210W        W36058  14.840   4.754   0.719  0.0569 -0.0618  0.1936
19211W        W36059   7.747  14.823   5.638 -0.0174 -0.0351  0.3169
19212W        W36060  16.439   2.815  15.949  0.0386 -0.0338  0.1467
19213W        W36061  10.801  14.233   1.213  0.1793  0.2948 -0.2498
19214W        W36062   0.036  12.178  12.864 -0.0098  0.1129 -0.2081
19215W        W36063  10.555  16.110  13.116  0.0321  0.0176  0.2238
19216W        W36064   8.538  13.015   2.550 -0.0670 -0.0852 -0.0124
19217W        W36065   6.706   6.723   2.450 -0.2681 -0.2504  0.1135
19218W        W36066   2.596   3.528  12.893  0.1138 -0.1552  0.0152
19219W        W36067   6.196  12.298  11.332 -0.0982 -0.1732 -0.1878
19220W        W36068   1.239  11.964   1.145  0.3703 -0.4016  0.0022
19221W        W36069   6.200  13.538   0.679 -0.1397  0.2379  0.0765
19222W        W36070  14.452  10.310  14.771 -0.3179  0.0713 -0.2299
19223W        W36071  13.900   7.161  13.283  0.2460 -0.2738  0.3288
19224W        W36072   7.466   8.284   1.344  0.0240  0.3194 -0.0221
19225W        W36073  15.427   0.969  13.707 -0.0685  0.0530 -0.0850
19226W        W36074  14.836  10.807   5.454  0.0555  0.2336  0.4734
19227W        W36075   5.898   3.777   2.594 -0.1016 -0.2338  0.0779
19228W        W36076   0.179   8.104   5.451 -0.1274  0.2111 -0.0869
19229W        W36077  10.299   4.640  15.978  0.0257 -0.1153 -0.0403
19230W        W36078   1.953   6.351   0.676 -0.4561  0.0660 -0.2312
19231W        W36079  14.726  11.303  15.849  0.1024 -0.1343 -0.4203
19232W        W36080   2.259   0.443  15.721 -0.0828  0.0297  0.1489
19233W        W36081  10.140  15.141   1.252  0.0617  0.3092 -0.2733
19234W        W36082   9.156   8.648  14.585 -0.2532  0.2052 -0.0646
19235W        W36083  15.639   2.294  13.923  0.3341 -0.2023  0.0247
19236W        W36084   3.311   4.557   2.669 -0.0785 -0.1299 -0.0172
19237W        W36085   7.300   8.994  17.273 -0.1623  0.1155 -0.1313
19238W        W36086  14.613   5.197   4.622  0.0164  0.0402 -0.2461
19239W        W36087  10.610   7.281   0.210  0.1496  0.1002  0.0026
19240W        W36088   0.112   8.247  13.050  0.0366  0.1373  0.1825
19241W        W36089  17.026  11.306   1.686  0.0582 -0.2253 -0.0583
19242W        W36090  10.861   8.968   4.423 -0.1935 -0.2308 -0.3012
19243W        W36091   0.605  12.370  13.947  0.2015 -0.0261  0.1583
19244W        W36092  10.383   5.812   3.955 -0.2540 -0.4376  0.0640
19245W        W36093   1.671   6.205   2.142 -0.0353 -0.2326  0.2200
19246W        W36094  15.627   9.186   2.327  0.0775 -0.0317 -0.2241
19247W        W36095   6.843   0.678  16.909  0.0824 -0.1012  0.0537
19248W        W36096   0.901  11.288  15.331 -0.4104 -0.3057  0.0150
19249W        W36097   5.959   0.432  16.454  0.3624  0.0225 -0.1849
19250W        W36098   7.321   9.743   0.144  0.1841  0.0285 -0.2333
19251W        W36099  16.334  13.065  13.402 -0.1548  0.0753  0.0172
19252W        W36100   2.139  15.628   3.890  0.1503 -0.1164 -0.1242
19253W        W36101   8.111  16.853  17.041  0.4005 -0.1642  0.0528
19254W        W36102  16.057   0.088   1.388  0.6066  0.1485 -0.2112
19255W        W36103  11.645  14.026  15.129 -0.0588  0.1893 -0.0361
19256W        W36104   5.788  12.566   2.009  0.1057  0.1227 -0.0052
19257W        W36105   3.184   0.488   2.972 -0.0039 -0.5154 -0.0420
19258W        W36106  13.376   7.988  15.746  0.2000  0.0053  0.0625
19259W        W36107  16.607   4.291  14.120  0.0444 -0.0419  0.0256
19260W        W36108  10.458   7.484   3.063 -0.0083  0.1829  0.2207
19261W        W36109   4.378   2.924  11.851  0.3146 -0.0222 -0.0802
19262W        W36110   1.037  13.569   3.216 -0.0656 -0.2362 -0.1240
19263W        W36111   9.566   8.036   3.178 -0.4090 -0.2036 -0.0768
19264W        W36112   5.806   1.796  17.596  0.1289  0.0047  0.1088
19265W        W36113  15.358   2.384  12.652 -0.0985  0.2236 -0.0295
19266W        W36114  11.756  13.696  16.486 -0.0957 -0.0787  0.1439
19267W        W36115   9.675  12.848  12.573 -0.0063  0.0276  0.1928
19268W        W36116   3.839   2.945  15.349  0.1403  0.3242  0.0629
19269W        W36117  12.489   6.130   1.857  0.0332 -0.2493  0.2311
19270W        W36118   9.647  15.040   5.055  0.0095 -0.3232  0.0063
19271W        W36119   2.099   9.959   6.846  0.0300  0.0518  0.1491
19272W        W36120   3.193   8.952   0.889  0.1886  0.1423  0.2964
19273W        W36121   3.139   6.573   5.545 -0.2202 -0.1357 -0.1311
19274W        W36122  11.055   6.137  12.285 -0.2905 -0.2076  0.0820
19275W        W36123  13.250   1.170   1.734  0.2052  0.2982  0.0947
19276W        W36124   3.007  17.059  12.698  0.0846 -0.1385 -0.0761
19277W        W36125   8.424   0.350  15.818 -0.0032  0.1431 -0.1876
19278W        W36126   6.317   9.804   3.752 -0.2210  0.2969  0.2412
19279W        W36127  16.528  16.992  13.287 -0.2479 -0.1097  0.0074
19280W        W36128  14.578  16.049  15.572 -0.1603  0.3065  0.1911
19281W        W36129   7.666  10.789  13.686 -0.2870  0.1783 -0.2189
19282W        W36130   3.248  12.050   2.508  0.2353 -0.3513  0.2043
19283W        W36131   2.137   6.755   3.376 -0.0186  0.0724  0.0763
19284W        W36132   6.714   3.885  15.340 -0.0160 -0.0085 -0.0358
19285W        W36133   4.633   8.192  14.238  0.1854 -0.3383  0.2827
19286W        W36134   6.922  11.374  11.574  0.0074 -0.1809 -0.6057
19287W        W36135   1.860   2.867  15.357  0.0330  0.1895  0.2055
19288W        W36136  15.350  11.243   5.804  0.2147 -0.3134 -0.0380
19289W        W36137  16.799   4.524  12.473 -0.2309 -0.2133  0.1652
19290W        W36138  12.691   6.481   3.509  0.0041 -0.0634  0.0442
19291W        W36139  15.778  15.322   3.136  0.0708  0.0760 -0.3795
19292W        W36140   8.949   5.875   3.813 -0.1706  0.2723  0.2327
19293W        W36141   3.956  13.000  15.078  0.1116  0.1153  0.1553
19294W        W36142   8.932   3.703   4.849  0.0953  0.1196 -0.0852
19295W        W36143   8.147  10.730   1.146  0.1484 -0.2642  0.0132
19296W        W36144  12.864   0.212  14.694 -0.1278  0.1489 -0.1545
19297W        W36145   8.787  13.312  13.478  0.1164 -0.1870  0.1448
19298W        W36146   8.727   6.912  17.742 -0.0109 -0.3502  0.0184
19299W        W36147   0.442  11.477  15.224 -0.1303  0.1134  0.2050
19300W        W36148  13.720   6.746   4.609 -0.1799 -0.3565  0.2839
19301W        W36149   6.407   8.876   4.158 -0.1687 -0.1042  0.2308
19302W        W36150   0.380   6.859   4.089 -0.1227 -0.4595 -0.1086
19303W        W36151   6.436   2.452  12.582  0.0078 -0.1550  0.1048
19304W        W36152   3.101   8.402   1.277  0.0201 -0.1208  0.0829
19305W        W36153   7.244  11.599  13.878  0.0475  0.0226  0.1441
19306W        W36154  13.065  15.143  16.154  0.2439  0.0269 -0.0155
19307W        W36155   3.668  15.799  14.162  0.1217 -0.1141 -0.1974
19308W        W36156   8.529  15.898  15.296  0.0630 -0.0011 -0.1725
19309W        W36157   0.402   4.793   2.332 -0.0836 -0.0691 -0.1541
19310W        W36158   6.958   6.895   4.377  0.3216  0.0660  0.3191
19311W        W36159  10.982  10.085   0.586  0.1257  0.0867 -0.0493
19312W        W36160   8.654  14.842  12.364 -0.0738  0.2856 -0.2272
19313W        W36161   3.416   8.813  17.710 -0.3103  0.0431  0.2787
19314W        W36162  12.559  15.627  16.940  0.1490  0.0499  0.0679
19315W        W36163  12.064   3.763   1.739 -0.2071 -0.1890 -0.0302
19316W        W36164  16.651   1.612   0.094  0.0450 -0.1077  0.2344
19317W        W36165  16.511   1.434   3.740  0.1621 -0.1386  0.2612
19318W        W36166  12.757   1.093  14.474  0.1332  0.0443 -0.0765
19319W        W36167   7.604   6.556   1.507  0.1200 -0.0512  0.0853
19320W        W36168   1.326   4.019   4.275 -0.0286  0.0458 -0.2195
19321W        W36169   1.021   2.558   2.716 -0.0105  0.0892  0.0008
19322W        W36170   3.097  15.028   3.426  0.1812 -0.3490 -0.0674
19323W        W36171  12.026   4.818  15.640  0.1479 -0.1232  0.0812
19324W        W36172   3.437  14.181  12.961  0.1994 -0.2281  0.2049
19325W        W36173   5.951  16.980  17.762  0.1831 -0.0695  0.2445
19326W        W36174   9.554   4.511  17.048  0.0742 -0.1096 -0.0037
19327W        W36175  15.799  13.128  14.079 -0.1965  0.1685 -0.0037
19328W        W36176   0.268   3.339   4.741  0.0221 -0.3811  0.1724
19329W        W36177   4.479  16.614   2.318 -0.0925  0.0689  0.1644
19330W        W36178  14.024   7.634   3.606 -0.0150  0.1313  0.3363
19331W        W36179   8.588   3.032  15.537 -0.1608  0.1212 -0.2833
19332W        W36180   6.013  14.047   1.464 -0.0280  0.1542  0.3759
19333W        W36181   9.432  12.661   4.403  0.0659 -0.1226 -0.2345
19334W        W36182  11.507   2.751  14.788 -0.0950 -0.1833 -0.1109
19335W        W36183   6.539  16.501  17.089 -0.0335  0.3762 -0.2734
19336W        W36184   4.102   8.441   2.651  0.1459  0.0198  0.0959
19337W        W36185  16.455   4.353  16.910  0.0908  0.0565  0.6137
19338W        W36186  10.260  17.146   1.524  0.0380 -0.1779  0.1936
19339W        W36187  16.310   7.872  16.875 -0.1057  0.3462 -0.1341
19340W        W36188   2.069   2.440  17.765 -0.0140  0.0318  0.0479
19341W        W36189   2.268  14.157  16.487  0.2706  0.3680  0.0122
19342W        W36190   9.559  16.775   4.637 -0.0191  0.1163 -0.1018
19343W        W36191  16.997  11.016  12.251 -0.0662  0.0490 -0.0257
19344W        W36192  15.087   2.979   0.828 -0.1038 -0.1505 -0.0001
19345W        W36193  14.717  13.729  15.367 -0.0459 -0.0973 -0.2581
19346W        W36194  15.820   4.272  17.655 -0.1562  0.2247  0.0359
19347W        W36195  14.346   4.559  13.069  0.3341  0.4308 -0.2388
19348W        W36196   7.093   4.299  15.343  0.1369  0.1558 -0.2652
19349W        W36197   8.289   6.754   0.851 -0.0884  0.1327  0.1535
19350W        W36198   0.169  12.153   3.108  0.2090  0.0244  0.1806
19351W        W36199  10.985  10.102  12.463 -0.2232 -0.4669 -0.6356
19352W        W36200  15.891  10.822   3.507  0.1577  0.4900  0.0552
19353W        W36201  17.158   0.737  12.428  0.2802  0.1619 -0.3008
19354W        W36202  14.368   1.336   1.783  0.2941  0.2962 -0.0294
19355W        W36203  12.005  12.612   1.213  0.0139 -0.0509 -0.0922
19356W        W36204   3.724  12.008  12.581  0.1126  0.4860  0.0544
19357W        W36205  13.821   4.153   0.790 -0.0670  0.0501 -0.0001
19358W        W36206   5.061   6.268   2.267  0.1682 -0.2330  0.0549
19359W        W36207   7.151  13.010   4.068 -0.1436 -0.0811 -0.1257
19360W        W36208  11.174  12.776   4.724  0.2386  0.2610  0.1453
19361W        W36209  10.663  14.327  15.025 -0.1109 -0.1244 -0.1273
19362W        W36210   2.313  16.129   0.884 -0.1888 -0.3204  0.0339
19363W        W36211   2.902   8.769  17.766 -0.4582 -0.2820 -0.0719
19364W        W36212   5.515  16.565   2.305  0.2225  0.1553  0.0861
19365W        W36213  14.045   2.464   1.828 -0.0690 -0.0014  0.3174
19366W        W36214   4.916  13.682   3.643  0.1656  0.2506 -0.1864
19367W        W36215   4.629   9.262  12.808  0.2985 -0.0845 -0.0382
19368W        W36216   1.989   3.558  13.782 -0.4741  0.2358 -0.1227
19369W        W36217   7.386  11.977  14.485 -0.3205 -0.0168 -0.3244
19370W        W36218   9.353   2.663   2.251 -0.1218  0.0229 -0.2333
19371W        W36219  10.999   1.639  15.315  0.1782 -0.1489 -0.1798
19372W        W36220  16.988   2.239  13.605 -0.0650  0.1986  0.1392
19373W        W36221   1.390  12.553   3.682  0.1636 -0.0501 -0.1466
19374W        W36222   9.717   6.543  17.545 -0.0729 -0.3159 -0.0085
19375W        W36223  13.892  12.887   0.625  0.3482  0.0999  0.1395
19376W        W36224  14.834  15.330  17.001  0.1466 -0.0235  0.4173
19377W        W36225  14.882   1.394   5.458 -0.0979 -0.0793 -0.0228
19378W        W36226   5.766   0.804   3.487  0.1359 -0.3155  0.0905
19379W        W36227  13.556   7.821   0.548  0.2688  0.1099  0.1534
19380W        W36228  14.369  12.689   0.337 -0.0101  0.1295 -0.3270
19381W        W36229  15.986   2.185  12.566 -0.1245  0.2242  0.2547
19382W        W36230   2.448   2.336   1.161 -0.1271  0.3465  0.3216
19383W        W36231  13.772   7.834   3.158 -0.2563  0.0481  0.0802
19384W        W36232   9.799  12.042   0.204  0.1072  0.1545 -0.2236
19385W        W36233  14.327   7.146  11.455  0.2470  0.1201 -0.1187
19386W        W36234   2.199  15.370  12.894 -0.0836  0.2304 -0.0722
19387W        W36235   3.393   9.967  13.217 -0.3721 -0.1955 -0.1700
19388W        W36236  13.268   2.287   0.238 -0.1098 -0.2486 -0.0807
19389W        W36237  11.979   8.768   1.986 -0.1636  0.2395  0.1101
19390W        W36238   5.404  14.996   5.085  0.2881  0.2886  0.0521
19391W        W36239  15.053   9.289   2.309 -0.1121  0.1440  0.1098
19392W        W36240  17.073   3.018   1.922  0.3596 -0.1426 -0.0810
19393W        W36241   7.041  12.503  15.910  0.1568  0.1282 -0.2410
19394W        W36242  11.283   8.415   3.917 -0.1095  0.0530 -0.4735
19395W        W36243  16.266  14.131  15.598 -0.0368 -0.1060  0.1055
19396W        W36244   7.869   5.885   4.704  0.0947  0.0142  0.2161
19397W        W36245   1.422   4.757   3.548 -0.2379 -0.0240  0.2778
19398W        W36246   3.928   1.340  15.994  0.4303  0.3847  0.2599
19399W        W36247   7.245  15.930   5.198  0.1112  0.0473 -0.0836
19400W        W36248   6.096   3.709  16.421  0.0548  0.2050 -0.0148
19401W        W36249  11.243   2.519   2.357 -0.0507  0.1670 -0.1494
19402W        W36250   4.815  11.672   5.582  0.2245 -0.1297 -0.0205
19403W        W36251  14.081   3.082   4.122 -0.1702 -0.1316  0.3379
19404W        W36252   9.686  11.795   4.339 -0.3945  0.0018  0.2844
19405W        W36253   7.052  14.102   4.386  0.2168 -0.0790  0.1306
19406W        W36254   8.263  14.425  15.639  0.0509  0.2404 -0.0483
19407W        W36255   1.387   0.290   6.469  0.1681  0.2559 -0.0979
19408W        W36256  13.704   8.008  15.352  0.2905 -0.1363  0.1067
19409W        W36257   9.843  15.613   0.339  0.1505 -0.2416 -0.1419
19410W        W36258  12.828  16.029   2.212 -0.0541 -0.2913 -0.0217
19411W        W36259  15.064   5.294   0.713  0.2259 -0.0527 -0.3236
19412W        W36260   2.809   1.928   4.920  0.5046 -0.1245 -0.0863
19413W        W36261  10.950   7.597  14.515 -0.0593 -0.1594  0.5630
19414W        W36262  12.528   9.480   2.208 -0.0339  0.1997 -0.1079
19415W        W36263  10.287   4.988   4.306  0.1306  0.0042  0.3806
19416W        W36264   3.031   1.365  13.608 -0.2031  0.0372  0.0344
19417W        W36265   4.417   8.222   2.306 -0.0237 -0.1245 -0.1789
19418W        W36266  15.056   9.561  17.331 -0.0454 -0.1548  0.0409
19419W        W36267   6.376   2.569  14.812  0.0814  0.2020  0.2050
19420W        W36268  15.259   7.525   0.918  0.2666  0.1938  0.1493
19421W        W36269  10.047  13.643  16.850 -0.0618  0.2569 -0.1506
19422W        W36270  12.616  10.574  16.004 -0.6582 -0.0052  0.2554
19423W        W36271   9.810  10.734  15.544  0.0902  0.0397  0.0642
19424W        W36272   3.350   1.153  16.170  0.0788  0.1215  0.2302
19425W        W36273   1.752   1.925  14.919 -0.0643 -0.0283  0.1458
19426W        W36274  10.477   6.043  17.137 -0.0840  0.2539 -0.1127
19427W        W36275   8.688   6.553  15.678  0.1959 -0.1422  0.0627
19428W        W36276  12.943   4.851   2.321 -0.0775  0.2335  0.1651
19429W        W36277   3.078  14.542   0.245  0.2249  0.1605 -0.0084
19430W        W36278  13.968  10.547  13.773 -0.1738  0.3229 -0.0710
19431W        W36279  13.811  14.011  15.034  0.0356 -0.0209  0.0795
19432W        W36280   7.240   1.713  16.405 -0.2573  0.3189  0.1731
19433W        W36281  10.118  10.242  13.137  0.0444  0.1500 -0.2475
19434W        W36282   9.695   1.055  15.464  0.1991 -0.0212 -0.0117
19435W        W36283  16.058   6.225   0.478  0.2187  0.1452  0.1346
19436W        W36284   7.533   1.955  13.472 -0.2163 -0.0707 -0.0529
19437W        W36285  14.526  10.764   5.849 -0.1931  0.2152 -0.2487
19438W        W36286   5.934  16.435  11.916  0.2955  0.1671 -0.2161
19439W        W36287  16.235   0.762  16.651 -0.1493 -0.0104  0.0670
19440W        W36288  15.943  16.406   3.259 -0.1713  0.1515 -0.1404
19441W        W36289  11.099   6.503  16.682  0.3251  0.0562 -0.1052
19442W        W36290  12.321  11.336  14.933 -0.0603  0.1921 -0.1629
19443W        W36291   1.267   8.814  12.790  0.1143  0.1697 -0.0233
19444W        W36292  16.413  10.675   4.142 -0.0842  0.1105 -0.2515
19445W        W36293   1.391   2.951  12.791  0.3386 -0.0025 -0.1762
19446W        W36294  13.646   1.073  13.479  0.1141  0.1491  0.3326
19447W        W36295   9.500   6.716  15.908 -0.3122 -0.0754 -0.1482
19448W        W36296  15.538   8.806  12.174  0.2880  0.0347 -0.1842
19449W        W36297   6.155   1.762  13.165  0.2553  0.1417  0.0117
19450W        W36298   2.047   9.612   2.851 -0.1049 -0.1592  0.0785
19451W        W36299   9.343   8.195   4.180  0.1137  0.0750 -0.2151
19452W        W36300   7.867   9.731  13.827  0.0596 -0.1759 -0.0387
19453W        W36301  16.450  15.101  16.888 -0.4214  0.2008  0.0818
19454W        W36302   7.148   6.475  15.534  0.2002 -0.2266 -0.0913
19455W        W36303   0.911  12.636   5.840  0.0005 -0.0288  0.0725
19456W        W36304  10.627   3.149  16.464  0.0734 -0.3305  0.0898
19457W        W36305   3.182  11.877   4.284  0.2760 -0.0612  0.0493
19458W        W36306  16.462   5.592   2.181 -0.4265  0.0488 -0.2174
19459W        W36307  17.005   2.860  14.406 -0.0848  0.0922 -0.0084
19460W        W36308  15.659   0.690   4.693 -0.0268  0.1282  0.3008
19461W        W36309   4.959   4.123   2.668 -0.1839 -0.0365  0.1008
19462W        W36310   5.124   9.291  17.076 -0.0752  0.0195  0.3063
19463W        W36311   9.622   0.721   1.771  0.2658 -0.1443  0.0771
19464W        W36312   7.944   9.237  13.869  0.2566  0.0573  0.1590
19465W        W36313  13.085   8.783  17.414 -0.0351  0.2233  0.1734
19466W        W36314   9.065  10.323  15.912 -0.1137  0.0446 -0.0197
19467W        W36315   6.101   7.166  17.143  0.2125  0.1364  0.1426
19468W        W36316   8.118  14.989  15.650  0.4258 -0.0871  0.1518
19469W        W36317   2.829   1.639  16.606 -0.0920 -0.0689 -0.0723
19470W        W36318  10.175  16.985  13.929  0.3057  0.0894  0.0865
19471W        W36319   3.684   3.761   1.230  0.3453 -0.0830 -0.2493
19472W        W36320   6.240   7.540   0.643  0.1787  0.0035  0.0392
19473W        W36321   1.316   0.084   3.677  0.0168 -0.0941  0.1262
19474W        W36322   6.373   2.948  12.339  0.3275  0.3653 -0.0314
19475W        W36323   9.284   5.740   1.520 -0.1040  0.6402 -0.0579
19476W        W36324   6.587  14.946   1.712  0.0594  0.0533 -0.0599
19477W        W36325   4.771   8.210   5.184  0.0136 -0.0942  0.2902
19478W        W36326   4.674   1.981  16.356  0.1373  0.2584  0.1224
19479W        W36327   0.059   7.987   0.791  0.0524 -0.0149  0.0007
19480W        W36328  12.492   8.143  15.942 -0.0548  0.1785  0.0594
19481W        W36329   6.446   3.110  14.477  0.1076 -0.3686 -0.0616
19482W        W36330   5.680   9.327   5.566  0.1436 -0.0283  0.0893
19483W        W36331   2.035   9.119   4.103 -0.1059 -0.0498  0.0668
19484W        W36332  11.084  13.019  15.962  0.0656  0.0304  0.2008
19485W        W36333   1.259   0.386  17.250 -0.2126 -0.0050  0.0877
19486W        W36334   1.089   9.618  17.195  0.0106 -0.0363 -0.1726
19487W        W36335  10.599   6.479  16.851 -0.1955  0.1170 -0.2193
19488W        W36336  11.852   6.863   4.249  0.0086  0.0433  0.0765
19489W        W36337   2.120   4.283   3.216  0.0805  0.1073  0.2842
19490W        W36338  15.415   1.141  17.401 -0.1266 -0.4633  0.1561
19491W        W36339   5.608   4.705   4.350  0.3269 -0.1471  0.1500
19492W        W36340   4.326   0.424  14.821 -0.1963  0.1249  0.1785
19493W        W36341  14.881   1.854   6.407 -0.0173 -0.0404 -0.1721
19494W        W36342  12.936   1.497  16.387  0.1171  0.2111 -0.3274
19495W        W36343  17.113  15.941   2.625 -0.0637  0.0118  0.0785
19496W        W36344   7.127   7.691  12.251 -0.3879  0.1634  0.0581
19497W        W36345   9.634   3.634  12.202 -0.0030  0.0304  0.0249
19498W        W36346   7.908  15.989  17.586  0.2238 -0.1247 -0.0692
19499W        W36347   9.929  14.091   1.009 -0.2456 -0.1527  0.0242
19500W        W36348   9.220  12.629   0.072  0.1645  0.1887 -0.1580
19501W        W36349  15.127   6.899  17.280  0.0954 -0.1298  0.1552
19502W        W36350   3.804   4.659   2.608  0.1355  0.0714 -0.0271
19503W        W36351   1.364   7.226  12.942 -0.2633  0.0752 -0.2153
19504W        W36352  13.018  14.625  14.187 -0.1564 -0.0779  0.1468
19505W        W36353   6.372   7.600   2.718  0.0532  0.2181  0.0583
19506W        W36354   7.385  13.911   2.058  0.2288 -0.1393  0.1526
19507W        W36355  12.878   1.888  16.051 -0.0525 -0.1789 -0.1626
19508W        W36356  14.672   9.679   3.371  0.0112 -0.1244  0.0699
19509W        W36357   5.201  14.459   0.277 -0.3046  0.1288 -0.1509
19510W        W36358   4.051   3.226  17.294  0.0163  0.2724  0.0906
19511W        W36359  15.297  16.265   5.208 -0.0920 -0.1326 -0.1301
19512W        W36360  11.803   4.885  13.573  0.1289  0.0219  0.0312
19513W        W36361  11.603  12.954   1.952 -0.1647 -0.2430 -0.0181
19514W        W36362  10.845   2.317   0.719  0.0849  0.1427 -0.1661
19515W        W36363  15.554   4.430  14.638 -0.0357  0.0530  0.1543
19516W        W36364   4.287   5.465   0.470 -0.2866  0.1545 -0.0109
19517W        W36365  11.129   8.680  14.961  0.0680  0.1807  0.0423
19518W        W36366  16.594   7.587  14.611  0.1409 -0.1555 -0.1827
19519W        W36367  14.367   2.429   4.820  0.2343 -0.0291  0.1099
19520W        W36368  10.155   7.720  16.360  0.0640  0.3728  0.0784
19521W        W36369   6.825   6.605   2.945 -0.0007  0.1039  0.2699
19522W        W36370   2.920   6.390  11.516  0.0116  0.0206 -0.2476
19523W        W36371   1.307  14.547   4.900  0.1604 -0.0045 -0.0365
19524W        W36372  16.741  13.304  13.397 -0.1512 -0.4231 -0.1712
19525W        W36373  15.132   6.356  12.608 -0.1337 -0.0797 -0.2618
19526W        W36374  14.460   3.939  16.326  0.1255  0.1020 -0.0950
19527W        W36375  14.106  10.821  14.164  0.0401 -0.2581 -0.2288
19528W        W36376   5.073   0.189  15.376 -0.1560  0.3750  0.2352
19529W        W36377   6.071   5.468  16.531 -0.1084 -0.0428  0.1899
19530W        W36378  10.905   2.593  14.186 -0.0900  0.2284 -0.3823
19531W        W36379   2.724   0.194  14.461 -0.3571 -0.0660 -0.0997
19532W        W36380  12.853  15.185   5.801 -0.0776  0.3057 -0.0784
19533W        W36381   4.318  12.873   5.042 -0.0698  0.1940 -0.0060
19534W        W36382   6.547   0.938   3.569 -0.0873  0.1964  0.3511
19535W        W36383   7.241  16.829   4.141 -0.1170  0.0586  0.1248
19536W        W36384   8.560  10.000   0.716 -0.2748  0.2114 -0.0798
19537W        W36385   8.504  11.401  16.295 -0.0476 -0.1677 -0.1978
19538W        W36386   1.538  13.539   3.112 -0.3535 -0.2629  0.0968
19539W        W36387   7.303   1.407   0.903 -0.0886  0.1195  0.0440
19540W        W36388   5.673  12.162  13.107  0.0740  0.0935 -0.0079
19541W        W36389   9.924   6.878   1.681  0.1977  0.0003  0.1680
19542W        W36390  14.484  12.573  16.227 -0.1784  0.0497  0.0213
19543W        W36391   2.702   7.095   1.917  0.0742 -0.0563 -0.0799
19544W        W36392   9.847   8.355   1.892  0.1508 -0.5452  0.1023
19545W        W36393  16.764   8.762   4.362 -0.0096  0.0948 -0.0260
19546W        W36394   3.822  15.315  14.081 -0.2544  0.0117  0.2638
19547W        W36395   6.611   4.337   0.146  0.1429  0.4522 -0.0672
19548W        W36396   7.752   2.115   4.338 -0.3472 -0.0764  0.3914
19549W        W36397  11.082   4.169  12.490 -0.0240 -0.0721  0.0101
19550W        W36398   6.760  15.186   3.138  0.0663  0.2790 -0.1008
19551W        W36399   5.906   4.048  13.229  0.2620 -0.0104 -0.0414
19552W        W36400  10.419   8.969   4.863 -0.4877 -0.1821 -0.3719
19553W        W36401  13.111   1.950   2.824  0.0987  0.2499  0.2322
19554W        W36402  11.739   8.239   3.798  0.0700  0.1502  0.0093
19555W        W36403  11.917  13.395   2.009  0.0857 -0.3953  0.0450
19556W        W36404   8.765   7.647   3.256 -0.0687  0.0901 -0.1883
19557W        W36405   9.363  15.234  15.981 -0.4055 -0.0292  0.4095
19558W        W36406  10.366  11.444   5.002  0.0522  0.1636 -0.3164
19559W        W36407   5.704   0.338   2.039  0.0283  0.2504 -0.1706
19560W        W36408  14.758   2.645  17.003 -0.0074 -0.0549 -0.2102
19561W        W36409   1.121  13.530  17.574  0.2333 -0.1363 -0.0470
19562W        W36410   8.893  16.697   2.000 -0.0792 -0.2560  0.2799
19563W        W36411   4.883   5.079  15.697 -0.0350 -0.2015  0.2206
19564W        W36412  11.493  15.464   3.896  0.0760 -0.2135  0.2669
19565W        W36413   1.659  12.720   0.052  0.2183  0.0205 -0.3244
19566W        W36414   9.290   2.858   3.703  0.0632 -0.1656  0.3590
19567W        W36415  11.432   6.113   3.322  0.0833 -0.0756 -0.2842
19568W        W36416  16.309  11.053  14.925 -0.0092  0.1842 -0.1103
19569W        W36417   7.151   1.046   4.889 -0.1982  0.1255  0.1340
19570W        W36418   5.343  12.590   5.294 -0.1062 -0.0132  0.0691
19571W        W36419  13.276   4.189   1.100  0.0360 -0.0376 -0.1373
19572W        W36420   5.723   8.836  15.890  0.1238 -0.0137  0.1352
19573W        W36421   7.099   1.201   3.571  0.1896 -0.0279 -0.2284
19574W        W36422   7.003   8.240  12.646  0.4435  0.0636 -0.2860
19575W        W36423  15.477  12.138   2.441 -0.1288 -0.1972  0.0310
19576W        W36424   5.599   3.503  12.898 -0.0582  0.2460  0.1246
19577W        W36425   1.623   1.758   4.134 -0.2965 -0.1201 -0.1606
19578W        W36426   6.616  11.645   3.628  0.1047 -0.1742  0.0387
19579W        W36427  14.429   0.948  13.391 -0.1604 -0.0246  0.1005
19580W        W36428   0.700   0.753  17.258 -0.0854  0.1602  0.2455
19581W        W36429   2.918  11.042  16.377  0.0412 -0.1914 -0.0686
19582W        W36430  15.691   3.737  12.995  0.1634 -0.0908  0.2262
19583W        W36431   3.504  17.117  16.850 -0.0873 -0.0912  0.1357
19584W        W36432   3.413  10.152   5.112  0.1731 -0.1580 -0.1860
19585W        W36433   2.236   1.917   2.315  0.1147  0.2336  0.0085
19586W        W36434  16.765  13.149  15.452  0.2052  0.0429  0.0816
19587W        W36435   2.238   8.116  15.697 -0.1537  0.0023  0.3237
19588W        W36436   1.788   9.930  17.257  0.0008  0.1305 -0.2365
19589W        W36437   6.135   6.564   1.980 -0.3993  0.0386  0.0886
19590W        W36438  11.655   0.562  16.092  0.1242  0.0860  0.1592
19591W        W36439   1.415   9.242  16.912 -0.0347 -0.3098 -0.4840
19592W        W36440  14.116   7.979  12.738  0.0331 -0.2165  0.3163
19593W        W36441   6.029   5.377   4.560 -0.0860  0.1177 -0.1582
19594W        W36442   0.483   1.087   5.643 -0.2515  0.2916  0.0719
19595W        W36443   3.128  15.563  13.933  0.2014 -0.0985  0.0853
19596W        W36444   0.425  13.827  15.608 -0.2543 -0.1564  0.1858
19597W        W36445   0.244   8.341   1.895  0.4362  0.0783  0.0044
19598W        W36446   5.350  11.435  13.636  0.2212 -0.0022  0.2068
19599W        W36447  15.281   9.826  17.696 -0.1655  0.0515  0.2556
19600W        W36448   5.858   9.356  13.233  0.1163 -0.0191 -0.0460
19601W        W36449   8.822   2.322  14.005 -0.1222  0.0295 -0.3088
19602W        W36450  12.558  11.732  12.265  0.4207 -0.2049 -0.0764
19603W        W36451   4.245   7.415   1.229 -0.0818  0.0207 -0.1123
19604W        W36452   9.474  11.039  14.098  0.0844  0.0278 -0.0592
19605W        W36453  11.384   8.414  17.357 -0.4462  0.0093 -0.1173
19606W        W36454  14.307   3.899   4.633  0.0078  0.0470 -0.0639
19607W        W36455   6.331  11.947  12.516 -0.2601  0.0186 -0.0207
19608W        W36456   2.669   8.727   3.711 -0.0523 -0.1059  0.0636
19609W        W36457   2.585   9.625   3.559  0.0086 -0.1158  0.0608
19610W        W36458  15.896  14.672   5.457 -0.1006  0.5401 -0.2432
19611W        W36459   2.831   9.901   0.374  0.1127  0.1816 -0.1876
19612W        W36460   6.124  14.502  13.093 -0.1364  0.1867 -0.4400
19613W        W36461   2.616  12.003   2.986  0.0395  0.0251 -0.1015
19614W        W36462   8.938   2.783  13.889  0.1167 -0.1041 -0.0882
19615W        W36463   6.364  10.201   5.191  0.2969  0.1486  0.0757
19616W        W36464  12.062  12.605   2.048 -0.0326  0.0948  0.0116
19617W        W36465   5.616  16.247  13.670  0.1489  0.2471  0.0493
19618W        W36466  11.128  11.451   3.421 -0.0032  0.0170  0.1684
19619W        W36467   9.945  13.236  17.605  0.0201 -0.3556 -0.2998
19620W        W36468   4.396  14.489  14.672  0.0112 -0.0493 -0.2251
19621W        W36469   4.905  16.420   3.095  0.0213  0.0787  0.3123
19622W        W36470   9.795  13.923  14.023  0.0901 -0.2317 -0.0100
19623W        W36471   0.793  14.778  17.456 -0.0174 -0.3330  0.0582
19624W        W36472   3.727   4.776   3.710 -0.1782  0.1188  0.0286
19625W        W36473   5.511   1.880   4.790 -0.1111 -0.1267 -0.4412
19626W        W36474  14.743   1.563  14.700 -0.0978  0.0830 -0.1564
19627W        W36475   0.498  10.989   7.064  0.0453 -0.1928 -0.4126
19628W        W36476  12.963  17.012  15.077 -0.0873  0.3240  0.2814
19629W        W36477  14.068  14.552   3.486  0.0597 -0.2567  0.0212
19630W        W36478   5.526  11.875  16.993 -0.0858  0.2975  0.3534
19631W        W36479   1.233   6.917   1.750 -0.0714 -0.1793 -0.2422
19632W        W36480   9.545   9.529  12.759 -0.1470 -0.0198 -0.0155
19633W        W36481   2.444  16.747   2.482 -0.2818 -0.0977 -0.0620
19634W        W36482  15.793  15.127   5.133 -0.0247  0.0244 -0.0132
19635W        W36483   2.667   9.623   4.447 -0.1348 -0.0827  0.2964
19636W        W36484  16.714   9.212  16.286 -0.0173 -0.4110 -0.1634
19637W        W36485  12.707   8.008  14.069 -0.0870 -0.2619  0.2446
19638W        W36486  16.805  10.589   3.861  0.1678  0.1139 -0.1129
19639W        W36487  16.329  15.335  14.082  0.0859  0.0807 -0.2513
19640W        W36488  16.383  16.500  13.875 -0.1135  0.0405 -0.1607
19641W        W36489   4.524  12.669   1.695  0.0504  0.1352  0.0193
19642W        W36490  10.524  13.645   5.305  0.1152  0.1896 -0.0368
19643W        W36491   8.454   7.726  17.092  0.0747 -0.0672  0.1394
19644W        W36492   4.344  11.967  17.699 -0.0534 -0.1409  0.1913
19645W        W36493   5.714   8.277   1.209  0.2312 -0.2373 -0.0790
19646W        W36494  12.474  14.740   4.766 -0.0315  0.2682 -0.0909
19647W        W36495  12.468   3.649   2.910  0.0015  0.1306  0.1182
19648W        W36496  11.193   5.894  11.875 -0.0885  0.0549 -0.0412
19649W        W36497  10.877   3.304   4.097 -0.2057 -0.0326  0.2367
19650W        W36498   3.688  14.995   2.613 -0.0934 -0.0225 -0.0347
19651W        W36499  11.192   5.791  13.412  0.1939  0.0299  0.0817
19652W        W36500  16.584   4.066  12.675  0.2451  0.1513  0.2307
19653W        W36501  10.296  12.742   2.591 -0.3018 -0.2393 -0.1556
19654W        W36502   3.581   6.285   5.859 -0.0230  0.3456 -0.3085
19655W        W36503   4.617   2.664   0.610 -0.2505 -0.0048  0.0248
19656W        W36504  15.629   0.883   0.253 -0.1408  0.2771 -0.2100
19657W        W36505   8.572   4.727  14.791 -0.0385 -0.2132 -0.3062
19658W        W36506   2.016  11.290   4.092  0.1840 -0.0848  0.5167
19659W        W36507   8.055  14.766  15.192 -0.1800  0.0016  0.1019
19660W        W36508  13.372   1.171   3.926  0.1405 -0.0652 -0.0500
19661W        W36509   7.984  13.564  12.961 -0.1103  0.1844  0.1965
19662W        W36510   1.990  15.279   5.174 -0.1095  0.0471 -0.0030
19663W        W36511   1.550   1.400  17.015  0.0525 -0.1980  0.2846
19664W        W36512   4.645   9.558  16.170 -0.3026 -0.5206  0.0922
19665W        W36513  11.149   0.742  15.136 -0.0254 -0.4329  0.0362
19666W        W36514   1.655   5.228  16.262  0.1179 -0.2197 -0.0610
19667W        W36515   6.026   6.171  13.610 -0.0525 -0.1348 -0.0167
19668W        W36516   1.249   5.677   1.072  0.2601  0.0359 -0.0381
19669W        W36517   2.128   7.322   3.261  0.1751  0.1885 -0.0091
19670W        W36518   4.508   5.303   2.494  0.0559  0.0275 -0.2227
19671W        W36519  13.980  10.544  13.274  0.1136 -0.1768 -0.1538
19672W        W36520   1.040   5.782  16.644  0.2435 -0.1276 -0.0934
19673W        W36521  17.096  13.388  15.072 -0.2342 -0.1447 -0.1364
19674W        W36522  10.816  14.762  14.218 -0.4666 -0.0657  0.0788
19675W        W36523   4.124  10.404   3.739  0.1686 -0.2140  0.2998
19676W        W36524   8.019   2.367   3.060  0.0815  0.0445  0.2391
19677W        W36525   6.830  10.419   0.427  0.0664  0.1490 -0.0915
19678W        W36526  13.016   8.829   5.470 -0.0085  0.2649  0.1395
19679W        W36527   7.828   0.455   4.896  0.0588  0.0766 -0.3805
19680W        W36528  15.034   0.437  14.920 -0.1517  0.0374  0.2885
19681W        W36529   8.529  12.531  12.048  0.0377 -0.0872 -0.1108
19682W        W36530   2.459  11.868  13.778 -0.1323 -0.3152 -0.1223
19683W        W36531   9.264  12.811   3.218 -0.0030 -0.1575  0.1619
19684W        W36532   7.038   3.021  14.648 -0.0408 -0.3252  0.0883
19685W        W36533   4.235   4.304  12.600 -0.0283  0.1366 -0.2328
19686W        W36534   2.077   3.386  16.828 -0.1944  0.2749 -0.0048
19687W        W36535   3.537   9.905  14.640  0.0026  0.1202  0.0241
19688W        W36536  10.035   0.518  16.165  0.0802 -0.0106  0.2483
19689W        W36537   2.759  11.865   2.526 -0.1542  0.2361 -0.2200
19690W        W36538  11.256  15.226  15.441 -0.1187  0.0783  0.2454
19691W        W36539  15.540   4.971  14.891 -0.0925  0.1911 -0.2491
19692W        W36540  15.515   7.651   4.829 -0.0017 -0.1132 -0.1017
19693W        W36541  10.218   7.372   3.699 -0.0160  0.3369  0.1447
19694W        W36542   5.660   2.064  15.058  0.1522 -0.0123 -0.3259
19695W        W36543   4.524   8.687  14.172  0.0048  0.1921  0.1535
19696W        W36544   0.568   5.425  12.299  0.1449  0.1634 -0.1022
19697W        W36545   7.022  14.052   5.898 -0.0743  0.3971  0.1651
19698W        W36546  13.945   5.914  12.502 -0.0043 -0.4634  0.2327
19699W        W36547   5.149  11.585  16.999  0.0958 -0.0175  0.2458
19700W        W36548  13.345   1.153  13.888 -0.1593  0.4118 -0.0884
19701W        W36549   2.477   2.479  14.832  0.0964  0.1453 -0.2324
19702W        W36550  16.852   2.012   5.399  0.2453 -0.2427 -0.3153
19703W        W36551   8.793   0.909  12.771 -0.2780  0.0147  0.0469
19704W        W36552   8.122  15.508  13.930 -0.1682 -0.1269  0.0005
19705W        W36553   3.965  16.005  16.716 -0.0248 -0.1019  0.0866
19706W        W36554   6.255   1.450  16.407 -0.1472  0.1825  0.2575
19707W        W36555   9.278   6.876   4.857  0.2657  0.5409  0.2317
19708W        W36556  12.709  10.775   5.504 -0.0727 -0.0388 -0.2102
19709W        W36557   2.063  13.703  13.089 -0.1231 -0.0515 -0.0758
19710W        W36558  10.471   8.128   3.892 -0.0802  0.3005  0.0455
19711W        W36559   4.320   7.997   6.668 -0.0687  0.1588  0.2013
19712W        W36560   3.780   3.896  13.548 -0.1497  0.2944 -0.0650
19713W        W36561   8.438   4.825   3.299 -0.0510  0.2525  0.0940
19714W        W36562   7.693   0.076  13.621  0.1587  0.0242 -0.0705
19715W        W36563   8.469   3.047   2.371 -0.3078  0.0920  0.0647
19716W        W36564   9.416   8.668  12.931 -0.0034  0.2800  0.0174
19717W        W36565   2.701  15.296  17.069  0.1180  0.0244  0.0259
19718W        W36566  15.640  16.303  17.049 -0.4788 -0.1222  0.1275
19719W        W36567   8.892  16.058   1.130 -0.2154 -0.0125 -0.1193
19720W        W36568  12.207  11.209  15.432 -0.0483  0.3937  0.1373
19721W        W36569   0.479  13.107  14.074  0.1278 -0.0633 -0.0315
19722W        W36570   6.504   1.522   3.608 -0.2736  0.0595 -0.0740
19723W        W36571   4.456  11.306   0.758 -0.0505  0.0645 -0.2052
19724W        W36572  15.261   8.954   5.474  0.0827  0.0474 -0.0483
19725W        W36573   3.560   8.920   2.062 -0.4081  0.0400 -0.1153
19726W        W36574   3.194   8.124  16.426  0.0702 -0.1393 -0.2443
19727W        W36575  13.611   8.946   4.766 -0.2399 -0.0939  0.1037
19728W        W36576  14.965  13.432  15.058 -0.1959 -0.2833 -0.0694
19729W        W36577   0.629   8.054   1.564 -0.1461 -0.2917  0.0482
19730W        W36578   5.875  15.208   5.228  0.2185  0.0012  0.2043
19731W        W36579  11.618   7.452   4.909  0.2207 -0.0544 -0.0404
19732W        W36580   7.050  11.287  13.007 -0.0653 -0.1377  0.0570
19733W        W36581  15.698  10.936  15.200  0.0802  0.1186  0.3231
19734W        W36582   9.774  16.824  12.252  0.0085 -0.0179  0.2565
19735W        W36583   6.894   7.290  12.447  0.0420  0.0187 -0.1347
19736W        W36584   3.526   2.896   1.621  0.0206 -0.2984  0.3199
19737W        W36585  10.636  12.572  14.728 -0.1408  0.1204 -0.0154
19738W        W36586   3.492   2.810   5.280 -0.3220  0.0520  0.2040
19739W        W36587  13.255   9.237   3.067 -0.0000  0.0572  0.0559
19740W        W36588   3.088   9.071  14.340 -0.0641  0.0915  0.1111
19741W        W36589  12.961  15.893  17.195  0.2197 -0.0323 -0.2925
19742W        W36590  15.327  10.130   4.936  0.1510 -0.0007  0.1747
19743W        W36591   0.831   3.203  16.769 -0.3975 -0.1624  0.0925
19744W        W36592   1.880  14.221   1.831  0.0907 -0.1230  0.0273
19745W        W36593   1.689   1.741  13.914 -0.1945 -0.0429  0.0210
19746W        W36594   3.702  15.458  12.294  0.0253 -0.2819 -0.2326
19747W        W36595   7.389  10.221   0.264  0.1670  0.0335 -0.0814
19748W        W36596   2.359   7.355  14.823  0.1123 -0.1795 -0.1350
19749W        W36597   8.531   6.914  13.661 -0.3021 -0.1475 -0.0575
19750W        W36598   9.982  16.417  16.916 -0.2040 -0.2469  0.0538
19751W        W36599  14.434   7.529   1.961 -0.1043 -0.0244  0.1850
19752W        W36600  16.762  10.154   2.727  0.0523  0.0635  0.2234
19753W        W36601   0.247  12.080   1.254 -0.3706  0.0973 -0.0962
19754W        W36602   8.090   0.096  16.833  0.2276  0.1150  0.0481
19755W        W36603   4.911  11.091   5.677 -0.3451  0.0696 -0.2660
19756W        W36604   0.322   0.695   0.565  0.0947 -0.3324 -0.3805
19757W        W36605  12.704   3.043  17.049 -0.0086 -0.0097  0.2794
19758W        W36606   1.727   7.508   5.363 -0.0239  0.0756  0.0776
19759W        W36607  14.235  13.236  13.478  0.0998 -0.1313 -0.0712
19760W        W36608   6.212   0.119  13.363  0.1327 -0.1122  0.0544
19761W        W36609  11.536   4.002  17.536 -0.0286  0.0915  0.0787
19762W        W36610  15.216  16.732   0.064 -0.0739 -0.2554 -0.1720
19763W        W36611   6.013   4.058  12.126 -0.4181  0.3290 -0.0361
19764W        W36612   4.236  14.328   3.331  0.3818  0.1075  0.0433
19765W        W36613  12.692  11.066  14.682  0.2019 -0.0795 -0.2539
19766W        W36614  16.922   5.036  12.299 -0.2536  0.0679 -0.1417
19767W        W36615   1.342  15.325  13.270  0.4454  0.2238 -0.2401
19768W        W36616   7.009   0.432  16.134  0.3758  0.2892 -0.1639
19769W        W36617   4.390   0.727   3.691  0.2218 -0.2863  0.0747
19770W        W36618  15.399   7.740  12.151  0.0125  0.1553  0.1547
19771W        W36619  14.570   3.684  13.504 -0.0333 -0.0709  0.1347
19772W        W36620   4.774   7.099   5.455 -0.2084  0.1989  0.0040
19773W        W36621   9.199   3.394  12.365  0.1651  0.0756  0.0158
19774W        W36622   9.508  15.274  17.279 -0.0469  0.0826 -0.0453
19775W        W36623  15.174   4.896  17.686  0.0722  0.2917  0.1976
19776W        W36624  10.733   2.177  16.262 -0.0644  0.0699 -0.0049
19777W        W36625   6.920   0.545  12.601 -0.2552  0.0182  0.2038
19778W        W36626  12.065   5.206  16.749  0.1654  0.0440 -0.2810
19779W        W36627   5.758   8.680   0.827  0.0885  0.1445 -0.0048
19780W        W36628   8.576   1.091   0.474  0.0836 -0.3693  0.3173
19781W        W36629  10.038   5.611   2.037 -0.0456  0.1525 -0.0201
19782W        W36630  13.686  13.877   0.035 -0.0217 -0.0027 -0.2010
19783W        W36631   5.096  16.693   3.638 -0.1576  0.4787  0.1396
19784W        W36632  14.189  14.045   0.250  0.1561  0.1276  0.1443
19785W        W36633   5.441   0.535   5.855 -0.1863  0.1979  0.1697
19786W        W36634   5.738   3.567   3.139 -0.1092  0.4518 -0.1854
19787W        W36635   1.080   4.647  13.481 -0.0046 -0.2278 -0.5286
19788W        W36636   1.595  10.211  14.782  0.2915  0.1288 -0.2776
19789W        W36637   0.639   6.069   5.986  0.0862  0.0195  0.3449
19790W        W36638  15.170   5.947   0.090 -0.0898  0.4165  0.0806
19791W        W36639  10.437   5.632   4.830  0.0369  0.1948 -0.0623
19792W        W36640   9.482  10.920  16.149 -0.0757  0.0584  0.0799
19793W        W36641  13.231   3.657   4.219  0.1875 -0.0212  0.1888
19794W        W36642  14.741   0.466  16.390 -0.0543 -0.1008 -0.2494
19795W        W36643   2.581   1.624  16.132 -0.1558 -0.0054 -0.0211
19796W        W36644   0.108  11.516   4.680 -0.2722 -0.1273 -0.0546
19797W        W36645  10.956   4.555  17.244  0.0086 -0.0844  0.3265
19798W        W36646   9.652  10.120   2.110  0.3980 -0.0627  0.2274
19799W        W36647   2.367  14.133  17.182 -0.0405 -0.4009  0.3168
19800W        W36648   5.967   3.818  17.406  0.0509 -0.4653 -0.1836
19801W        W36649   4.930  12.915   4.189 -0.0933  0.0732 -0.0035
19802W        W36650   2.468   9.484   5.186  0.2352  0.1613  0.1557
19803W        W36651   4.360   3.245   3.243 -0.0361 -0.1110 -0.0101
19804W        W36652   3.854   9.940  15.954  0.1339  0.0857  0.0096
19805W        W36653  15.978  10.271   0.144  0.0936 -0.0828  0.1896
19806W        W36654  17.141  13.640   4.816  0.1986 -0.0032  0.2494
19807W        W36655  15.254   3.195   0.357  0.2278  0.0816  0.1440
19808W        W36656  10.293   2.273  15.473  0.0945 -0.1169 -0.3981
19809W        W36657  13.678   7.481  14.574 -0.1695 -0.3108  0.0181
19810W        W36658   4.302   0.040  16.564  0.2540  0.2647  0.0504
19811W        W36659  10.368   2.405   4.456 -0.0979 -0.1186 -0.0319
19812W        W36660   0.353  16.365   5.380  0.0377  0.0000 -0.0804
19813W        W36661   7.477   3.857   2.916  0.0191  0.1754 -0.1172
19814W        W36662   9.491  12.797  13.892  0.1362  0.3069 -0.0738
19815W        W36663  15.093   9.342  17.768  0.0364 -0.0078 -0.0342
19816W        W36664  16.071   5.178  15.446  0.0179  0.5152 -0.0259
19817W        W36665   3.340   5.462  14.810 -0.0517  0.2746  0.2106
19818W        W36666   6.958  12.063  13.489  0.4456  0.0083 -0.2510
19819W        W36667   6.748   5.655   2.046  0.3391  0.0846  0.1873
19820W        W36668   6.090  14.399   1.066  0.1365  0.1272  0.1076
19821W        W36669  12.728  15.448  16.493  0.0849 -0.0650 -0.3782
19822W        W36670  15.261  17.014   2.205 -0.1157  0.4187  0.4064
19823W        W36671   9.483   8.589   2.326  0.0782  0.1684 -0.1779
19824W        W36672  16.490   0.159  15.003 -0.0712 -0.2518  0.1316
19825W        W36673   5.921  10.642   5.878 -0.0329  0.2436  0.0404
19826W        W36674  14.551  15.009   0.005  0.0675  0.0900 -0.3137
19827W        W36675   2.990  15.811  12.860  0.2009  0.1720  0.0457
19828W        W36676   4.228  12.927   4.408 -0.0722  0.0340  0.3220
19829W        W36677  16.536   8.280  17.621 -0.1596  0.2148  0.0658
19830W        W36678  12.441  12.777   1.560 -0.0183  0.0582 -0.3955
19831W        W36679   8.026  15.515  16.885 -0.1129 -0.1745 -0.2237
19832W        W36680   7.206   1.223   2.972 -0.0414 -0.1964  0.1819
19833W        W36681   9.950   1.374  12.128 -0.0661 -0.1001 -0.0448
19834W        W36682   1.203   2.059  17.554 -0.0925  0.1417 -0.2660
19835W        W36683   3.257  14.502  11.841 -0.3571 -0.2134 -0.1221
19836W        W36684  17.073  11.174  14.778 -0.0119  0.4602  0.2504
19837W        W36685   7.647   3.381   0.173 -0.2984 -0.2374  0.2422
19838W        W36686   3.640  11.677   2.320  0.1317  0.3720  0.0114
19839W        W36687   9.785  17.146  13.614 -0.4030  0.0871 -0.0362
19840W        W36688   3.691   4.290   3.550 -0.5407 -0.4100  0.1290
19841W        W36689   7.475  16.492  12.131 -0.0666  0.0970  0.0859
19842W        W36690   9.324  13.183   5.151 -0.0260 -0.1529 -0.2353
19843W        W36691   5.938   0.259  15.670 -0.1953 -0.0656  0.0560
19844W        W36692   8.735   7.848  15.543  0.1156  0.0396  0.1560
19845W        W36693  10.363   8.671  17.055 -0.3303 -0.1003  0.3024
19846W        W36694   3.819  13.629   2.266  0.0948 -0.0937  0.0283
19847W        W36695  11.669   1.897   4.701 -0.0386 -0.2171 -0.0887
19848W        W36696   3.689  15.653   5.494 -0.2822 -0.0885  0.0430
19849W        W36697   5.753   8.755   2.199 -0.0213  0.1517 -0.2386
19850W        W36698   4.130  11.457   2.191 -0.5021  0.2244  0.0986
19851W        W36699   1.754   1.054   1.151  0.0897 -0.0820  0.2535
19852W        W36700   1.479   3.548   2.056 -0.1077 -0.0498 -0.0529
19853W        W36701   3.665  14.061  14.513  0.2863  0.0040 -0.6567
19854W        W36702   5.967  13.200   0.346  0.2211 -0.2042  0.0621
19855W        W36703   8.369   5.575   1.148 -0.4373 -0.1371 -0.0330
19856W        W36704   0.999  15.447  14.453 -0.0344 -0.1055  0.5292
19857W        W36705   3.831  10.751  16.103  0.0212  0.1193 -0.1843
19858W        W36706   9.222   3.590  11.900  0.1071  0.0079  0.1217
19859W        W36707   1.187   3.234  12.420  0.3557  0.2239  0.1457
19860W        W36708   8.960  14.549  13.401 -0.0980 -0.0169  0.1071
19861W        W36709   7.566  13.104   1.319  0.1082 -0.1497 -0.0522
19862W        W36710   8.263   8.679   2.414  0.0785 -0.0723 -0.1291
19863W        W36711  14.655   0.289  14.500 -0.1574 -0.1327 -0.1498
19864W        W36712  13.458   7.877   2.726  0.2550 -0.0813 -0.1619
19865W        W36713   5.300   5.232  14.194  0.1571  0.0378  0.1203
19866W        W36714   0.083  15.882  15.486  0.0843 -0.0709  0.3244
19867W        W36715   8.818  11.708   2.450 -0.2084  0.0216  0.1613
19868W        W36716   3.887   4.328   4.594  0.0134  0.0429 -0.0436
19869W        W36717  10.661  15.996   2.806  0.0977 -0.0182  0.3563
19870W        W36718  12.952   6.736  13.340 -0.0424 -0.2178  0.4122
19871W        W36719  14.235   1.017  17.605  0.0589 -0.1836 -0.2375
19872W        W36720  16.036   1.796  16.810  0.3891 -0.2002  0.2699
19873W        W36721  14.148  14.858   2.047 -0.2010 -0.0529 -0.2156
19874W        W36722   7.564   2.526  16.492 -0.2063  0.0883 -0.0066
19875W        W36723  12.976  10.109   5.090  0.1110 -0.0347 -0.0672
19876W        W36724   7.211   5.304  17.501  0.0455 -0.2943 -0.1235
19877W        W36725  13.750  12.195  16.148 -0.0758  0.1914  0.1806
19878W        W36726  16.015  14.521  13.978  0.1336  0.0765  0.0110
19879W        W36727   4.533   2.269  15.081  0.2064 -0.1602  0.5845
19880W        W36728   3.254   3.739   3.552 -0.5831 -0.0704  0.1966
19881W        W36729  13.244  16.387   1.672  0.0701 -0.0374  0.1421
19882W        W36730   6.182   1.305   5.746 -0.1538  0.0782 -0.2072
19883W        W36731   8.831  11.504  15.326 -0.1477 -0.3594  0.0500
19884W        W36732   2.014  10.851  12.518  0.2135  0.1235  0.4126
19885W        W36733   8.879  11.601   4.843  0.1156  0.1447  0.1725
19886W        W36734   6.184  15.282  16.969  0.0123 -0.1576  0.2458
19887W        W36735   1.733  14.953  16.549  0.0994 -0.0769 -0.0559
19888W        W36736   4.681   0.601  15.299 -0.1641 -0.1870  0.0249
19889W        W36737   8.608  16.267  15.717 -0.0502  0.0138  0.0598
19890W        W36738  10.920  12.573   6.403  0.0477 -0.0466 -0.2528
19891W        W36739   4.639   6.742   1.934 -0.3225 -0.1519  0.0262
19892W        W36740  12.897   7.833  15.682  0.1636  0.5406  0.0346
19893W        W36741   9.804  15.695  15.401  0.0693 -0.3113  0.2990
19894W        W36742   2.962   3.814  16.881 -0.3498  0.0263  0.0114
19895W        W36743   8.197   1.790  16.343 -0.2798  0.0419 -0.0116
19896W        W36744   9.618   6.660   5.184 -0.2370 -0.0887  0.2606
19897W        W36745   3.885  11.676   1.297  0.0527 -0.1017  0.1262
19898W        W36746  11.188  14.289   2.934  0.5558  0.1047 -0.0529
19899W        W36747   6.571  10.577   1.271  0.1026 -0.0876  0.0927
19900W        W36748   1.409   2.348   5.073 -0.0872  0.2478  0.1275
19901W        W36749   4.104   4.704  17.674 -0.0477 -0.0519 -0.0136
19902W        W36750   1.390   6.111  15.173 -0.0515  0.1409 -0.1120
19903W        W36751  16.876  12.979  16.533 -0.2144  0.2169  0.0170
19904W        W36752   5.231   6.424   3.716 -0.1013 -0.0349 -0.0605
19905W        W36753  11.889   7.377   4.199  0.2323  0.0410 -0.0580
19906W        W36754  13.190   4.137  15.924  0.0620  0.1471  0.3321
19907W        W36755  14.341   1.214   4.094 -0.3779 -0.0025 -0.1924
19908W        W36756   5.894  10.593  13.114 -0.0099  0.1954 -0.0603
19909W        W36757   3.687   3.142  13.812  0.3075  0.3820  0.0506
19910W        W36758  11.963   7.607  14.717  0.0044  0.1265 -0.0976
19911W        W36759   8.436   9.525   0.795 -0.2226 -0.0319 -0.1887
19912W        W36760   0.426   6.688   2.403 -0.4696 -0.0533 -0.2529
19913W        W36761   6.066   7.877   0.324 -0.0329  0.0974  0.4000
19914W        W36762   8.059   0.346   2.305 -0.2354 -0.0110 -0.2734
19915W        W36763   2.498  14.888  13.800 -0.1486  0.2918 -0.0032
19916W        W36764  13.864   3.074  14.875  0.1506 -0.1626 -0.0028
19917W        W36765   9.927  12.626  15.518 -0.1748  0.1403 -0.0642
19918W        W36766   4.300   7.575  16.894 -0.2818  0.0908  0.1156
19919W        W36767   5.597   1.460   5.076  0.1256 -0.3110  0.0835
19920W        W36768   4.005  13.796  14.724 -0.2495 -0.2579 -0.3160
19921W        W36769   1.675  11.919   0.262 -0.1461 -0.1683 -0.2782
19922W        W36770  10.623  15.665  13.924  0.3599  0.2600  0.3766
19923W        W36771  15.523  13.869  15.606 -0.1770  0.3395 -0.1538
19924W        W36772  15.005   9.092   5.056 -0.0670  0.3603 -0.4039
19925W        W36773   5.997   6.713   3.007  0.1764  0.0246  0.0246
19926W        W36774   3.389   4.593  14.749 -0.0024 -0.1419 -0.0425
19927W        W36775   3.155   8.756   2.575  0.0264  0.0455  0.3389
19928W        W36776   8.844   6.359  14.282 -0.0561  0.3010 -0.3078
19929W        W36777  12.725   6.870  14.403  0.0531  0.2093  0.5308
19930W        W36778  16.166  10.348  13.197  0.0439  0.0018 -0.1177
19931W        W36779  15.319  12.861  16.651 -0.0408 -0.0431 -0.4028
19932W        W36780   3.786   8.210   0.853 -0.1849 -0.0102  0.2235
19933W        W36781   1.038   8.634  17.488 -0.0925  0.0639 -0.0283
19934W        W36782   5.027  11.223  14.041 -0.2526 -0.0706  0.2134
19935W        W36783  16.391   1.845   3.047  0.4014  0.1893  0.1805
19936W        W36784   2.693  12.892   4.194 -0.1197  0.1563  0.1472
19937W        W36785  12.992   0.391   4.387  0.1639  0.2934 -0.1539
19938W        W36786   8.831   8.000  14.482  0.1242  0.5426 -0.1082
19939W        W36787   3.889  15.225  16.113  0.0355  0.0664 -0.0395
19940W        W36788  12.795   5.179   5.070 -0.0753 -0.1767  0.0013
19941W        W36789   8.332  11.780   3.685 -0.0350 -0.4030  0.1207
19942W        W36790   3.367  11.595  17.568 -0.0472  0.0251  0.3800
19943W        W36791  16.981   1.935  13.196  0.4010 -0.0201 -0.1629
19944W        W36792  13.670   5.569   4.514 -0.1653 -0.2111  0.2266
19945W        W36793   0.342   6.963   5.170 -0.0448  0.0338  0.1995
19946W        W36794   0.443   0.624  16.686 -0.1059 -0.1074 -0.1742
19947W        W36795  14.015   3.118  12.644 -0.1832  0.0661  0.2006
19948W        W36796  11.028   7.501   0.082 -0.1144 -0.1600 -0.1835
19949W        W36797   1.693   9.138  15.352 -0.2101 -0.0658 -0.3027
19950W        W36798  15.218   5.942   4.653 -0.1921 -0.1597 -0.0396
19951W        W36799  16.474   9.753   4.340 -0.0011  0.0005  0.2141
19952W        W36800   3.618   1.606  12.954 -0.0222  0.1528  0.0613
19953W        W36801  15.853   0.801   0.693  0.1703 -0.0258 -0.2249
19954W        W36802  13.975   5.168  14.210 -0.2357 -0.1740  0.3990
19955W        W36803   1.295  14.141  16.727  0.0337  0.1752 -0.0531
19956W        W36804  12.312   6.594  14.111 -0.3323 -0.0774  0.2697
19957W        W36805   1.548  10.231  16.913  0.0135 -0.1100  0.0555
19958W        W36806   1.849   7.579  17.556  0.0410  0.1369  0.1750
19959W        W36807   7.624   7.667   1.054  0.1891  0.1280  0.0646
19960W        W36808  10.457   0.725  17.439 -0.1614 -0.1804 -0.1074
19961W        W36809   2.374   4.733  16.553  0.0688 -0.0536  0.0608
19962W        W36810   9.445   2.610  13.473  0.3405  0.1265  0.0998
19963W        W36811  10.265   4.476  12.068  0.0019  0.1206  0.2110
19964W        W36812   8.353   0.795  12.592 -0.2463 -0.1633 -0.1335
19965W        W36813  10.830   9.123  12.667  0.2140  0.5006 -0.0604
19966W        W36814   8.691   9.152   2.437 -0.1906 -0.1165 -0.0436
19967W        W36815  15.301  12.891  14.090 -0.1220 -0.1771  0.1111
19968W        W36816   3.201   9.290   3.219  0.0604 -0.0149  0.2447
19969W        W36817   3.368  14.062   1.623  0.3502  0.0553  0.1469
19970W        W36818   3.316  13.255  15.860  0.4392 -0.2903 -0.0218
19971W        W36819   6.539  16.226   5.777  0.0024 -0.2254  0.2221
19972W        W36820   1.945   4.603   5.280 -0.3190 -0.1091 -0.2727
19973W        W36821   7.621  16.934   0.108  0.3223  0.2176 -0.2091
19974W        W36822  11.483   5.359   1.246  0.1142 -0.4032 -0.1756
19975W        W36823   4.797  15.524   2.898 -0.0886 -0.1362 -0.0705
19976W        W36824  10.283  14.422  13.565 -0.0422 -0.3833  0.0377
19977W        W36825   4.522   0.452   2.522 -0.0249  0.2025 -0.0326
19978W        W36826  12.955   6.438  15.168 -0.0860  0.1278  0.3574
19979W        W36827   4.327   4.081   4.746 -0.1173  0.0240 -0.0610
19980W        W36828  11.727  10.514  13.249 -0.2547  0.0444 -0.0731
19981W        W36829  14.996  11.235   2.559  0.3381 -0.0949  0.0666
19982W        W36830   6.916  12.590   5.320  0.0940  0.2000 -0.0577
19983W        W36831   1.821   4.136   1.137  0.1453  0.0887  0.0410
19984W        W36832   3.627   7.955  17.526  0.3288 -0.1104  0.0120
19985W        W36833   8.116   8.610  15.600  0.2364  0.0647  0.1194
19986W        W36834   7.269   9.761   5.052  0.1957  0.0037 -0.1145
19987W        W36835   0.362   9.086   3.089  0.0445 -0.0866  0.1735
19988W        W36836   5.578  16.805  14.955 -0.2295 -0.1737  0.0840
19989W        W36837   8.235  10.363   4.451 -0.1483  0.0321 -0.0831
19990W        W36838   2.433   2.670  16.963 -0.1560  0.1769  0.1115
19991W        W36839  15.007   0.631  12.830  0.0004 -0.3182  0.2283
19992W        W36840   2.938  12.384   0.750 -0.1094 -0.1497 -0.0092
19993W        W36841  12.050  13.755  15.189 -0.3049  0.0753 -0.1135
19994W        W36842  16.166  15.333   2.370  0.1897  0.0463  0.2549
19995W        W36843   5.278   8.251   1.628 -0.1375 -0.2559 -0.1212
19996W        W36844  15.541   3.738  12.521  0.2714  0.0174 -0.2809
19997W        W36845  14.161  15.800  17.410 -0.0567 -0.1481  0.2949
19998W        W36846  14.676   8.798  16.777  0.1837 -0.0618 -0.0162
19999W        W36847   7.117   5.611   5.983  0.1937 -0.0850 -0.0136
20000W        W36848  10.019  12.060  13.411  0.0043  0.0252  0.1732
20001W        W36849   9.618   2.446  14.315 -0.1151 -0.1302 -0.0164
20002W        W36850   2.708   0.993   5.091  0.2009  0.1837 -0.1589
20003W        W36851  15.281   6.707  12.290 -0.0613  0.1017 -0.1465
20004W        W36852  15.890   1.053  17.639 -0.0632 -0.0988 -0.0261
20005W        W36853   8.099   3.518   0.263  0.1975 -0.0857  0.0184
20006W        W36854   5.425  14.883   4.500 -0.2635 -0.0932  0.2998
20007W        W36855   8.217  10.478  13.426 -0.1353 -0.1458  0.0206
20008W        W36856   3.135  12.587   2.448  0.1018  0.0205 -0.0539
20009W        W36857   6.560   4.866  14.684  0.0194  0.0557  0.0084
20010W        W36858   7.597  14.384  17.357 -0.1798  0.0686 -0.0746
20011W        W36859  11.654   3.445   3.443  0.0072 -0.0793  0.2825
20012W        W36860   4.345  16.005   0.484  0.0282  0.1830  0.2023
20013W        W36861   1.413  13.417  11.758  0.0097 -0.2186  0.2389
20014W        W36862  12.209  15.648   1.591  0.0215  0.0406  0.1117
20015W        W36863   8.020   8.001   0.179  0.0053 -0.2034  0.2493
20016W        W36864   9.183  16.324  11.913  0.2024  0.2284  0.0229
20017W        W36865  10.745   1.437   4.524 -0.1203 -0.1241 -0.3663
20018W        W36866   5.889  10.457  12.573  0.1181  0.0034  0.3263
20019W        W36867   2.736  14.221   2.547 -0.2923 -0.0983  0.1981
20020W        W36868   5.690  12.097   5.353 -0.3649  0.0635 -0.0327
20021W        W36869  15.449   6.862  15.089 -0.0969  0.0444  0.1213
20022W        W36870   9.059  15.069   2.343  0.1336 -0.2161 -0.0449
20023W        W36871  14.317   6.835  16.998  0.0575 -0.0971  0.1630
20024W        W36872   9.761   4.812  15.573  0.1119 -0.3618  0.0031
20025W        W36873   7.024  11.205  12.386  0.0155 -0.0964 -0.3646
20026W        W36874   1.149  15.961  13.587 -0.2010  0.0410  0.0134
20027W        W36875   6.349  10.133  16.030  0.0291 -0.0239  0.0073
20028W        W36876   8.139  10.904  13.658 -0.1773 -0.1830 -0.1237
20029W        W36877  10.973  11.787   1.193  0.1644 -0.1729 -0.1056
20030W        W36878  11.025   5.296   1.481  0.0897 -0.0307  0.2278
20031W        W36879  11.164  12.279   3.819  0.2125 -0.3803  0.1503
20032W        W36880   0.092  16.823  17.086 -0.0074 -0.1524  0.3438
20033W        W36881   6.048   3.752   1.056  0.0282  0.1080 -0.0486
20034W        W36882  11.315   7.855  13.643  0.0917  0.0400  0.4491
20035W        W36883  10.005  16.928   3.784  0.4515  0.0661 -0.3729
20036W        W36884   3.644  10.421   3.267  0.2030  0.0384  0.0908
20037W        W36885  16.547   5.869  12.890 -0.0279 -0.0096 -0.1552
20038W        W36886   2.132  11.167   5.777  0.1159 -0.1469 -0.3289
20039W        W36887   3.646  12.111  13.400 -0.3673  0.0246 -0.0295
20040W        W36888   8.969   3.966   1.659  0.2522 -0.2943 -0.3175
20041W        W36889  14.445  10.219   4.539  0.1064  0.3036  0.1839
20042W        W36890  11.759  10.609  15.688 -0.0683 -0.3418 -0.1330
20043W        W36891   6.275  11.723  13.031  0.0070  0.2920 -0.2016
20044W        W36892  12.792   0.335  13.284  0.3285  0.0883 -0.2448
20045W        W36893   3.613   3.726  15.088  0.1525 -0.0083  0.0388
20046W        W36894   7.872  13.055  16.249 -0.0592 -0.2829 -0.0064
20047W        W36895  12.428   0.343   4.979 -0.0553  0.1061  0.4953
20048W        W36896   6.005   4.115   3.016  0.3955  0.0384 -0.0565
20049W        W36897   1.115   9.042   2.387  0.0434  0.0685  0.1406
20050W        W36898  11.427  10.940   0.261  0.1756  0.0765  0.0529
20051W        W36899  15.780   8.281  17.335 -0.3513  0.1822 -0.3421
20052W        W36900   2.387  10.099   3.634 -0.0226  0.0919  0.3928
20053W        W36901   5.158  12.804   1.000 -0.1988  0.0816 -0.0257
20054W        W36902   5.615  17.074   0.405 -0.1983  0.3693  0.1097
20055W        W36903   6.280   2.694  13.453  0.0678  0.0136 -0.0300
20056W        W36904  11.085  12.314  14.572 -0.3209  0.0411  0.2875
20057W        W36905  11.729   0.133  13.999  0.1481 -0.1445  0.0029
20058W        W36906   4.747   8.546   1.102 -0.4735  0.0273  0.1002
20059W        W36907   7.468  12.699   3.763 -0.2109 -0.2417 -0.2204
20060W        W36908   0.229   4.648   1.202  0.4710  0.0479 -0.1094
20061W        W36909   5.978   4.650   5.764 -0.1296  0.0236 -0.2272
20062W        W36910  12.816   0.963  17.762  0.1962 -0.1695  0.0805
20063W        W36911   3.778   6.821   4.171  0.1808  0.2474  0.1823
20064W        W36912   8.382   2.951   6.192 -0.2415 -0.1427 -0.3086
20065W        W36913   5.904   1.361   0.120 -0.2421 -0.1798  0.1662
20066W        W36914   5.435   2.084   0.776 -0.3663 -0.0982 -0.1861
20067W        W36915  12.140  15.666  16.736  0.1243 -0.1259  0.1008
20068W        W36916   9.295   8.737  16.835  0.3476 -0.1905  0.1816
20069W        W36917   8.797   4.867   3.708 -0.0431  0.0378  0.0811
20070W        W36918   9.429   9.073  14.833 -0.0634  0.0345  0.0942
20071W        W36919  15.936   6.429   3.069  0.0321 -0.2603 -0.1582
20072W        W36920   2.860   4.053   0.527  0.2620  0.2146  0.1467
20073W        W36921   5.868  12.780  13.613  0.2014  0.1922  0.0938
20074W        W36922  10.285   0.101  14.401  0.0878  0.0828  0.3411
20075W        W36923  11.632   7.303   3.110  0.0323 -0.1089 -0.1054
20076W        W36924  17.015  14.601  15.901 -0.1802  0.0016 -0.0994
20077W        W36925   7.883   3.036  12.718  0.0455 -0.1119 -0.0196
20078W        W36926  16.723   8.255  13.200 -0.0787  0.1231  0.1153
20079W        W36927   9.990   9.365  16.910 -0.0703  0.1016  0.2950
20080W        W36928  11.138   3.793  16.050  0.1257 -0.2694  0.2945
20081W        W36929  12.803   1.603  16.880  0.0226  0.0362 -0.1150
20082W        W36930   7.050   1.838   0.608 -0.1501 -0.0894  0.1262
20083W        W36931   5.041   3.171   5.137  0.0818 -0.0359  0.1758
20084W        W36932   7.791  17.116   2.471 -0.2818  0.2196  0.0553
20085W        W36933  14.728   5.126  15.546 -0.0637 -0.1103 -0.1414
20086W        W36934  12.573   5.551  15.785  0.0902 -0.0070  0.1204
20087W        W36935   6.208   0.889   2.620  0.2747 -0.1818  0.1663
20088W        W36936   1.595  10.311   3.592  0.1035 -0.0027  0.3923
20089W        W36937   3.105   7.080  15.014  0.2759  0.0171  0.0853
20090W        W36938   9.809  13.169   1.660  0.3340 -0.0188 -0.0554
20091W        W36939  14.146  13.173   4.246 -0.2617  0.0714  0.2432
20092W        W36940   6.442  15.329  16.403  0.2173  0.0718  0.0593
20093W        W36941   5.684   7.388  15.434  0.1794  0.0279  0.1441
20094W        W36942   0.849   9.825   2.804 -0.2760  0.0783  0.0569
20095W        W36943   5.555  13.537   5.457  0.0386  0.1776  0.1851
20096W        W36944   8.891  11.852  14.773  0.0069  0.4285 -0.0070
20097W        W36945  11.739   3.410   4.504 -0.0363  0.0125 -0.1586
20098W        W36946   0.388   8.722   0.819  0.0533 -0.2724 -0.1139
20099W        W36947   2.768   0.597  15.767 -0.1232 -0.1310 -0.0704
20100W        W36948   6.826  15.839  17.414  0.0900  0.0564  0.2288
20101W        W36949   4.019  16.715  13.848 -0.2006  0.0364  0.0810
20102W        W36950  10.591   5.130  17.540 -0.0919  0.1581  0.3329
20103W        W36951   3.014   1.562   4.589 -0.3066  0.0261  0.0969
20104W        W36952   2.472  13.008  14.049 -0.3591  0.0041 -0.0861
20105W        W36953   6.850   4.181   2.337  0.2096  0.2850  0.1041
20106W        W36954   7.413   1.836  15.712 -0.2650 -0.3085 -0.0482
20107W        W36955   0.426  14.415  13.264  0.1951  0.1905 -0.1687
20108W        W36956  13.371   3.883  14.370 -0.0259  0.0544  0.1698
20109W        W36957  14.011   7.086   2.654  0.2150 -0.1761 -0.1190
20110W        W36958   1.489   5.499   5.128 -0.1959  0.1552 -0.1539
20111W        W36959  10.906   7.569   2.842  0.0872 -0.3687 -0.0645
20112W        W36960  17.123  10.690  14.945  0.0873  0.1740  0.0386
20113W        W36961  17.022   2.157  12.697 -0.0421  0.1562 -0.0601
20114W        W36962  13.164   0.150   2.527 -0.0313 -0.0261 -0.0825
20115W        W36963  10.478   8.349  16.270  0.2332  0.0541 -0.0783
20116W        W36964   7.695   7.708  17.424  0.1802  0.2168  0.2319
20117W        W36965  16.303  15.962  14.708  0.0166 -0.2079 -0.0561
20118W        W36966   8.401   9.655  16.468  0.1075 -0.3777  0.3025
20119W        W36967   0.087  12.686  14.658  0.1048 -0.2004  0.0383
20120W        W36968   2.282  12.313  15.921 -0.2409  0.1943 -0.1756
20121W        W36969  11.249   7.998  17.045 -0.0087 -0.1921  0.0995
20122W        W36970  15.388   9.534  16.414  0.1280  0.1540  0.3367
20123W        W36971  16.755  11.296  17.369 -0.3704  0.0562 -0.1308
20124W        W36972   4.646  15.930  17.057  0.1683 -0.1943 -0.0582
20125W        W36973  12.274  15.025   0.364 -0.1750 -0.1673  0.0473
20126W        W36974   8.189  12.342   5.604  0.2455  0.2745  0.0949
20127W        W36975   9.139   2.333   4.978  0.0476  0.0614 -0.2138
20128W        W36976   4.553  13.783  12.821 -0.0267 -0.0208  0.0879
20129W        W36977   4.920   8.478   6.129 -0.0412 -0.1509 -0.0483
20130W        W36978   6.356   7.746   1.100 -0.1262  0.0099  0.1031
20131W        W36979   9.271   6.083   0.190  0.2148 -0.0484  0.0814
20132W        W36980  11.842  11.528  15.767  0.1729  0.2218  0.2532
20133W        W36981   5.996  14.812   6.174  0.2193 -0.2866  0.3713
20134W        W36982  16.981   9.749  12.292 -0.0135 -0.0939 -0.0871
20135W        W36983   7.713   0.921  16.799 -0.1034  0.1836  0.2125
20136W        W36984  15.061  11.520   2.096 -0.1776 -0.1768  0.1607
20137W        W36985   8.834  10.969  17.023  0.0444  0.1912  0.2079
20138W        W36986  15.097   9.241   2.901  0.0081  0.1195 -0.0807
20139W        W36987   9.428   3.090   1.953  0.4492 -0.1569 -0.2041
20140W        W36988   4.995  14.066   6.166  0.1227  0.0405  0.1758
20141W        W36989  17.157   2.039   3.239 -0.3582  0.4440 -0.0754
20142W        W36990  14.149   2.177  15.892 -0.0337 -0.1621  0.0210
20143W        W36991  12.265   5.772   1.665 -0.0669  0.1291  0.1417
20144W        W36992  13.097   7.506  15.372 -0.1669  0.0612 -0.2052
20145W        W36993  14.188   6.623  13.551  0.0015  0.0294  0.0571
20146W        W36994   0.107   1.931   3.834  0.1504 -0.1215 -0.2249
20147W        W36995  13.495   9.860  12.201 -0.0544 -0.0736  0.3711
20148W        W36996   8.768   2.820   3.992 -0.3025 -0.1657 -0.2807
20149W        W36997  12.260   6.133   3.671 -0.1469 -0.2064 -0.1066
20150W        W36998   1.731   6.596   3.031  0.0201 -0.0710  0.2303
20151W        W36999   9.577   3.297  15.703  0.1440 -0.0666  0.3643
20152W        W37000  10.447  10.109  17.529 -0.0068  0.2582  0.0165
20153W        W37001   7.944  14.065  17.196 -0.2245 -0.3395 -0.0445
20154W        W37002   4.014   9.086  16.847  0.0169 -0.0020  0.0739
20155W        W37003   4.018  16.217   1.244 -0.2397 -0.3415  0.0715
20156W        W37004   4.695  11.880   6.389 -0.1132  0.0197 -0.0967
20157W        W37005   8.640   4.145  17.006  0.1991 -0.0970 -0.0809
20158W        W37006   7.727   8.111   6.483  0.1567 -0.0979 -0.3539
20159W        W37007   6.040   4.333  17.577 -0.2431 -0.2681  0.0339
20160W        W37008   5.962  10.295   3.668 -0.1372  0.2434  0.1526
20161W        W37009   4.793   2.378   2.779  0.4063 -0.1977  0.0638
20162W        W37010  16.213   9.505   0.639  0.2027 -0.0368 -0.0579
20163W        W37011   9.941  14.589   1.105 -0.1552  0.0038 -0.0283
20164W        W37012  17.085  13.022   5.049  0.1257 -0.0722  0.0389
20165W        W37013  16.504   2.078  11.737  0.0381 -0.3664 -0.0752
20166W        W37014   6.337   6.859  13.305  0.2021 -0.0923 -0.3878
20167W        W37015   3.180  13.377  12.926 -0.0266 -0.0757 -0.1645
20168W        W37016   6.145  14.769   5.209 -0.0658  0.2031  0.0377
20169W        W37017   8.714   8.591   1.674  0.1303 -0.1789  0.0271
20170W        W37018  15.453   6.107  17.501  0.2130  0.2328  0.1149
20171W        W37019  15.175  15.507  12.074 -0.0018  0.3758  0.0488
20172W        W37020  12.441  15.300   4.302  0.1825 -0.0740  0.2448
20173W        W37021  16.707   8.842   5.129 -0.5039  0.0422 -0.0466
20174W        W37022  12.086  11.036  15.856 -0.1740  0.0168  0.0351
20175W        W37023  13.297   7.795   1.007 -0.2836  0.1887  0.4592
20176W        W37024  12.334  11.043   2.160 -0.0629 -0.1068  0.1765
20177W        W37025   6.889  16.894  15.287 -0.0948 -0.2447  0.0172
20178W        W37026  14.145   8.133  15.506 -0.0841  0.1038  0.1258
20179W        W37027  13.751  16.996   4.875 -0.0687  0.2917  0.1312
20180W        W37028   8.798   3.268  12.595  0.2031  0.1571  0.1115
20181W        W37029   2.224   8.360  14.750 -0.1989  0.2536 -0.2789
20182W        W37030   6.516   3.097  16.022  0.1648  0.0710  0.1524
20183W        W37031   9.989  14.416  15.207 -0.4164  0.2085  0.2053
20184W        W37032   6.006   9.185   3.069 -0.3204  0.2268 -0.2287
20185W        W37033   5.889   5.694   0.547  0.0346  0.1798  0.1812
20186W        W37034   6.373  15.795   5.973 -0.0721 -0.0448 -0.4358
20187W        W37035  17.123   9.775   5.265 -0.0974  0.3161 -0.1822
20188W        W37036   8.864  14.308   2.357 -0.3660 -0.0633 -0.0571
20189W        W37037   8.602  13.080  15.313  0.1646 -0.0905  0.0182
20190W        W37038   5.126   7.717   3.290  0.0406  0.0650 -0.2106
20191W        W37039   2.318   8.880   0.067 -0.0307  0.0589  0.1838
20192W        W37040  15.447  11.577   5.343 -0.1084  0.1072 -0.1389
20193W        W37041   1.385  13.145  12.197 -0.0319  0.0460 -0.1969
20194W        W37042   7.780   9.206   3.416 -0.1433 -0.1160 -0.0047
20195W        W37043   2.552  13.240   5.223  0.1772  0.0832 -0.1343
20196W        W37044   3.494   2.280  14.192 -0.1859  0.2056 -0.0448
20197W        W37045   1.381   2.394   4.104  0.1836  0.1510 -0.0850
20198W        W37046   9.201   7.957  17.106 -0.2779  0.0860 -0.0667
20199W        W37047   1.198  10.479  12.756  0.0349  0.2372  0.1848
20200W        W37048   2.702   5.679   0.044 -0.1966 -0.3939  0.0596
20201W        W37049   5.725  10.594   2.786 -0.1746 -0.1493  0.2404
20202W        W37050   9.076  16.503   1.097  0.0514  0.0748  0.3003
20203W        W37051   7.648  14.280   4.539 -0.1684 -0.0204 -0.3999
20204W        W37052  16.023   7.932   2.320  0.0650 -0.1488 -0.3470
20205W        W37053   8.029  10.003  13.215 -0.1377  0.0598 -0.2082
20206W        W37054  13.920  12.872   3.901  0.0723 -0.0031 -0.3587
20207W        W37055  16.146  16.657   0.807  0.2017 -0.3446  0.3238
20208W        W37056   7.429   9.113  16.522  0.0442  0.2578  0.1315
20209W        W37057   6.549   1.026   5.025  0.0918 -0.2433 -0.1899
20210W        W37058   4.289  14.608   0.185  0.0845 -0.1132 -0.4895
20211W        W37059   0.550  15.817   1.258 -0.5419  0.3455  0.2906
20212W        W37060   0.139  17.007  12.719 -0.2761  0.2457 -0.2343
20213W        W37061   3.963   0.106  14.687  0.0764 -0.1820  0.1256
20214W        W37062   3.938   2.181   4.213 -0.1023  0.3759  0.1644
20215W        W37063  11.556   1.297   4.293  0.1358  0.1516 -0.0309
20216W        W37064  14.555  15.771  13.702 -0.0305  0.2781 -0.0465
20217W        W37065   8.109   4.587   1.279  0.0669  0.1426 -0.0912
20218W        W37066   9.363  10.257   0.788 -0.1019 -0.1371  0.0448
20219W        W37067  10.145  15.631   1.245 -0.1514 -0.1192  0.1640
20220W        W37068   5.396   1.345  13.677  0.7031 -0.5100 -0.2012
20221W        W37069   0.326   1.116   0.315  0.2154  0.2859  0.0165
20222W        W37070  12.496   4.535   4.422  0.1752  0.4070  0.2519
20223W        W37071   9.679   3.882   4.618  0.2590 -0.0374 -0.1231
20224W        W37072  14.443  12.921  12.550 -0.1330  0.1832  0.2262
20225W        W37073   2.766   8.792  16.743 -0.0593  0.0963  0.1481
20226W        W37074  10.180   4.297   0.980 -0.1083  0.0673  0.0507
20227W        W37075   3.909   3.346   1.003  0.0500  0.2702  0.0935
20228W        W37076  16.666   8.305   5.962  0.3302 -0.0546  0.2015
20229W        W37077  13.578   0.440  17.075 -0.1344 -0.1562 -0.2043
20230W        W37078  14.253   3.266  15.762 -0.0737 -0.0415 -0.4163
20231W        W37079   4.671   6.172   2.674  0.1731 -0.1036 -0.1929
20232W        W37080   6.634   1.707  14.894  0.1082 -0.3296 -0.1015
20233W        W37081  14.739   4.687   2.179  0.1441 -0.2950  0.0191
20234W        W37082   6.276  11.242  15.544  0.0980  0.1000 -0.0249
20235W        W37083   5.826   5.722   4.989  0.0014  0.2326 -0.1122
20236W        W37084  14.778   5.954  14.536  0.0271  0.0487  0.0336
20237W        W37085   7.091  10.617  17.762  0.1890  0.0960  0.0446
20238W        W37086   9.398  15.923   2.227 -0.1315 -0.2149 -0.0873
20239W        W37087  14.461   8.601  11.254  0.0906  0.0283 -0.0612
20240W        W37088   7.472   7.294   2.921 -0.0182  0.2559 -0.1305
20241W        W37089  16.381  12.737  16.581  0.2368  0.1332  0.1961
20242W        W37090  14.160   8.268   4.567  0.1150 -0.0616 -0.0769
20243W        W37091   4.935   6.162  13.156  0.1227 -0.1985  0.0650
20244W        W37092  10.933  10.532  13.774 -0.1226  0.0635  0.2859
20245W        W37093  15.338  16.893   3.771 -0.1178 -0.2020  0.0373
20246W        W37094   2.904   9.354   5.363 -0.0833 -0.3581 -0.3025
20247W        W37095   9.354  14.555  13.041 -0.2563  0.2981 -0.1490
20248W        W37096  14.324   1.393  13.956  0.0320 -0.0312 -0.0534
20249W        W37097   3.874   1.250   1.321  0.1786  0.3720 -0.0162
20250W        W37098   3.821   2.947  12.962 -0.0451 -0.0772 -0.1161
20251W        W37099  11.293  11.827   1.884 -0.0858  0.0228  0.1579
20252W        W37100  12.556  16.333  16.368  0.0247 -0.3011  0.3030
20253W        W37101   2.176   1.962  16.995  0.0101  0.0415  0.0619
20254W        W37102   3.211  15.236   0.538  0.4170  0.0150 -0.2028
20255W        W37103  13.379  13.962   3.213 -0.0305  0.2043  0.1324
20256W        W37104   5.861  13.692  13.304  0.1881 -0.2170  0.1543
20257W        W37105  10.107  13.889   5.211 -0.0230 -0.0416 -0.0415
20258W        W37106   0.795  14.494  16.130  0.2231 -0.1624 -0.1235
20259W        W37107   8.719  10.298  13.603  0.1651  0.1680 -0.0585
20260W        W37108   3.511  16.917   1.706 -0.0401  0.1186  0.2323
20261W        W37109  12.344  15.755  14.663  0.2036 -0.1573  0.0398
20262W        W37110  15.619  14.757  16.430 -0.1018  0.2686  0.1632
20263W        W37111   4.927   1.990   1.697 -0.0190 -0.3357  0.0216
20264W        W37112  15.708  10.723  15.848 -0.0156  0.0688  0.0003
20265W        W37113   5.913   1.184   1.751 -0.1280  0.0976 -0.0128
20266W        W37114   4.901   1.350  15.033  0.0576  0.1460  0.3806
20267W        W37115  16.540   8.805  13.032  0.0527  0.0157  0.2478
20268W        W37116   2.089   7.579   3.776  0.0567 -0.1814 -0.1251
20269W        W37117   9.390  14.309  17.193 -0.1400  0.1542 -0.0762
20270W        W37118  10.807   0.097   3.438 -0.0123 -0.0672  0.0493
20271W        W37119  13.024   9.892  12.633  0.3072  0.0599  0.1292
20272W        W37120  14.235  13.541   2.017 -0.0111 -0.0227 -0.0296
20273W        W37121   0.348  14.839  14.589 -0.1153  0.1111 -0.2666
20274W        W37122   4.813  13.761  17.550  0.0852 -0.0030 -0.3574
20275W        W37123   4.404  13.873  16.908  0.2104  0.1551 -0.0650
20276W        W37124   7.247  11.688  12.764  0.2048  0.0618 -0.2349
20277W        W37125  12.160   8.867   3.964 -0.2221  0.2566  0.1755
20278W        W37126  11.494   0.037  16.786 -0.2969  0.0343  0.3176
20279W        W37127  15.132   7.373  16.055  0.2924 -0.1224 -0.0814
20280W        W37128  16.519   1.728   4.556 -0.0109 -0.1839 -0.0591
20281W        W37129  13.985   8.614   2.843  0.2138 -0.0139  0.0361
20282W        W37130   6.549   7.907  13.719  0.1159 -0.2952  0.1511
20283W        W37131  13.101   9.353   2.617  0.1801 -0.4880  0.0435
20284W        W37132  11.243   8.960   4.010 -0.0259 -0.1172 -0.0390
20285W        W37133  14.974  11.684   1.071 -0.3746  0.1677  0.0172
20286W        W37134   5.960   0.907   1.290  0.0722 -0.0050 -0.3629
20287W        W37135   2.123   1.301   1.446 -0.1418  0.0027  0.1319
20288W        W37136   5.128  14.121  12.109 -0.0086  0.1385  0.2287
20289W        W37137   2.120   9.409   1.484  0.0642 -0.3554  0.0418
20290W        W37138  17.116  12.116  15.838 -0.4676  0.0624  0.2887
20291W        W37139   1.515   9.381   5.552 -0.2236  0.0451  0.2039
20292W        W37140   1.942  12.150  15.053  0.1827 -0.0404 -0.2688
20293W        W37141   4.573   0.379   5.854 -0.0726  0.2551 -0.1079
20294W        W37142   9.039  13.858  16.125 -0.1437 -0.0612  0.0943
20295W        W37143   1.761  13.763  17.215 -0.2001  0.1348 -0.0788
20296W        W37144   9.119   1.805  12.203  0.0757 -0.1310 -0.0271
20297W        W37145  10.045   8.748   2.756  0.2776  0.0498  0.0591
20298W        W37146   0.222   0.442   3.207  0.1681 -0.0593  0.1816
20299W        W37147   5.920   7.423   0.266 -0.1848 -0.3214 -0.0555
20300W        W37148  11.769  12.914   3.500  0.2002 -0.3141  0.0893
20301W        W37149   4.488   2.658   1.671  0.0570  0.0702 -0.1592
20302W        W37150   9.822  12.533   0.319 -0.1195 -0.0133 -0.1571
20303W        W37151   4.055   7.877   1.077 -0.2857 -0.0513 -0.4957
20304W        W37152   6.120  14.439   5.794  0.1562 -0.3309 -0.1084
20305W        W37153   6.539   4.531   2.634 -0.0331  0.0800 -0.2465
20306W        W37154   4.352  16.285  13.978  0.1385  0.2434  0.0363
20307W        W37155   7.076  13.953   0.812 -0.1108  0.0148 -0.1220
20308W        W37156  16.151   8.476  16.581 -0.2564 -0.0004  0.2475
20309W        W37157  13.970  13.145   1.717  0.1169  0.0109  0.1623
20310W        W37158  14.065  15.306   4.724 -0.0027  0.1979 -0.3186
20311W        W37159   2.095   8.641  12.377  0.2189  0.0461 -0.1262
20312W        W37160  12.581   6.546  14.803 -0.0441  0.0004  0.1180
20313W        W37161  17.012   2.273  14.351  0.1025  0.1151 -0.0121
20314W        W37162  15.422  10.904  14.335  0.1867 -0.1777  0.0180
20315W        W37163   6.851  12.060   3.860 -0.0204 -0.0900 -0.1324
20316W        W37164  14.117   4.624  13.977  0.0837 -0.0843  0.0412
20317W        W37165  16.422  11.507   3.383  0.1341  0.0283  0.3079
20318W        W37166   0.893   0.991   2.820  0.0432  0.0370  0.0458
20319W        W37167   0.335   9.923   5.536 -0.2015  0.2380 -0.2016
20320W        W37168   0.564  12.651  15.448 -0.1014 -0.2485  0.2854
20321W        W37169  12.927  16.672  15.450 -0.1506 -0.2896  0.0829
20322W        W37170  12.090  10.974   2.577 -0.0407  0.1327 -0.2725
20323W        W37171  15.752  15.987   0.361 -0.0390  0.1480 -0.0812
20324W        W37172   2.268  14.481   3.527  0.1273 -0.2385  0.2373
20325W        W37173  14.844   7.718  13.698  0.0611 -0.0501 -0.4747
20326W        W37174   8.118  13.120   2.211  0.2308  0.0149 -0.0104
20327W        W37175   9.152   3.599  13.215  0.1437 -0.1511 -0.0162
20328W        W37176   9.053   6.066   2.382  0.1974  0.0933 -0.1413
20329W        W37177   3.472  14.696  14.805  0.1506 -0.0569 -0.2005
20330W        W37178  16.051   2.771   3.944 -0.0203 -0.0062  0.1853
20331W        W37179  12.976   1.501  17.646  0.0495 -0.3587 -0.0432
20332W        W37180   5.886   8.855   5.558  0.0240  0.2070  0.1100
20333W        W37181  15.458   9.746   5.388 -0.0206 -0.1551 -0.3233
20334W        W37182  12.735  13.562  17.442  0.2464 -0.1122  0.0519
20335W        W37183   3.734  16.576  16.165  0.1995 -0.2593 -0.1727
20336W        W37184   5.118  11.191   3.928 -0.2325  0.0580 -0.2540
20337W        W37185   5.686  12.039   3.758 -0.2104 -0.0103  0.2550
20338W        W37186   7.859  14.920   1.267  0.0548  0.2352 -0.1104
20339W        W37187   0.702  11.784  15.524  0.0574 -0.1358 -0.1829
20340W        W37188   2.686  11.700  14.922  0.0117  0.0722  0.0868
20341W        W37189   6.101  15.702   2.790  0.0366  0.1404 -0.0869
20342W        W37190   3.832   9.564  14.428  0.0208  0.0157 -0.0093
20343W        W37191  10.633   0.141   0.348  0.0286  0.1177 -0.4937
20344W        W37192   7.262   8.135  15.987  0.2892 -0.0901 -0.1360
20345W        W37193   0.372   8.707  13.230  0.2249 -0.1980 -0.2156
20346W        W37194   5.599   5.761   4.482 -0.1580  0.0027  0.0145
20347W        W37195   2.974   1.594   1.822 -0.3295 -0.0825 -0.2917
20348W        W37196  15.720   0.976   2.808 -0.2750 -0.3180  0.0699
20349W        W37197   0.757  10.816   2.097  0.2228 -0.0759 -0.1118
20350W        W37198  16.398   6.018   2.549  0.1379 -0.1417 -0.2126
20351W        W37199  10.376  11.127  16.677 -0.1895 -0.0011 -0.3802
20352W        W37200  13.278   6.110   2.291  0.2778  0.0471 -0.0094
20353W        W37201  13.005  10.319   0.688  0.0392  0.1310  0.3403
20354W        W37202   9.967  16.806   1.280  0.0801  0.2371 -0.0998
20355W        W37203  11.646  10.244  16.723 -0.0244 -0.0640  0.1023
20356W        W37204  11.405   4.301  15.135 -0.0248 -0.2586  0.3235
20357W        W37205  12.458  11.795  16.673  0.3311  0.0241  0.2008
20358W        W37206   1.827   5.696   0.969  0.1261 -0.0720 -0.1737
20359W        W37207  14.592  15.359   3.128  0.0428 -0.2694 -0.0967
20360W        W37208   2.287  12.608   3.449  0.2273  0.4562 -0.1881
20361W        W37209   5.099   1.386   4.822  0.0369 -0.0076 -0.1463
20362W        W37210   4.757  13.892   0.310 -0.2450  0.1937  0.0881
20363W        W37211  15.920   2.449   2.672  0.1995  0.0319 -0.1027
20364W        W37212   9.234   9.681  11.303 -0.2678 -0.2100  0.0901
20365W        W37213   3.904   9.275  17.738  0.1576  0.4714  0.0363
20366W        W37214  15.469  10.696  14.813  0.1273  0.1094  0.3090
20367W        W37215   2.983  16.755  15.469  0.1295  0.0120 -0.2513
20368W        W37216  10.680   6.577   0.623  0.4624  0.0655  0.0438
20369W        W37217  11.315  14.632  16.317  0.2201 -0.0248 -0.1624
20370W        W37218   1.703  11.070   1.035 -0.1570  0.1133  0.1480
20371W        W37219   0.425   1.558   1.595 -0.2218 -0.2815 -0.1564
20372W        W37220  17.124  10.569  15.533  0.2249 -0.0581  0.2094
20373W        W37221   3.688  11.053   2.117 -0.1564 -0.1348 -0.1610
20374W        W37222   1.137   0.668   6.263 -0.0148  0.1200 -0.0291
20375W        W37223  15.953  13.343  11.801 -0.0910  0.2822  0.2826
20376W        W37224   4.557  15.173   4.626 -0.2646  0.4594  0.1746
20377W        W37225   7.409  16.285  16.741  0.0063 -0.1293 -0.2615
20378W        W37226   0.367   0.883  14.915  0.2047 -0.1396  0.0004
20379W        W37227  12.218   4.279  15.575  0.0735  0.0544  0.3458
20380W        W37228  17.075   6.650  16.825  0.0709 -0.0790  0.1336
20381W        W37229   8.922  12.940   3.875  0.2184  0.1999  0.1635
20382W        W37230   3.316  15.002   2.984 -0.0166  0.5142 -0.1863
20383W        W37231   8.026  16.374  15.781  0.2880 -0.0763 -0.0862
20384W        W37232  16.778   0.585   1.346  0.1827 -0.1881  0.2035
20385W        W37233  12.522   4.754  15.469  0.2008  0.3703  0.1382
20386W        W37234   9.194   5.485  12.562  0.1472 -0.2095  0.0908
20387W        W37235   9.970  11.113  14.279 -0.1997 -0.1515 -0.2950
20388W        W37236   5.895   4.437  15.391 -0.1105  0.0605  0.1891
20389W        W37237   1.242   7.225   2.194 -0.1470  0.0875  0.0042
20390W        W37238   3.710   8.417  17.751 -0.1094  0.1625 -0.0236
20391W        W37239   0.384   1.504  17.390  0.0644 -0.0083  0.2392
20392W        W37240   0.446  17.016   1.807 -0.0005  0.1487  0.1231
20393W        W37241   1.631   7.966  16.382 -0.3551  0.0516  0.3445
20394W        W37242  14.875  11.852  15.579  0.2699  0.0882 -0.0844
20395W        W37243   3.068   2.484  14.489 -0.2163 -0.0407  0.0323
20396W        W37244   0.237   4.808  15.253  0.0526 -0.2219 -0.0151
20397W        W37245   5.531   7.511  12.426 -0.0549  0.1108  0.0247
20398W        W37246   1.304   4.052   0.879 -0.0702 -0.2139  0.0899
20399W        W37247  11.642  11.695  16.841 -0.0429 -0.1435 -0.0030
20400W        W37248   8.504   2.731  14.187 -0.3128  0.2035 -0.2307
20401W        W37249   3.698   0.623  13.449 -0.2728  0.2555 -0.0377
20402W        W37250   8.913  10.852   3.839 -0.0090 -0.0709 -0.0950
20403W        W37251   6.673   0.103   5.018 -0.2693 -0.2530 -0.1397
20404W        W37252  11.597   4.407   4.104  0.3234  0.1848 -0.3336
20405W        W37253  13.253  10.719   2.432 -0.1840  0.2298  0.2063
20406W        W37254  12.268  11.782  17.601 -0.1002 -0.1053 -0.2765
20407W        W37255   2.162  10.628   1.870  0.0277  0.0527  0.0070
20408W        W37256  10.498  12.288  17.375 -0.0149 -0.0013  0.2467
20409W        W37257  14.473  13.819  16.780 -0.0414  0.3303 -0.3448
20410W        W37258   9.107  12.130  12.211 -0.2920  0.0122 -0.1476
20411W        W37259   2.189  15.243  17.063  0.1117 -0.2465  0.1294
20412W        W37260  16.563   3.005  17.723 -0.1353  0.0039  0.0060
20413W        W37261   8.352   1.076  16.949  0.0085 -0.4120 -0.0643
20414W        W37262  13.012  15.762  17.719 -0.0930  0.3513 -0.1033
20415W        W37263  16.170  13.161   4.002 -0.0209 -0.0512 -0.2043
20416W        W37264  11.998  10.237   0.884  0.2598 -0.1180  0.3936
20417W        W37265  16.803  16.904  17.304 -0.1041  0.1655 -0.0278
20418W        W37266   9.951  15.949   0.892  0.0648  0.0616 -0.2206
20419W        W37267  11.185  17.155   1.518  0.1866 -0.0230 -0.2939
20420W        W37268   2.738   5.368  12.783  0.0886  0.0234  0.1095
20421W        W37269  11.431   1.799   0.023  0.5766 -0.2127  0.2822
20422W        W37270   7.023  12.091  12.564  0.1640 -0.1702 -0.2617
20423W        W37271   4.719  14.875   4.207  0.2372  0.1277 -0.0157
20424W        W37272   6.524  12.116  17.284 -0.2603 -0.2573 -0.1713
20425W        W37273   3.159  14.045   2.385 -0.1314  0.1365  0.0083
20426W        W37274   6.293   2.924   6.011 -0.4750  0.2740 -0.0706
20427W        W37275  13.095   8.211  13.752 -0.0817 -0.2306 -0.1062
20428W        W37276   0.856   8.819  11.322  0.0473 -0.2023 -0.2106
20429W        W37277  16.608   1.915   3.924  0.1230 -0.5299  0.0838
20430W        W37278  12.360   7.863   4.338 -0.2245  0.1150  0.1283
20431W        W37279  13.190  12.758  13.058  0.1303 -0.0220  0.0881
20432W        W37280   6.983   3.228  15.149 -0.0081 -0.2589  0.1395
20433W        W37281   0.026   1.068   1.288 -0.0993  0.0152 -0.0133
20434W        W37282  16.090  15.646   2.932 -0.3544  0.3385  0.1318
20435W        W37283   0.256   4.884  12.106 -0.0291 -0.1565 -0.1660
20436W        W37284   2.023   6.040   2.491 -0.1368 -0.0275  0.0642
20437W        W37285   9.240  13.952   0.403 -0.1221 -0.1051  0.1246
20438W        W37286   7.647   3.693  16.393 -0.2129  0.0304 -0.0563
20439W        W37287   9.576   5.730   3.120 -0.0508  0.0036  0.0198
20440W        W37288  15.328  10.961  12.262  0.0792 -0.1258  0.2733
20441W        W37289  11.979   4.085   4.017  0.2769  0.2543  0.0201
20442W        W37290   9.028   3.616   1.263 -0.0204  0.1652  0.0332
20443W        W37291   2.324   3.590   4.822  0.0644  0.1508 -0.0433
20444W        W37292  15.184   2.278  13.607 -0.0640 -0.0573  0.0926
20445W        W37293  16.569  14.554   4.137  0.0942 -0.0555 -0.0710
20446W        W37294   9.208   7.183  15.901  0.0889 -0.0132  0.0040
20447W        W37295  14.811  10.970  15.483 -0.0065  0.2041  0.0018
20448W        W37296   3.216  14.295  15.041  0.1540  0.2312  0.0570
20449W        W37297  13.596   8.008  12.868  0.1238 -0.0090  0.3192
20450W        W37298   6.593   2.956  14.986 -0.0204 -0.0846  0.3003
20451W        W37299   7.994   7.111   3.398  0.1091  0.1232  0.2705
20452W        W37300  16.180  14.133   2.707 -0.0544 -0.0119  0.1334
20453W        W37301   8.590   3.631   1.494  0.4308 -0.0259 -0.1630
20454W        W37302   5.076  16.017  16.783  0.0130  0.0431  0.1574
20455W        W37303   5.572   4.107  12.472  0.2129 -0.0711 -0.2068
20456W        W37304  12.965  13.875  12.567  0.1179 -0.1403  0.1783
20457W        W37305   3.568   0.544  13.950 -0.0056 -0.1280  0.4977
20458W        W37306   8.334   9.694  15.259  0.2383  0.0413  0.0241
20459W        W37307   9.258   7.620   2.406  0.0880  0.2267  0.0715
20460W        W37308   6.467  12.716   1.557  0.0961  0.2461 -0.0053
20461W        W37309   3.312   6.140  16.218  0.0749  0.1125  0.3993
20462W        W37310  12.149  15.543  13.566 -0.0039  0.1666 -0.1221
20463W        W37311  13.313   8.723  16.488  0.2946  0.0452  0.1064
20464W        W37312   7.200   5.481   5.178 -0.0666 -0.0390  0.3159
20465W        W37313  15.281   4.185   0.319  0.1216  0.0727 -0.0528
20466W        W37314   5.870   6.216   4.301 -0.1562 -0.1551 -0.3070
20467W        W37315   0.049   8.785  15.774  0.0811 -0.0171  0.0959
20468W        W37316   4.921   7.693   2.828 -0.1807  0.0813  0.0874
20469W        W37317   4.309  16.300  16.954 -0.1519  0.0296 -0.2265
20470W        W37318  10.270   5.142   1.961  0.0020  0.1417 -0.4168
20471W        W37319   9.002   8.166   1.544 -0.2022 -0.0667 -0.1007
20472W        W37320  16.977   0.346   1.783 -0.2404  0.0771  0.1036
20473W        W37321  13.657   0.137  17.463  0.0423 -0.0649  0.3934
20474W        W37322   6.439  14.005  14.572  0.1426  0.2398 -0.0087
20475W        W37323   7.447   3.692   4.855  0.0058 -0.0182 -0.0822
20476W        W37324   3.354   6.495   4.349 -0.0782 -0.0526 -0.0793
20477W        W37325   7.393   6.908  15.331 -0.1418 -0.0900  0.1291
20478W        W37326   1.804   0.302  16.149 -0.0681 -0.4827  0.1522
20479W        W37327  16.949   3.955  15.277 -0.2064  0.1116 -0.1514
20480W        W37328   5.248  16.474   6.874 -0.1949 -0.1801 -0.0308
20481W        W37329   9.816  14.538  17.079  0.1955  0.0893 -0.0130
20482W        W37330   4.533   0.734   0.144  0.1123  0.4032 -0.2405
20483W        W37331  12.639  11.201  12.312 -0.0156  0.1133 -0.2782
20484W        W37332  16.790   1.710   1.842 -0.0322 -0.4968  0.0595
20485W        W37333  10.419   1.623   4.201  0.1596  0.0274  0.0769
20486W        W37334  16.899   5.193   4.930 -0.3012  0.0083  0.2429
20487W        W37335  16.809   2.875   6.464 -0.3705 -0.1291  0.1625
20488W        W37336  17.140   0.256   1.331 -0.1594 -0.0044 -0.1164
20489W        W37337  14.154   0.622   0.170 -0.1176 -0.0867  0.2000
20490W        W37338  12.311  12.326  17.295  0.0242  0.0269 -0.1217
20491W        W37339   3.571  13.056   3.844 -0.1314 -0.1647  0.5302
20492W        W37340   1.090   6.663  16.100  0.2643 -0.0926  0.0772
20493W        W37341  15.207   4.522   2.225  0.0757  0.1069 -0.0258
20494W        W37342   4.043   7.672   5.223  0.1461 -0.1413  0.1099
20495W        W37343   3.183   7.804   3.647  0.2791  0.0119  0.2474
20496W        W37344  12.509   9.899  15.254 -0.0986  0.0505 -0.3042
20497W        W37345  17.055   1.704  15.248 -0.1295 -0.0578  0.3462
20498W        W37346   1.616   7.485   0.898  0.2027 -0.0871  0.0238
20499W        W37347  12.324  13.055   2.149  0.5039  0.3181  0.0196
20500W        W37348   4.740   9.111   0.269  0.3145 -0.2246  0.0540
20501W        W37349   6.641   8.755   1.770  0.1212  0.1386  0.2906
20502W        W37350   0.885   4.665   3.757 -0.1715 -0.1416  0.0533
20503W        W37351  16.458   2.294  14.128 -0.0126 -0.0942  0.3387
20504W        W37352   5.341   3.426  15.476 -0.2096 -0.0072  0.0134
20505W        W37353  15.572  13.129   3.999 -0.2079  0.0872 -0.3209
20506W        W37354  15.658   3.008   2.052 -0.1177 -0.4483 -0.0174
20507W        W37355  11.373   1.484   3.784 -0.3187  0.4880  0.2422
20508W        W37356  12.693   9.561  12.469  0.0914 -0.0956 -0.1719
20509W        W37357  11.356  10.306  17.548 -0.1321  0.0074  0.0313
20510W        W37358   7.770   6.989  17.003  0.0417  0.0080  0.2579
20511W        W37359   9.033   7.936  11.443  0.0373 -0.0460  0.3561
20512W        W37360  14.035  11.311  17.750 -0.2518 -0.0354 -0.2541
20513W        W37361  13.339   0.094   5.616 -0.1038 -0.1072  0.0543
20514W        W37362   9.098   4.760  16.369  0.0850  0.0167 -0.0997
20515W        W37363  12.135  11.331   5.450 -0.2306 -0.0801  0.0542
20516W        W37364   5.817  11.514   4.241  0.1135  0.1014 -0.1121
20517W        W37365   0.301   3.809   0.435  0.1510 -0.0906 -0.1617
20518W        W37366   0.911  12.396   2.525 -0.2465  0.0998  0.2211
20519W        W37367  16.554   8.343   1.516  0.0216  0.1398  0.0213
20520W        W37368   1.510   5.130  14.119  0.2232  0.2775  0.0754
20521W        W37369   5.771   0.181  13.126  0.0587  0.1499  0.1090
20522W        W37370   8.374  11.230   0.825 -0.0398  0.1843  0.0758
20523W        W37371   8.215   4.044  14.847  0.0524 -0.1793  0.1970
20524W        W37372   3.563   5.027  14.599 -0.4834 -0.0420  0.0677
20525W        W37373  10.555   0.586  12.649 -0.1127  0.3189  0.1661
20526W        W37374  14.855   6.122   4.286 -0.0376 -0.0730  0.2891
20527W        W37375  13.344   8.374  17.316  0.1556  0.3481  0.1298
20528W        W37376  11.155  15.583   1.161  0.1854 -0.2617  0.2331
20529W        W37377  10.037  10.066  14.628 -0.1017 -0.0226 -0.2198
20530W        W37378  16.391  13.628   0.859  0.0819 -0.0803  0.3401
20531W        W37379   1.516   4.718  11.864 -0.0834  0.0348 -0.2171
20532W        W37380  16.842  14.162  14.892  0.2837  0.1034 -0.1445
20533W        W37381  13.878  16.792  16.956 -0.1696 -0.1695  0.0105
20534W        W37382   5.073  11.284  14.927 -0.2091  0.0369  0.3136
20535W        W37383   1.347  12.124   5.116  0.1182 -0.1023  0.0602
20536W        W37384  12.914   6.813   4.553 -0.1987 -0.0693 -0.2521
20537W        W37385  10.473   9.379   0.858 -0.0074 -0.0018  0.0263
20538W        W37386   0.522   2.508  13.308 -0.0484  0.2408 -0.1494
20539W        W37387   1.549   5.718   2.449 -0.2213 -0.0939 -0.2589
20540W        W37388  11.665   7.811   0.747  0.0004  0.0295  0.3195
20541W        W37389   7.816   8.792  16.466 -0.0853  0.2634 -0.1311
20542W        W37390   6.991   4.132  13.125 -0.1727 -0.1913 -0.1080
20543W        W37391  15.519  16.139  16.016 -0.2503  0.2166 -0.3146
20544W        W37392   9.007   5.572  14.655  0.0945 -0.2043 -0.2647
20545W        W37393  13.180  14.830   0.000 -0.0899 -0.1045 -0.0240
20546W        W37394   0.619   6.357  12.220  0.1995  0.0693  0.0385
20547W        W37395  17.008   8.023  14.065  0.0209  0.0979  0.2572
20548W        W37396   2.766   5.989  15.958 -0.0475 -0.0818  0.1682
20549W        W37397   8.916   5.468  15.118  0.3136 -0.2660 -0.1708
20550W        W37398   4.709  14.262  15.075  0.2696  0.0896  0.0751
20551W        W37399   5.520  15.031   2.441  0.1171  0.2063  0.0871
20552W        W37400  11.258  14.785  12.596 -0.2371 -0.1236  0.0434
20553W        W37401  14.482   1.211   5.227 -0.2146 -0.0784 -0.3080
20554W        W37402   5.595   8.926  13.294 -0.0455 -0.0434 -0.0022
20555W        W37403   3.980  14.733  14.931 -0.2559  0.0776 -0.0304
20556W        W37404   3.339   2.979  15.590  0.0016  0.0619  0.0470
20557W        W37405   3.057   9.577   7.144 -0.1734  0.1394  0.2311
20558W        W37406  11.608  11.518   3.219 -0.5450 -0.2308 -0.0434
20559W        W37407  10.208   2.984   3.305 -0.1247 -0.0644 -0.0242
20560W        W37408   2.335  13.312  15.984 -0.0155 -0.2916  0.1998
20561W        W37409   9.772   7.339   3.885 -0.1521 -0.3323 -0.1464
20562W        W37410  12.858  12.467   1.519 -0.0609 -0.1757  0.0733
20563W        W37411  15.471   5.255  16.550 -0.0218  0.0390  0.0676
20564W        W37412  16.858  12.340   2.980 -0.0183  0.2391 -0.1421
20565W        W37413  13.472   8.118  16.744  0.1503  0.0536  0.0159
20566W        W37414  15.656  16.828   1.805 -0.2018  0.0114 -0.1384
20567W        W37415  11.336   5.857   5.755 -0.2678 -0.3708 -0.4250
20568W        W37416   6.495   6.858   5.376  0.1816  0.4649  0.1314
20569W        W37417  15.881  12.390   6.443  0.5152  0.1857  0.2483
20570W        W37418  10.534  13.724  17.072  0.0695  0.0035 -0.0059
20571W        W37419   9.377  10.788  12.351 -0.0514  0.1915  0.1523
20572W        W37420   6.085   0.073   2.941 -0.0570 -0.1112 -0.2954
20573W        W37421   7.887  12.126   3.451 -0.0784 -0.2456  0.2603
20574W        W37422  13.179   7.860   2.303  0.0415 -0.1663 -0.1526
20575W        W37423   7.831  12.850   2.891  0.0813  0.2711 -0.4114
20576W        W37424   5.560   8.235   4.149  0.2609 -0.0753  0.2873
20577W        W37425   6.685   7.653   5.356  0.1578 -0.0223 -0.0303
20578W        W37426   1.004  16.949   0.226 -0.1342 -0.1070 -0.0256
20579W        W37427   4.930  11.591   6.044  0.0948 -0.0597  0.0912
20580W        W37428   2.266   7.018  16.601 -0.0883 -0.0314 -0.3710
20581W        W37429  16.976   1.916   4.747 -0.1064 -0.0058  0.1825
20582W        W37430  14.281   1.666  11.126  0.0684  0.1721  0.0335
20583W        W37431   5.254  16.144   0.756  0.0607  0.1913 -0.3253
20584W        W37432  11.610  11.966  15.589  0.1720 -0.0434  0.1201
20585W        W37433  14.197  11.201   3.159 -0.2026  0.0078 -0.0491
20586W        W37434  13.021  10.777   0.461  0.0652  0.0822 -0.2203
20587W        W37435   3.796  12.541   0.381  0.1891 -0.1486 -0.1421
20588W        W37436   6.417   8.557  12.952  0.4507 -0.1769 -0.0587
20589W        W37437   4.447  13.553   0.132 -0.0476  0.0643  0.1013
20590W        W37438   0.070  12.614   3.335 -0.1163  0.3116 -0.3267
20591W        W37439   3.492  10.845  17.081 -0.0340 -0.2413  0.2310
20592W        W37440  11.569   6.191  12.254 -0.1748 -0.0163 -0.1370
20593W        W37441  12.005  13.529   3.051 -0.3415 -0.0785 -0.0464
20594W        W37442  13.752   9.366  14.554  0.0152  0.1472 -0.1691
20595W        W37443  11.175   3.837   5.750  0.3644 -0.1517 -0.1502
20596W        W37444   1.658   1.886   3.275  0.1413 -0.0187  0.0887
20597W        W37445  16.541   1.904  16.894 -0.1451  0.0402  0.1014
20598W        W37446  15.977   1.078   3.418 -0.4754 -0.2890  0.2023
20599W        W37447   0.144  15.181  16.322  0.2027  0.0597  0.0468
20600W        W37448   1.994   5.415  15.024  0.2660  0.0862 -0.0435
20601W        W37449   3.367   0.388   5.497 -0.1098  0.0436  0.0908
20602W        W37450   0.648   1.318   3.736  0.1310  0.1757 -0.1281
20603W        W37451   2.456   5.489  17.302 -0.1295 -0.1292  0.3504
20604W        W37452   7.739  10.566  13.245  0.0754 -0.0596  0.0498
20605W        W37453  10.672   1.921   3.859 -0.2412  0.0566  0.0761
20606W        W37454  15.705   0.944   3.822 -0.0384  0.1639  0.5457
20607W        W37455   1.323   8.291  17.269 -0.0839  0.3689  0.0121
20608W        W37456   2.484  10.767  16.413  0.0322  0.0924  0.0482
20609W        W37457   6.543   2.907   4.491  0.0139 -0.0505 -0.2677
20610W        W37458  13.508   4.484   5.423  0.2460  0.1457 -0.1973
20611W        W37459  13.436   4.614   1.795  0.1471 -0.0063 -0.0971
20612W        W37460  10.033   0.814   0.019 -0.2917 -0.2060  0.1333
20613W        W37461   3.855   7.777  11.975 -0.1130  0.0961 -0.0117
20614W        W37462  16.812  11.497  16.422  0.1110  0.0642  0.0142
20615W        W37463  12.231   1.913  10.350  0.0685 -0.0638 -0.0899
20616W        W37464   7.141   3.229   4.104  0.0490 -0.0312 -0.0938
20617W        W37465   9.050   0.687   5.126 -0.0852  0.0148  0.0513
20618W        W37466  14.888  10.426   4.704  0.0194  0.0535  0.2036
20619W        W37467  10.497   9.490   5.679  0.0793  0.0094  0.2834
20620W        W37468   8.172  15.064   2.573  0.0302  0.0291  0.0622
20621W        W37469   1.868  12.383  14.281  0.2234  0.1621  0.1073
20622W        W37470  13.855  13.040  11.424 -0.1580  0.4154  0.0780
20623W        W37471  13.708  16.167  15.074 -0.0048 -0.0334 -0.0933
20624W        W37472  12.130   2.267   2.741  0.4211 -0.1542  0.0020
20625W        W37473  11.992  16.082   3.402 -0.1238  0.1370  0.1040
20626W        W37474   5.821  11.438   6.821  0.1248  0.1777  0.1159
20627W        W37475   5.055   0.682  14.240 -0.2680  0.0842 -0.3300
20628W        W37476  10.793  10.263   4.117  0.2817  0.1522 -0.3868
20629W        W37477  13.131   5.144   2.708 -0.0260 -0.1402  0.3263
20630W        W37478  15.015   0.796   2.122 -0.3034  0.0203 -0.3068
20631W        W37479  12.810  14.688  12.850  0.6343 -0.0599  0.2381
20632W        W37480   5.627  10.239   4.392  0.4309 -0.0302 -0.0934
20633W        W37481   4.399   6.254   4.084  0.4939  0.0257  0.0233
20634W        W37482   7.478  12.174   4.478  0.5223 -0.0121 -0.0141
20635W        W37483   8.793   1.370  12.302 -0.0133 -0.0998 -0.1554
20636W        W37484  12.039  16.049   1.862  0.2241  0.0704 -0.1512
20637W        W37485   2.486  12.302   5.694  0.2857 -0.0171 -0.1279
20638W        W37486   0.333   3.088  14.033 -0.1678  0.0193 -0.1845
20639W        W37487  11.976  12.902  16.164  0.0905 -0.0558 -0.1443
20640W        W37488  14.382  11.273  12.172  0.1812 -0.0442 -0.2799
20641W        W37489  11.375   5.755  12.479  0.0781  0.0597 -0.0789
20642W        W37490  16.806  12.701   0.605  0.2117 -0.0974  0.0571
20643W        W37491   8.090   9.058  16.021  0.1060 -0.1502  0.0649
20644W        W37492  15.086   1.807   1.761 -0.1700  0.0408 -0.1808
20645W        W37493  11.273   0.225  11.836  0.1089 -0.1123  0.1276
20646W        W37494   5.363   9.494  16.578  0.3091  0.1699  0.0421
20647W        W37495  16.595   5.706  15.122  0.0351 -0.0856  0.0719
20648W        W37496   7.524  12.238  14.081  0.2210 -0.0987  0.1714
20649W        W37497   7.076  13.381  15.760  0.0040 -0.0302 -0.4322
20650W        W37498   9.011  10.470  17.245  0.1000 -0.2847 -0.0253
20651W        W37499   2.808  10.062   3.376  0.0557 -0.1289 -0.2026
20652W        W37500   3.727   9.011   5.332 -0.1196 -0.2129 -0.1841
20653W        W37501  13.157   3.537  15.417  0.0465 -0.1562 -0.1489
20654W        W37502  12.945  16.540  13.071  0.1799  0.1013 -0.1943
20655W        W37503   9.694   8.734   3.722 -0.0432  0.3551  0.0233
20656W        W37504   4.945  13.401   5.453 -0.2379  0.0128 -0.0627
20657W        W37505   5.318   0.607  13.419  0.2094  0.1091  0.1273
20658W        W37506  10.421   7.560   5.430 -0.3973 -0.3845 -0.0327
20659W        W37507   0.188  13.873   0.995 -0.0066 -0.0521  0.1500
20660W        W37508  16.008   2.099  14.257  0.1524  0.0478  0.2159
20661W        W37509  14.444   0.274   2.070 -0.0997  0.0081  0.2252
20662W        W37510  12.916  13.450   3.592  0.0342  0.1190 -0.3894
20663W        W37511   0.635   0.679   0.197 -0.0834  0.0320 -0.5490
20664W        W37512   0.667   4.139   4.974  0.1715  0.1459 -0.3283
20665W        W37513   6.850   7.846   0.739  0.2690  0.1300  0.0531
20666W        W37514   8.410   4.247  16.604  0.0549 -0.1294 -0.1119
20667W        W37515  11.380   2.487  11.458  0.2254  0.1979  0.0048
20668W        W37516   7.167  15.045  12.255 -0.0584  0.0310 -0.3137
20669W        W37517  13.366   2.257  15.830 -0.0725 -0.0045  0.1367
20670W        W37518   4.011   0.902   0.193  0.0561 -0.2098 -0.0375
20671W        W37519  16.676  11.497  16.941  0.1074  0.1566  0.1933
20672W        W37520  11.174  12.543  16.083 -0.3442 -0.0430 -0.1269
20673W        W37521   5.554  14.887   1.814  0.1332  0.1991  0.1138
20674W        W37522   8.791   3.974  14.262 -0.0239 -0.2375  0.1022
20675W        W37523  14.664   1.642   3.005 -0.0111  0.1403  0.2142
20676W        W37524   6.031   8.310   4.900  0.0651 -0.0587 -0.0784
20677W        W37525   5.052  13.505  12.139  0.1674  0.1115 -0.1564
20678W        W37526  13.446  11.113  11.966  0.0228  0.2665  0.1650
20679W        W37527   4.696   3.640   3.039  0.1955  0.1701 -0.1525
20680W        W37528   0.675   9.986   3.408  0.0478 -0.1914  0.2275
20681W        W37529   6.059   5.918   3.959 -0.0999 -0.0141  0.1813
20682W        W37530   4.431   4.811  13.777 -0.1543  0.2371 -0.1874
20683W        W37531  16.114  11.359   6.447 -0.1126 -0.0599  0.2987
20684W        W37532   0.475  14.659   3.731 -0.1255 -0.0315  0.1525
20685W        W37533  16.486   8.718  15.332  0.1854  0.1584  0.2909
20686W        W37534   1.548   3.696   1.079 -0.1514 -0.0207 -0.0262
20687W        W37535  15.166  10.496  12.481 -0.2797 -0.1701 -0.5235
20688W        W37536  14.856  16.705   2.933  0.2402  0.2297 -0.3603
20689W        W37537   1.591  10.209  16.376 -0.0648  0.0400 -0.0239
20690W        W37538   0.982   7.650   2.292  0.0786 -0.0970  0.1325
20691W        W37539   3.217  15.250   6.157  0.1218  0.0734 -0.0826
20692W        W37540   3.935  15.034  12.096 -0.1001 -0.0504 -0.0656
20693W        W37541   1.814   3.145  12.655 -0.0795  0.0409 -0.0390
20694W        W37542  15.098   6.059  11.806 -0.2402  0.2149  0.0892
20695W        W37543  12.721   9.181   5.163 -0.0111  0.1959 -0.1640
20696W        W37544   9.716  14.032  14.499 -0.3002  0.1924 -0.4552
20697W        W37545   5.475  17.060   0.875  0.2637 -0.1167  0.0357
20698W        W37546   2.677   0.560   4.203  0.1593  0.2289 -0.0260
20699W        W37547  13.281   8.780   2.108  0.0381 -0.0346  0.1021
20700W        W37548  13.902  12.145   3.451  0.0442  0.2419 -0.0564
20701W        W37549  16.505   6.773  12.151  0.1792 -0.0427 -0.0361
20702W        W37550   4.733  11.194  17.720 -0.2170 -0.2318 -0.0877
20703W        W37551  12.435   1.584   4.692  0.0199 -0.3855 -0.1385
20704W        W37552   2.174   5.836  17.536 -0.1979 -0.2529 -0.1440
20705W        W37553  10.284   8.143  12.768 -0.2608  0.1154  0.0451
20706W        W37554   2.232   6.177   2.004  0.0231  0.1859  0.2827
20707W        W37555   5.721  15.625  15.028  0.2847  0.1930  0.0122
20708W        W37556  14.213  13.273   0.289  0.1208 -0.0496  0.0406
20709W        W37557   6.299   1.471   1.755 -0.3398 -0.0419  0.0635
20710W        W37558   9.218   6.800   4.317  0.1710  0.0768  0.0762
20711W        W37559   3.560   6.782   0.169  0.0729  0.2491 -0.2050
20712W        W37560  16.281   8.599   4.053 -0.2104 -0.1298  0.1693
20713W        W37561  12.451  11.887  15.028  0.3667 -0.1778  0.1502
20714W        W37562  11.508   0.433  12.384  0.2219 -0.0683 -0.0133
20715W        W37563  14.604  15.489  14.312 -0.1103  0.1633 -0.2286
20716W        W37564  15.473  11.273   3.601 -0.0366  0.0717 -0.0513
20717W        W37565   8.706  17.110  14.499  0.0141 -0.0294  0.1312
20718W        W37566   5.760   9.772  16.593 -0.1294 -0.4281  0.0415
20719W        W37567  15.608   6.325  12.458  0.0859 -0.2289 -0.3065
20720W        W37568  13.839  13.114  16.528 -0.1302 -0.2646 -0.0659
20721W        W37569  13.721   3.845  12.952 -0.1272  0.0388  0.0352
20722W        W37570   8.242   1.615  13.892  0.0235  0.0040 -0.3075
20723W        W37571   0.277   8.968  16.255  0.3674 -0.0936 -0.2859
20724W        W37572  15.711   6.452  17.021 -0.2300  0.1024  0.4742
20725W        W37573   9.913  16.295  17.376  0.3118  0.0902  0.2413
20726W        W37574   1.766   3.861   4.068 -0.2139 -0.0718 -0.0681
20727W        W37575   4.968  16.913   0.117 -0.1438 -0.0032  0.3176
20728W        W37576   3.053  11.471   0.668  0.1582  0.2556  0.2614
20729W        W37577   6.194  14.843   4.312  0.4097 -0.0402 -0.2602
20730W        W37578   8.996   1.168   1.213 -0.1077  0.0237 -0.2476
20731W        W37579   1.758   6.155   4.395 -0.0216  0.3052 -0.1080
20732W        W37580   9.939   4.048  13.630  0.0319  0.0849 -0.1110
20733W        W37581  14.845  10.288   4.220 -0.1952  0.1270 -0.0287
20734W        W37582   5.505  12.940  15.720  0.0717  0.1018  0.1147
20735W        W37583   8.744   1.728   3.862 -0.1239 -0.0616  0.1684
20736W        W37584   2.995   6.814  17.312 -0.1179  0.2873  0.2238
20737W        W37585   4.348  12.400  13.054  0.1450 -0.0328  0.2017
20738W        W37586   1.825   2.113  15.557  0.1255  0.2646 -0.1086
20739W        W37587   7.269   4.102  14.631 -0.0520 -0.0609  0.1584
20740W        W37588  16.022   0.499  12.796 -0.0965  0.0067 -0.0431
20741W        W37589   7.534   9.290   0.236 -0.1202 -0.0164 -0.0287
20742W        W37590   8.675   9.810  13.450  0.0216 -0.0563 -0.0390
20743W        W37591  11.996  11.951  14.620 -0.0338 -0.2693  0.0130
20744W        W37592   8.466   8.947   2.023  0.0236  0.3569  0.3107
20745W        W37593  10.017  14.846   5.335  0.0905  0.3594  0.0389
20746W        W37594  12.148  15.432   3.897  0.2090  0.2275 -0.1585
20747W        W37595  10.647  11.908  17.140  0.2936 -0.1123 -0.1069
20748W        W37596   1.510  13.238   1.112 -0.0623 -0.2441 -0.0945
20749W        W37597  15.875  10.997  17.176 -0.1026 -0.1417  0.2566
20750W        W37598   5.548  10.918   1.626 -0.0473  0.0719 -0.1558
20751W        W37599   4.769  10.355  15.849 -0.1116 -0.1370  0.1531
20752W        W37600   5.110  10.990  13.591  0.4212 -0.0022  0.0011
20753W        W37601  12.131   3.692   4.325  0.1614 -0.1125 -0.2709
20754W        W37602   6.641   6.322  14.470 -0.2845 -0.1995  0.0023
20755W        W37603   4.265   8.088   5.473 -0.0716  0.0699  0.0040
20756W        W37604   7.469   9.610  16.697  0.0367 -0.0805 -0.2484
20757W        W37605  13.759  14.168   5.051  0.3796  0.2248  0.2055
20758W        W37606   4.556   4.544  13.357 -0.0683 -0.3689 -0.1914
20759W        W37607   1.059  12.684   1.832  0.1581 -0.1308  0.0192
20760W        W37608   3.369   6.941  12.362  0.1496 -0.2825 -0.0647
20761W        W37609  10.302  10.493   4.481  0.0530  0.1399  0.0408
20762W        W37610  13.939  15.476   5.237  0.4039 -0.1412 -0.1283
20763W        W37611   5.736   1.519   1.415  0.1164 -0.1005 -0.0234
20764W        W37612   1.444   7.440  15.417  0.0864  0.2123  0.1886
20765W        W37613   1.828   0.317  12.798  0.0990 -0.3307  0.1784
20766W        W37614   2.424   2.599  17.435 -0.2049  0.1388  0.0246
20767W        W37615  13.218   5.913   4.490  0.0153 -0.2178 -0.1526
20768W        W37616  12.302  10.255   4.677  0.0032 -0.1441  0.1313
20769W        W37617  10.049   7.285   0.153  0.0777  0.1526  0.1393
20770W        W37618   7.435   9.438  13.773  0.0044  0.1235  0.1512
20771W        W37619   7.947   5.842   0.291 -0.1997 -0.2804 -0.0365
20772W        W37620   5.473   5.545   1.318 -0.0679  0.2226  0.0803
20773W        W37621   4.984  15.812   6.018  0.2321 -0.1997 -0.0102
20774W        W37622   6.850  13.433   0.062  0.0684  0.1755 -0.2255
20775W        W37623  10.599  13.343   2.050 -0.0594  0.1486  0.0361
20776W        W37624   1.454   3.598   4.598  0.0860  0.1169 -0.2150
20777W        W37625  12.028   8.822  14.481  0.1856 -0.1451 -0.2203
20778W        W37626   9.412  13.143  17.632 -0.0449  0.0669  0.0725
20779W        W37627   9.808   3.438  13.402  0.0089 -0.0090 -0.1281
20780W        W37628  12.024   8.012  16.639 -0.0926 -0.0345 -0.0095
20781W        W37629  10.654   6.160  12.556 -0.1061 -0.0138 -0.1886
20782W        W37630  12.550   5.434  14.474 -0.0668 -0.0577  0.0584
20783W        W37631   6.848  16.907  17.258 -0.4525  0.2140 -0.0572
20784W        W37632  14.077   5.498  13.375 -0.0162  0.1398 -0.2871
20785W        W37633   0.752  17.160   4.462  0.1195  0.0709 -0.0107
20786W        W37634   0.421  12.162  16.881 -0.0783 -0.1043 -0.3658
20787W        W37635   6.610   3.623  13.036 -0.2414 -0.1567 -0.1457
20788W        W37636  12.175   9.691   1.949  0.0507  0.2033  0.0171
20789W        W37637  16.115  11.687   5.890 -0.1222  0.0386 -0.0233
20790W        W37638   7.184  10.671   5.527 -0.1708  0.4509 -0.2239
20791W        W37639  16.802   8.125   0.233  0.2990  0.0377 -0.2354
20792W        W37640   2.010  11.497   1.768 -0.0868  0.2864 -0.0917
20793W        W37641   6.373   0.719  12.723 -0.1799  0.0876  0.0016
20794W        W37642   2.927   1.836  12.366  0.2306 -0.1277 -0.2014
20795W        W37643   8.776   4.522  14.180  0.2038  0.2107  0.1076
20796W        W37644  12.153  11.792   5.320  0.3204 -0.0393  0.1157
20797W        W37645   1.519  12.373  13.423  0.0284  0.3618  0.1724
20798W        W37646   1.101   4.126   0.387  0.0041 -0.1586 -0.0760
20799W        W37647   6.530   2.112  14.566 -0.0210  0.0340  0.0376
20800W        W37648  11.622   9.237  13.135 -0.0034 -0.1411 -0.3470
20801W        W37649  11.935  12.419  15.821 -0.1080 -0.1960 -0.1704
20802W        W37650   8.399  13.729   0.207  0.0640 -0.2266 -0.0442
20803W        W37651  12.160   9.277  13.000 -0.3944 -0.2446 -0.1507
20804W        W37652  15.849   9.169  14.803  0.1141  0.0561  0.0805
20805W        W37653   0.930   4.263  12.417 -0.1979 -0.1029  0.0372
20806W        W37654  14.502   8.336   1.554 -0.0872  0.3785 -0.1405
20807W        W37655   3.474  16.725   3.866  0.0236  0.1383 -0.0043
20808W        W37656  12.871   8.831   0.153 -0.3528 -0.1854 -0.1955
20809W        W37657  11.801   9.588   0.791 -0.0071  0.0857  0.1070
20810W        W37658   7.076   1.951   1.616  0.1969  0.2215 -0.2175
20811W        W37659  13.839  15.846   0.731  0.0414  0.0962 -0.0903
20812W        W37660   3.224  12.379  14.968  0.1467  0.0340  0.0800
20813W        W37661  10.043  13.465   3.539  0.0623  0.1981 -0.1456
20814W        W37662   5.007   0.013   1.775  0.0697 -0.3288 -0.0447
20815W        W37663  10.437   1.840   0.030 -0.4033 -0.1039 -0.0269
20816W        W37664   6.633   0.001  13.823 -0.0023 -0.1680  0.2506
20817W        W37665  13.940  10.043   4.567  0.2259 -0.3662 -0.1384
20818W        W37666  10.163   6.597  13.613 -0.1080  0.2093 -0.0196
20819W        W37667   4.354   9.510   0.214 -0.2379 -0.2088  0.2223
20820W        W37668  13.009   2.548   1.675  0.3377 -0.4007 -0.1827
20821W        W37669   7.571   0.098  13.101 -0.2135  0.1918  0.0885
20822W        W37670   0.721   7.077   4.424  0.2039 -0.1994  0.0427
20823W        W37671  15.015  10.886  16.056  0.1819  0.4262 -0.3958
20824W        W37672   3.775   4.172  13.958 -0.1486 -0.0623 -0.1348
20825W        W37673  17.058   9.049   4.099 -0.3940 -0.1621 -0.0478
20826W        W37674  13.562   2.143   4.841  0.2103 -0.1666  0.1224
20827W        W37675  11.737   0.004  11.946 -0.0365  0.2199  0.2172
20828W        W37676  13.538   9.724   2.509  0.0746 -0.1696 -0.0887
20829W        W37677   2.636   7.793   3.766  0.2348  0.0897  0.4599
20830W        W37678   3.426  14.821  16.988  0.0965  0.0650 -0.0953
20831W        W37679   9.217   2.714   0.235 -0.2842 -0.0855 -0.4624
20832W        W37680   6.377   7.639   4.460  0.0987  0.1454 -0.2229
20833W        W37681   8.176   2.407   0.042 -0.3837  0.0162  0.2874
20834W        W37682  13.050   1.544   4.027  0.0662  0.3395  0.2268
20835W        W37683   0.226   3.640   2.748 -0.1265  0.2109 -0.0418
20836W        W37684   4.520   3.628   4.442  0.3316 -0.1435 -0.2541
20837W        W37685   3.191   0.315   2.433 -0.2703 -0.1233  0.0745
20838W        W37686  10.694   3.002   0.149  0.1176 -0.0890  0.0057
20839W        W37687   6.149   7.692  15.452 -0.0642  0.1340 -0.0943
20840W        W37688   5.920  16.020  15.481  0.1054  0.3921  0.2634
20841W        W37689   0.007  13.458   1.316 -0.2502  0.1759  0.0990
20842W        W37690   6.934   0.062  14.928  0.0965  0.0037  0.4528
20843W        W37691  14.140  10.101   1.441 -0.0457  0.2451 -0.0158
20844W        W37692   0.506  13.491  14.397  0.0260 -0.1857 -0.1199
20845W        W37693   4.702   6.414   3.698  0.1458 -0.0154  0.1327
20846W        W37694  13.893   4.447   0.316 -0.0654 -0.2098  0.1171
20847W        W37695   1.652   4.666   1.515 -0.2293 -0.1989 -0.0598
20848W        W37696  15.442   7.334   3.877  0.2675 -0.2073 -0.0610
20849W        W37697  10.274   7.560   2.638  0.0461 -0.0616 -0.3505
20850W        W37698  14.286   2.332  17.083  0.0944 -0.3104 -0.0594
20851W        W37699  13.235   7.906  17.104 -0.1205 -0.0061  0.0154
20852W        W37700   7.938   7.381   1.450  0.1190  0.0305 -0.1904
20853W        W37701  16.573  14.085   5.071 -0.1991 -0.1494  0.1169
20854W        W37702   2.213  10.501   2.635  0.0766 -0.0269 -0.1045
20855W        W37703   5.722  13.470   0.803  0.2459  0.1843  0.3636
20856W        W37704  11.120   6.604   3.148  0.2264 -0.3159 -0.0831
20857W        W37705   3.225   2.923   5.803 -0.1659 -0.0528 -0.2660
20858W        W37706  14.174   7.134  17.358 -0.0750 -0.0002  0.4003
20859W        W37707  11.426  13.986  12.741  0.0068 -0.1300  0.0269
20860W        W37708  11.944   9.271  16.361 -0.5246  0.0746  0.0224
20861W        W37709   5.401   7.777   1.843  0.0133 -0.1510  0.1677
20862W        W37710  14.545   9.458   1.950 -0.0436  0.2857  0.1155
20863W        W37711   9.295   6.459  14.949  0.2346 -0.0578  0.0245
20864W        W37712   0.500  10.004   0.475 -0.1627  0.1063  0.3513
20865W        W37713   6.003  12.117   2.316 -0.1287  0.4837 -0.1990
20866W        W37714  14.460   0.414   3.822  0.2611 -0.0454 -0.2108
20867W        W37715   9.495   4.454   2.577 -0.0573 -0.1486 -0.2283
20868W        W37716  14.687   7.443   0.659  0.0606 -0.4182  0.4102
20869W        W37717  11.322   0.984   1.768 -0.0539 -0.0260  0.0432
20870W        W37718   1.227  10.698  15.456  0.0595  0.1944 -0.1221
20871W        W37719   4.813   8.210   1.501  0.2880 -0.2243 -0.0513
20872W        W37720   4.048   2.021   5.425  0.3013  0.1441  0.4164
20873W        W37721  10.963  12.732   5.923 -0.1098  0.3080  0.0052
20874W        W37722   5.163  12.832  12.729  0.4460  0.2168  0.0401
20875W        W37723   2.616  13.687  17.776 -0.1048  0.0235 -0.0288
20876W        W37724   3.376   3.162   0.618 -0.1342 -0.2554 -0.2451
20877W        W37725  13.925   5.435  15.177 -0.0772 -0.0640 -0.1996
20878W        W37726  16.268  10.596   5.800 -0.2379  0.2103  0.2643
20879W        W37727   4.943  12.830   3.313  0.0329  0.0219 -0.0825
20880W        W37728   5.697   1.250   0.564 -0.2400  0.0547 -0.1451
20881W        W37729  11.129   0.158   3.020  0.2053  0.1853 -0.3924
20882W        W37730   8.295   6.360  16.529 -0.1587 -0.0835 -0.0480
20883W        W37731   9.569   5.182  13.527 -0.0679  0.0062 -0.2485
20884W        W37732   6.450  14.290  15.079 -0.1064  0.1274  0.0865
20885W        W37733   9.742   2.795   4.488 -0.3521 -0.0862 -0.1280
20886W        W37734   1.796   4.550  15.108  0.1626 -0.0207 -0.2756
20887W        W37735   7.652   0.499   4.258 -0.2698 -0.0116 -0.0435
20888W        W37736  16.478  16.434  17.485 -0.1618 -0.1327  0.2907
20889W        W37737  12.021   9.790  17.018  0.3267 -0.2686 -0.0577
20890W        W37738   1.679  15.419  12.861 -0.2841 -0.0743  0.0586
20891W        W37739  10.882   7.776   3.741 -0.0931  0.1000 -0.1344
20892W        W37740  12.668   3.047  16.062  0.0018 -0.3701 -0.1522
20893W        W37741   6.845   5.176   0.599 -0.0544 -0.0268 -0.1170
20894W        W37742  14.411  13.684   0.517 -0.0922  0.0470  0.2381
20895W        W37743  14.684  13.864  12.162 -0.2574  0.1681  0.2797
20896W        W37744   8.458   6.906   2.207  0.1316 -0.0125 -0.2866
20897W        W37745   4.778   1.339  15.959 -0.0543 -0.1707 -0.1761
20898W        W37746   7.316   5.906  16.284 -0.0791 -0.0345  0.4414
20899W        W37747   9.202   5.907   4.841  0.2153 -0.0839  0.0267
20900W        W37748  10.888   3.415   3.632  0.1020  0.4597 -0.1701
20901W        W37749  16.184   6.801   3.378  0.1080 -0.0306  0.0781
20902W        W37750   9.021   9.851   1.059  0.1199 -0.0514 -0.0101
20903W        W37751  12.983   8.827  13.694  0.3170  0.0543  0.2201
20904W        W37752   0.482   7.302  16.972  0.3837  0.0308  0.1674
20905W        W37753  10.856  16.999   2.102 -0.1180 -0.2210  0.0689
20906W        W37754   4.064  16.058   1.695 -0.1417 -0.1874 -0.1806
20907W        W37755  11.860  13.811   0.904  0.4626 -0.0462 -0.0865
20908W        W37756   3.090  14.475   1.714  0.1697  0.2584  0.0611
20909W        W37757  10.304   3.315   4.238 -0.0814  0.0657  0.2310
20910W        W37758   0.357  13.283   4.912  0.2084  0.0425  0.1953
20911W        W37759   6.737  12.902  17.573 -0.0747 -0.0507  0.1205
20912W        W37760   7.255  12.092  13.095  0.2273  0.1412  0.0296
20913W        W37761   8.497   7.835   3.642  0.1708 -0.2128 -0.0971
20914W        W37762   5.852   1.507  12.907 -0.1791  0.0961  0.2527
20915W        W37763  14.915   1.512   5.963 -0.1724 -0.1334 -0.0905
20916W        W37764   9.634  14.886   1.398  0.3041  0.2154  0.1541
20917W        W37765   1.610  11.197   5.354  0.0105  0.0405  0.2005
20918W        W37766   6.447   4.016  17.485  0.2427  0.1767  0.2968
20919W        W37767  12.719   3.258  12.473  0.0759 -0.1643 -0.0547
20920W        W37768  13.047  12.532  16.828 -0.0254  0.2359 -0.3027
20921W        W37769   8.445   9.459  16.007 -0.0277 -0.0572 -0.1520
20922W        W37770   7.803  13.002   1.801 -0.2538  0.0706  0.0958
20923W        W37771  15.127   6.469  13.820 -0.1765  0.1390  0.1215
20924W        W37772  10.116   4.496   3.329 -0.1326  0.1388  0.3412
20925W        W37773   9.406   3.914  15.839  0.0793 -0.0030 -0.3311
20926W        W37774  10.012   3.105   2.847  0.0324 -0.0696  0.4149
20927W        W37775  15.759   6.839  12.513  0.1463  0.0298 -0.0561
20928W        W37776   5.360  15.380  14.696  0.6800  0.3161 -0.1522
20929W        W37777  10.298   7.213  12.784  0.1675 -0.0267 -0.0055
20930W        W37778   0.956  13.149  17.280  0.1589  0.1459 -0.0017
20931W        W37779   5.309  16.256   3.304 -0.4019  0.3011  0.0728
20932W        W37780  10.612   3.925   0.620 -0.0221  0.2641 -0.3008
20933W        W37781   5.133  11.255  17.371  0.3940 -0.2544  0.1032
20934W        W37782  11.693   4.930   3.881  0.1981  0.3130 -0.3238
20935W        W37783   2.592   6.096  12.465 -0.0279 -0.1359  0.1207
20936W        W37784   2.612  14.516   3.176 -0.1881  0.2775 -0.2858
20937W        W37785  11.995   7.923  15.098 -0.5079 -0.0287 -0.2446
20938W        W37786  16.815  17.100  14.260 -0.0092 -0.0103  0.2913
20939W        W37787   0.797   6.089  16.289 -0.2268  0.0089  0.2611
20940W        W37788  15.153  10.418  15.701 -0.0258  0.2387 -0.2449
20941W        W37789   8.814  11.125   0.516 -0.1433 -0.1110  0.0844
20942W        W37790   2.558   0.017  16.520  0.1086 -0.3671  0.2967
20943W        W37791  17.049   9.962   4.488  0.0532 -0.0381  0.0039
20944W        W37792   6.006   9.659   0.468 -0.0914 -0.1346  0.0560
20945W        W37793   2.354   6.945  14.494  0.2675 -0.0236  0.0787
20946W        W37794   0.048  12.653  12.952  0.3031 -0.3206  0.3276
20947W        W37795  11.668   4.864  16.623 -0.0888  0.1184 -0.1617
20948W        W37796  13.586   6.463   3.278  0.1348  0.0855 -0.2380
20949W        W37797   6.596   9.316   3.929  0.2507 -0.2563 -0.2535
20950W        W37798  10.842  14.346   4.836 -0.3742  0.0298 -0.0527
20951W        W37799   2.638   9.843  16.727 -0.2190 -0.2925 -0.0004
20952W        W37800  13.993  16.063  16.439  0.0415  0.0053 -0.5534
20953W        W37801  16.147  10.775   0.198  0.1528 -0.3130  0.0177
20954W        W37802   6.841  15.616  13.637  0.2423 -0.0184 -0.2017
20955W        W37803   4.587   3.129   3.677 -0.2514 -0.2647  0.3412
20956W        W37804  15.865   4.576  12.901 -0.0072  0.1622  0.1611
20957W        W37805   8.727   4.664   4.773  0.0314 -0.2046  0.0105
20958W        W37806   2.962  14.876   3.916 -0.3026 -0.0012 -0.2950
20959W        W37807  11.917   0.497   4.392 -0.1747  0.1014 -0.2584
20960W        W37808  11.061   3.441   4.726  0.1139 -0.0479 -0.3111
20961W        W37809  16.940  15.145  12.629  0.0111  0.0849 -0.3028
20962W        W37810   8.231  10.225  15.343  0.2151  0.0132  0.0722
20963W        W37811   8.299   2.842   2.893  0.0669  0.0348  0.3623
20964W        W37812  15.141   0.182   5.369  0.0922  0.0494 -0.0902
20965W        W37813  15.222   7.492   1.978  0.0757 -0.1739  0.2774
20966W        W37814   1.504  15.862  17.468 -0.0580  0.0894 -0.0243
20967W        W37815  17.020  16.008   4.752  0.1457  0.0037  0.4530
20968W        W37816   4.467  15.032  14.648  0.0065 -0.0159  0.1220
20969W        W37817   7.642  12.264   3.853 -0.0721  0.3121  0.0989
20970W        W37818   2.464  12.285   0.849 -0.2255  0.3291 -0.0574
20971W        W37819  17.118   8.998   3.480  0.2887 -0.2399 -0.3841
20972W        W37820  11.429   8.568   3.301 -0.2254  0.2044  0.0289
20973W        W37821   6.024  11.338  16.706  0.2435  0.0261  0.1447
20974W        W37822   6.641   2.041   0.783 -0.2310  0.1494 -0.1466
20975W        W37823   0.698   9.060   0.569  0.0431 -0.1473  0.0428
20976W        W37824  16.500   0.628   4.807  0.2665 -0.1377 -0.0303
20977W        W37825  16.145  15.971  13.046  0.1268 -0.0347  0.0993
20978W        W37826   2.740   4.803   4.020 -0.0241 -0.0577 -0.3322
20979W        W37827   7.529  16.762  13.795 -0.1359 -0.2170  0.1597
20980W        W37828  13.220   8.986  16.930  0.1299 -0.3122  0.0260
20981W        W37829  12.770  13.119  14.239 -0.0347  0.1493 -0.2485
20982W        W37830  16.218   0.634  15.194  0.0944  0.0737 -0.1174
20983W        W37831   1.237  13.864  17.235  0.0308 -0.2715  0.0418
20984W        W37832   6.803   8.896   6.420 -0.4507 -0.2813 -0.0139
20985W        W37833   7.144   3.874  16.326 -0.2514  0.1941 -0.2045
20986W        W37834   8.127   9.291  15.589  0.0008 -0.0472 -0.2090
20987W        W37835   9.259  16.632  16.200 -0.1521  0.0083  0.0415
20988W        W37836   5.071  10.284  13.580 -0.1680 -0.1612  0.4009
20989W        W37837  15.927   7.573  13.189  0.0435  0.0939  0.0288
20990W        W37838   1.265  12.738  16.597  0.4715 -0.0989  0.3151
20991W        W37839   4.644   8.203  17.676 -0.2544  0.1037 -0.1695
20992W        W37840   5.742   2.699  16.822 -0.1408  0.2846  0.0596
20993W        W37841   6.723  15.973   5.122  0.2058  0.0116 -0.1629
20994W        W37842   9.082  14.676   2.663 -0.0092 -0.2530 -0.2318
20995W        W37843   4.205   0.203   5.524 -0.1185  0.1416 -0.0581
20996W        W37844   0.250   5.366   4.180 -0.2808  0.2270 -0.0216
20997W        W37845   8.742  12.479  15.594  0.0531  0.0556 -0.1554
20998W        W37846   5.773   5.843  16.539  0.1144 -0.0071  0.0000
20999W        W37847  15.111  15.096  15.037 -0.2588 -0.0812 -0.0017
21000W        W37848  12.398   4.960   2.332 -0.0315 -0.2851  0.0118
21001W        W37849   6.188   5.615  13.516 -0.1795 -0.1996 -0.1693
21002W        W37850   4.592  14.204  12.535  0.2140 -0.1501  0.4523
21003W        W37851  12.796   0.811   2.898 -0.1325  0.1494  0.2863
21004W        W37852   5.009  17.054  15.762  0.1728 -0.0339 -0.0610
21005W        W37853   4.188   4.239   0.574  0.0569  0.1841  0.5779
21006W        W37854   3.100   3.564   0.629  0.0166 -0.1171  0.0197
21007W        W37855  10.404   1.229  12.095 -0.2340  0.1971 -0.2446
21008W        W37856   5.086   4.634  15.808  0.1378 -0.1588  0.2592
21009W        W37857  10.712  15.730  17.182  0.1174 -0.1571 -0.0076
21010W        W37858   2.499   9.717   1.135  0.1599 -0.1825 -0.4211
21011W        W37859  10.526   7.586   4.031  0.0013 -0.1481  0.3237
21012W        W37860   1.140  14.668  12.717 -0.0912 -0.2887 -0.2296
21013W        W37861   3.930   2.751  17.306 -0.2906 -0.3719 -0.0488
21014W        W37862   6.956  13.002   0.749 -0.0306 -0.2915 -0.0945
21015W        W37863  15.563   6.985  11.985 -0.1627 -0.3201 -0.2071
21016W        W37864   8.356   7.231  17.016 -0.0300 -0.0357  0.2690
21017W        W37865   2.553  13.853  13.010  0.1163  0.1439 -0.3934
21018W        W37866   1.468  15.053   5.194 -0.1148 -0.2086  0.0936
21019W        W37867  10.814  15.977  14.789 -0.2097  0.0773  0.0794
21020W        W37868  10.582  10.084   4.531 -0.1265  0.3831 -0.1509
21021W        W37869   7.914   3.113  14.486 -0.2348 -0.0338  0.1414
21022W        W37870   5.291   5.739  16.246  0.1139 -0.1413 -0.0163
21023W        W37871  13.010   7.541   0.133 -0.3142 -0.2574 -0.2863
21024W        W37872  10.723   2.997  13.961 -0.0260 -0.0077 -0.1488
21025W        W37873  15.460   6.140  12.977 -0.0131  0.0755 -0.0936
21026W        W37874   5.311  13.834   0.827  0.2017 -0.0578 -0.0158
21027W        W37875   5.270   9.925   0.312  0.1153 -0.1573  0.2693
21028W        W37876   7.175   9.701   3.834  0.0889 -0.1745 -0.1213
21029W        W37877  17.088   3.803  16.268  0.1175  0.2249 -0.1116
21030W        W37878   7.277  10.366   5.162  0.0213  0.1265  0.1993
21031W        W37879   0.153   2.451  16.946  0.1562  0.1108  0.1181
21032W        W37880   6.734   8.864  12.676 -0.2484 -0.2691 -0.1301
21033W        W37881   4.969  12.261   5.452  0.4090 -0.1583 -0.1207
21034W        W37882  16.602   4.955  12.711 -0.0600 -0.1084 -0.1443
21035W        W37883   9.269   5.103   4.235 -0.3672  0.0259 -0.0232
21036W        W37884   1.755   9.218   0.757 -0.0238 -0.0550  0.2901
21037W        W37885  16.164  14.775  14.389  0.1896 -0.1887 -0.0036
21038W        W37886  17.122   6.718  14.220 -0.1080  0.2689 -0.1362
21039W        W37887   0.727  13.625   5.008 -0.0153 -0.3058 -0.1832
21040W        W37888   5.934   5.255  13.801 -0.0408 -0.3066  0.0598
21041W        W37889   8.214  11.053   3.479  0.2913  0.0511  0.3576
21042W        W37890   5.464  16.446  14.620  0.0145 -0.0987  0.0163
21043W        W37891  10.697   4.084   4.062 -0.0280 -0.0927 -0.0245
21044W        W37892   2.577   1.737  12.736 -0.0371  0.0226  0.1985
21045W        W37893  12.657   1.245  15.413 -0.2337  0.2145  0.1811
21046W        W37894   9.441  12.613  12.937  0.1579 -0.0346  0.0817
21047W        W37895   9.972   5.027  15.994  0.0668  0.2775  0.1429
21048W        W37896  11.116   1.390   1.962 -0.0677 -0.0376  0.0079
21049W        W37897   6.613  10.868  15.397  0.0370 -0.2760 -0.1017
21050W        W37898  16.612   2.322  17.213 -0.2731 -0.2813 -0.2395
21051W        W37899   3.733  14.006  15.768  0.3643 -0.3571 -0.0035
21052W        W37900  13.311  11.980  13.554  0.2657 -0.0075  0.3352
21053W        W37901   7.707   2.143  17.065  0.1071 -0.2488  0.2447
21054W        W37902   5.352  14.929  13.301 -0.0621 -0.3192  0.3182
21055W        W37903   0.448   3.525  16.483  0.0373  0.0141  0.2614
21056W        W37904  11.613  12.604   3.860 -0.0848  0.1778 -0.3870
21057W        W37905   4.109   9.950   0.126 -0.0029 -0.2042  0.1010
21058W        W37906  16.683  10.527  16.882  0.2580 -0.1996  0.1854
21059W        W37907  14.186   2.318  15.410  0.0702 -0.0058 -0.1781
21060W        W37908   9.076   3.279   0.107 -0.0175 -0.2549  0.0013
21061W        W37909   1.705  14.535   0.023  0.1259  0.0241 -0.0532
21062W        W37910  11.653  11.277   6.269 -0.1663  0.2964  0.2399
21063W        W37911  13.582   5.516  14.776  0.0120  0.3394  0.0595
21064W        W37912  11.023  12.519   3.397  0.2431 -0.3262 -0.2431
21065W        W37913   4.104  16.502   3.506  0.1288  0.3152 -0.3876
21066W        W37914  16.139   5.172   5.405  0.0528 -0.0456  0.0572
21067W        W37915  13.146   9.268  13.794  0.0001  0.0886  0.1316
21068W        W37916   3.288  11.331   2.068 -0.3565 -0.2609  0.7266
21069W        W37917  10.703   2.693   4.173  0.1513  0.2084  0.3749
21070W        W37918   0.209   9.773  17.382 -0.1240 -0.0642 -0.1945
21071W        W37919  12.233   7.785   5.158 -0.1747 -0.1647  0.1873
21072W        W37920  15.141   5.338  11.126  0.0376  0.0393  0.0283
21073W        W37921   1.834   3.871   3.535  0.1130  0.0660 -0.0532
21074W        W37922   0.974  14.982   5.049  0.4124  0.2473  0.1169
21075W        W37923  11.688  16.922  15.530 -0.1464 -0.2120 -0.0596
21076W        W37924   2.476  13.064   4.726 -0.0564 -0.2004  0.1979
21077W        W37925   3.688   3.531  16.436  0.1300 -0.1899 -0.0209
21078W        W37926  10.215  13.412  14.035 -0.1637 -0.1678  0.1863
21079W        W37927   6.810  11.620  16.170 -0.0832 -0.0860 -0.2634
21080W        W37928   3.084  16.643   4.281  0.1146 -0.2802  0.2818
21081W        W37929   7.476   3.088  11.308 -0.3126  0.3960 -0.0412
21082W        W37930  11.222  11.481  17.171  0.0086 -0.1012  0.1038
21083W        W37931  11.768   3.298  11.518 -0.2687 -0.0379 -0.0894
21084W        W37932   1.281   6.329   4.531 -0.1505  0.0138  0.2946
21085W        W37933  10.104   2.532   5.762  0.2470 -0.1392  0.0692
21086W        W37934  15.849  10.297   3.398  0.0000  0.3615 -0.0384
21087W        W37935  12.392   8.202   4.973 -0.1416  0.0098 -0.3226
21088W        W37936   1.251  12.495   5.515 -0.0611 -0.1429  0.2420
21089W        W37937   4.956   5.804  14.874  0.0977 -0.0586  0.0203
21090W        W37938  12.485  11.464   5.086  0.2703 -0.0306  0.0698
21091W        W37939  16.717   9.112  13.406 -0.2072 -0.0003  0.2256
21092W        W37940  16.534   7.581  13.139  0.2124 -0.2157  0.0975
21093W        W37941   5.632  15.597  15.598 -0.1115 -0.0444  0.0874
21094W        W37942  16.815  11.839  12.915  0.1589  0.3992  0.0752
21095W        W37943   9.967   7.269  11.968 -0.1699  0.0811  0.0838
21096W        W37944  12.587  13.501  12.669 -0.1020 -0.4259  0.0043
21097W        W37945  13.363   1.565  13.221  0.1906  0.1073  0.1798
21098W        W37946   1.945   7.088   0.232  0.0578  0.1991 -0.0429
21099W        W37947   7.127   2.242  16.285  0.1939  0.0138 -0.1890
21100W        W37948  11.862   7.633  14.224  0.0379 -0.3977 -0.0713
21101W        W37949   0.197   7.951  16.163 -0.1441 -0.0195 -0.2546
21102W        W37950   3.348   1.503   5.336 -0.2478  0.0609 -0.0476
21103W        W37951   3.239   4.906   6.225 -0.0107  0.0216 -0.1629
21104W        W37952  10.506  13.134  13.003 -0.1115  0.1596  0.1321
21105W        W37953   6.124   1.729   2.150 -0.0203  0.0686  0.1340
21106W        W37954  15.855   0.539   2.583  0.2323  0.1932  0.1717
21107W        W37955   2.367  14.531   2.739  0.3160  0.2091 -0.0364
21108W        W37956   4.863   3.658   2.477 -0.2627  0.4803  0.1193
21109W        W37957  10.707  16.967   4.826 -0.0636 -0.2279  0.0845
21110W        W37958  11.997  11.598  13.576  0.3008  0.1974 -0.3188
21111W        W37959  14.631  16.244  13.593 -0.0710 -0.1905  0.0772
21112W        W37960   9.602   9.637   2.465 -0.0177  0.1404  0.1550
21113W        W37961   4.942   4.956  13.686 -0.2079 -0.2332 -0.0288
21114W        W37962  14.786   6.008   2.457  0.0324 -0.0250 -0.0943
21115W        W37963   7.421   1.325  16.743 -0.0040  0.1326 -0.2748
21116W        W37964  12.973   4.858   3.091  0.1575 -0.2778 -0.2005
21117W        W37965   6.827   9.864   5.980  0.2063 -0.1079 -0.0749
21118W        W37966   1.313  15.141  14.797  0.3902  0.2427 -0.1640
21119W        W37967   5.039  14.238  16.045  0.0380  0.0703 -0.1317
21120W        W37968   7.778   1.964  17.530  0.5606  0.3516 -0.3729
21121W        W37969  13.202   1.721  12.287  0.2172 -0.0512  0.0261
21122W        W37970   3.052   3.371  15.595  0.0001 -0.0727 -0.0782
21123W        W37971  12.416  11.911  13.798 -0.0530  0.2738  0.2308
21124W        W37972  12.961   2.415   2.491  0.1966 -0.0899  0.0688
21125W        W37973   5.518   5.607  12.688 -0.2013  0.1147  0.1562
21126W        W37974  15.972  14.986   2.810  0.2613  0.2037 -0.3304
21127W        W37975   0.487  11.939  15.945 -0.0057 -0.1083 -0.0236
21128W        W37976  12.547   7.160  13.940  0.0948  0.4225 -0.1437
21129W        W37977   4.073   2.409   1.374  0.0878 -0.1085  0.3243
21130W        W37978  13.955   0.180   1.472  0.1864  0.4009 -0.1381
21131W        W37979   1.888   8.031   5.082  0.0414  0.0673  0.1474
21132W        W37980   7.374   3.637   4.328 -0.0883  0.0427  0.0530
21133W        W37981  14.439   6.374  13.099 -0.3043 -0.2924  0.1410
21134W        W37982  10.483   5.088   1.446  0.0467 -0.2089 -0.0357
21135W        W37983   5.926  16.682  12.406  0.2356 -0.1334  0.1239
21136W        W37984   7.470   3.358  14.663 -0.0617 -0.0490 -0.0242
21137W        W37985   3.843   5.613  14.026 -0.2343  0.1341  0.1729
21138W        W37986  11.614  16.925   1.260  0.1822 -0.1028 -0.1196
21139W        W37987   1.367  11.432   0.955 -0.3347  0.1793  0.0396
21140W        W37988   4.044   4.333  15.104  0.1368  0.2213 -0.1511
21141W        W37989   1.997   5.274  14.273 -0.2484  0.1423 -0.2861
21142W        W37990   8.545  13.839  13.653 -0.3201 -0.0089 -0.2269
21143W        W37991   0.656   1.964   1.854 -0.1395 -0.0119 -0.2113
21144W        W37992   1.297   3.176   1.171 -0.3158 -0.0378  0.3986
21145W        W37993  11.390   4.216  16.080 -0.1003  0.0263 -0.2910
21146W        W37994   2.074   6.337  12.842  0.1394  0.0197  0.2028
21147W        W37995   8.742  12.034  13.130  0.1467 -0.0476  0.2327
21148W        W37996   1.728  15.830   5.047  0.0240 -0.2126  0.2178
21149W        W37997   4.076   6.582  14.224  0.1522 -0.0902  0.1419
21150W        W37998  16.325  10.111  13.762 -0.0999  0.0417  0.1199
21151W        W37999   8.437   7.340   1.818  0.0324  0.1007  0.3412
21152W        W38000   7.089  15.461  13.042 -0.4924  0.0386 -0.3604
21153W        W38001   4.242   7.369  14.167 -0.5295 -0.2873 -0.3186
21154W        W38002   6.357   2.361   4.785 -0.0504 -0.2221 -0.1716
21155W        W38003  16.066   4.050  17.079 -0.5790 -0.0429 -0.0155
21156W        W38004   4.922  17.009   1.014  0.1370 -0.1343  0.1065
21157W        W38005  17.133   5.110  16.150 -0.1141 -0.2692 -0.0310
21158W        W38006   0.805   5.483  15.748 -0.0472  0.3898 -0.0604
21159W        W38007  13.283  14.032  13.170  0.0256 -0.0243  0.2161
21160W        W38008   4.078   8.188  16.410  0.0850  0.0437  0.0450
21161W        W38009  14.648   9.394  14.294 -0.1385 -0.0516  0.2530
21162W        W38010  14.082   2.993   3.030 -0.1949 -0.3038 -0.0118
21163W        W38011   8.545  17.003  14.027 -0.0398 -0.2207  0.2859
21164W        W38012   3.471   4.900   2.944 -0.0250 -0.1534 -0.1976
21165W        W38013   4.920   9.043   1.095 -0.0484  0.0750 -0.0450
21166W        W38014  11.186   7.107   1.971  0.1103  0.0309  0.1048
21167W        W38015   9.908  10.095   1.490 -0.0335  0.3204  0.1209
21168W        W38016   3.030  16.947   1.026  0.1308 -0.1317  0.0008
21169W        W38017  11.225  15.098   3.036 -0.0140 -0.0099 -0.1773
21170W        W38018   1.476   9.698  16.196 -0.0914 -0.0030 -0.0833
21171W        W38019  12.072  16.248  13.028  0.0019  0.2968  0.1202
21172W        W38020   8.344   1.684   3.606  0.3454 -0.1159  0.1907
21173W        W38021   0.250   2.003   1.086 -0.0701 -0.2523  0.0409
21174W        W38022   8.023   6.680  12.375  0.1737  0.2002 -0.2588
21175W        W38023   6.707   2.058   0.282  0.0136 -0.2561  0.4110
21176W        W38024   2.636  12.734   5.145 -0.0505  0.0424  0.4403
21177W        W38025   3.015  16.471   4.766 -0.1449  0.2119 -0.3835
21178W        W38026   9.504   3.561  17.621  0.0099 -0.1564 -0.2450
21179W        W38027  11.877   6.180  15.420  0.0003 -0.2036  0.1452
21180W        W38028   4.903   8.220   0.739  0.1269  0.1014 -0.1451
21181W        W38029   1.029  10.051  12.477 -0.0302  0.1083 -0.2717
21182W        W38030   0.172  14.490   4.600 -0.4170  0.1782  0.2912
21183W        W38031  12.159  10.401  15.999 -0.0156 -0.0077  0.2402
21184W        W38032   5.923  10.336   1.451 -0.2019 -0.0849 -0.1773
21185W        W38033   6.277  13.881   4.237  0.2697 -0.1961  0.0397
21186W        W38034  13.980   1.382  17.341  0.1225 -0.1844 -0.1052
21187W        W38035   0.055   5.684   6.403  0.0488 -0.0238  0.1359
21188W        W38036  11.182  10.537  13.112 -0.1130 -0.3005 -0.2824
21189W        W38037   5.762  15.059  17.759  0.2128  0.0764 -0.0242
21190W        W38038   5.313   6.298  15.778  0.1346 -0.0175 -0.2824
21191W        W38039   9.213  16.221  15.856  0.1358 -0.3245  0.2177
21192W        W38040   1.723   1.931   0.023 -0.2686 -0.0303  0.1715
21193W        W38041  15.535   5.098   3.581  0.1267  0.1733 -0.0216
21194W        W38042   0.909  13.863   5.484  0.0808  0.0195 -0.0533
21195W        W38043   8.428  11.889  16.479 -0.0442  0.2487 -0.1764
21196W        W38044  16.654  15.192  16.398  0.1183  0.1227 -0.2752
21197W        W38045   4.668   6.865  12.833  0.1193 -0.0894  0.0735
21198W        W38046   6.331   1.285  11.179 -0.1122 -0.3583  0.1168
21199W        W38047   9.369   7.963  12.836  0.1936  0.0052 -0.1172
21200W        W38048  15.363  14.304   1.708  0.1816  0.2056  0.2235
21201W        W38049   9.907   6.008  15.934  0.1816  0.1439 -0.0421
21202W        W38050  11.872   9.813   3.300  0.2244  0.1804 -0.3176
21203W        W38051  16.783   9.518  15.907 -0.1308 -0.0508 -0.1865
21204W        W38052   0.003   6.254   3.447 -0.2765  0.0030  0.0557
21205W        W38053   5.820  13.917  13.774  0.2424 -0.2986 -0.3694
21206W        W38054  13.660  13.711   3.547  0.0008  0.0678 -0.0771
21207W        W38055  12.091   5.369  13.447  0.1209  0.0044  0.1196
21208W        W38056   3.057  11.119  15.281 -0.0712 -0.1335  0.3572
21209W        W38057  16.859   9.172  17.704 -0.0233 -0.0665 -0.1113
21210W        W38058   3.763   5.893   3.541 -0.0748  0.3398  0.2024
21211W        W38059   9.385  15.817  15.022 -0.0612 -0.0306  0.0111
21212W        W38060  12.054   7.052  15.200  0.0252  0.1443 -0.1993
21213W        W38061   8.665   8.780  16.158 -0.0693 -0.0402 -0.0293
21214W        W38062   4.002   9.792   6.097  0.1456 -0.0118  0.1862
21215W        W38063   4.001   4.279   5.101  0.0000 -0.1980 -0.0341
21216W        W38064  10.490   6.377   4.155  0.1638  0.1197  0.1234
21217W        W38065  14.497  16.657   4.287 -0.0905  0.0558 -0.1748
21218W        W38066  14.786   2.248   0.191  0.0023 -0.2055 -0.0180
21219W        W38067  16.047   5.502   1.846  0.0287 -0.2875 -0.0193
21220W        W38068   7.952   9.122  15.131 -0.1267 -0.0601 -0.1453
21221W        W38069  11.764  13.200  13.230  0.1439 -0.0644  0.1267
21222W        W38070   8.307  13.994   2.509 -0.1946  0.1254 -0.2105
21223W        W38071   8.636  10.420  12.209 -0.1875  0.0432 -0.1624
21224W        W38072  11.858   3.496  13.939 -0.0607  0.0525 -0.1890
21225W        W38073   0.734   8.092  15.302  0.0490 -0.1335 -0.2506
21226W        W38074   6.435   9.211  15.176  0.0861  0.5248  0.2373
21227W        W38075  11.574   0.701  15.407  0.3776 -0.0364 -0.0656
21228W        W38076  15.044   7.434  17.406  0.0786  0.1004 -0.0620
21229W        W38077   1.991   3.864  15.426 -0.0380 -0.0563  0.0285
21230W        W38078  13.169   6.673   0.472 -0.0115 -0.0199 -0.1480
21231W        W38079   9.676   9.868  13.323  0.0265 -0.0227  0.2065
21232W        W38080   6.917  13.541   6.237  0.0646 -0.1358 -0.2728
21233W        W38081  12.767  13.854   1.979 -0.0536  0.1350 -0.0534
21234W        W38082   9.642  12.692  16.828 -0.1054 -0.0314  0.3580
21235W        W38083   6.081  12.962   5.769 -0.0480  0.0206 -0.1230
21236W        W38084   3.579  16.458   0.488  0.1216 -0.0229 -0.0525
21237W        W38085  10.674   8.802   2.174  0.0587 -0.0188  0.3314
21238W        W38086   2.583   6.502   5.388 -0.1094  0.2565 -0.1232
21239W        W38087   0.302   2.072  13.476  0.2646 -0.1836 -0.1580
21240W        W38088   2.277   1.249   0.467 -0.1441  0.1427  0.0226
21241W        W38089  16.124   8.650  17.514  0.1677 -0.1087 -0.1617
21242W        W38090   7.338   9.796  17.164  0.0856 -0.0862 -0.0430
21243W        W38091  11.757   5.796  11.974  0.0580  0.1463 -0.4070
21244W        W38092   0.019   1.663   5.096 -0.0623  0.1012  0.1292
21245W        W38093   5.259  10.011  16.609 -0.1376 -0.1163  0.0299
21246W        W38094   6.192  10.966  16.412 -0.1135  0.0741  0.0769
21247W        W38095   6.252   2.655   5.546  0.1628 -0.0109 -0.0693
21248W        W38096   1.033   9.537   5.404  0.1093  0.2130 -0.0195
21249W        W38097  16.641   4.207   4.751 -0.3874 -0.0094  0.2404
21250W        W38098  14.524   1.434  17.608 -0.3770  0.2269 -0.1946
21251W        W38099   4.972  12.766  14.947  0.0628  0.0509  0.0881
21252W        W38100   3.792  10.239   4.718  0.2355  0.0912  0.2378
21253W        W38101   5.322   6.957  17.540  0.0059  0.2031  0.2558
21254W        W38102   1.971   5.419   5.389 -0.1045 -0.0689 -0.3051
21255W        W38103  12.284  16.610  14.245 -0.5070 -0.0907  0.2442
21256W        W38104  15.917  12.533   1.119 -0.0267 -0.0941 -0.0715
21257W        W38105  10.867  10.289  14.759 -0.0027  0.4316  0.1239
21258W        W38106   8.703   2.093   3.466  0.1039  0.0565  0.0472
21259W        W38107   4.836  12.278   1.808 -0.0502 -0.1783 -0.0369
21260W        W38108  10.497   7.985   2.917  0.0414 -0.1102  0.1607
21261W        W38109  12.320  15.134   1.575 -0.0692 -0.1357 -0.2431
21262W        W38110  15.286   8.477   1.117 -0.1228  0.2472  0.1124
21263W        W38111   9.678   5.221   2.624 -0.3096  0.1693 -0.1794
21264W        W38112   3.492  16.370   3.239 -0.4065 -0.0543 -0.2599
21265W        W38113   8.555  10.672   3.422 -0.3093  0.0170 -0.1716
21266W        W38114  13.337   4.175   3.313 -0.0185  0.2618 -0.1203
21267W        W38115   0.324   0.545   2.082 -0.3273  0.2125  0.2345
21268W        W38116   1.381   9.504  13.925  0.1343  0.1272  0.0037
21269W        W38117   0.049   3.965   4.565  0.3953 -0.2737  0.2102
21270W        W38118   0.362  16.565  17.510 -0.2615 -0.0434 -0.2488
21271W        W38119  10.136   6.159   3.063 -0.2457 -0.0198  0.1372
21272W        W38120  13.190   7.646   3.913  0.0840  0.1414  0.0245
21273W        W38121   4.247  15.678   3.102  0.0257  0.0454 -0.0315
21274W        W38122  14.177  15.604  16.388 -0.2345 -0.0279 -0.3317
21275W        W38123  10.989  13.506   2.335  0.0939  0.1099 -0.3888
21276W        W38124   1.971   3.633   4.478  0.0936 -0.0858  0.0435
21277W        W38125   7.585   5.744   1.764 -0.1021 -0.2399  0.0204
21278W        W38126   0.957   1.108  15.143  0.3254 -0.0975  0.0019
21279W        W38127   3.075  10.544  17.173  0.0598 -0.5339 -0.0480
21280W        W38128   3.018   5.985   2.959  0.0929  0.0523 -0.1326
21281W        W38129   7.015  17.038   5.497  0.2044 -0.0146 -0.1642
21282W        W38130   8.895  15.345  14.901  0.0087 -0.4217  0.0421
21283W        W38131   6.610   6.560  13.675  0.1204 -0.1919 -0.1719
21284W        W38132   8.316  15.873   0.085  0.2368  0.0897  0.0359
21285W        W38133   4.698  10.867  15.698  0.0136 -0.0488  0.2074
21286W        W38134  17.149  15.822  16.971 -0.1516 -0.1874 -0.7099
21287W        W38135  12.836  12.688   0.125 -0.1002  0.2086 -0.0386
21288W        W38136  14.511  12.089  12.291 -0.1912  0.1031 -0.1382
21289W        W38137   3.300   8.739  12.803  0.1353  0.1039  0.0960
21290W        W38138   5.868   5.784   2.724  0.0612 -0.2375  0.0373
21291W        W38139   0.685   3.295   3.413 -0.1764 -0.2458 -0.0457
21292W        W38140  12.203  12.794  13.774 -0.0750 -0.1389 -0.0769
21293W        W38141   2.379  11.128  12.652  0.1552  0.1062 -0.0307
21294W        W38142   2.082  13.343   5.227  0.2134  0.1263  0.0820
21295W        W38143   0.195  16.018  14.758  0.0298 -0.1867 -0.1450
21296W        W38144   1.488   1.800   5.029  0.0342  0.1918 -0.0100
21297W        W38145   1.028   7.988   1.888  0.1318  0.1283 -0.0398
21298W        W38146   1.001  14.962  16.069  0.0509 -0.1932  0.0835
21299W        W38147   9.021   9.250  17.783 -0.0538 -0.0345 -0.0764
21300W        W38148  13.563  17.148  14.132  0.1052  0.0705 -0.1932
21301W        W38149   8.457  17.010   1.693  0.1172 -0.2169  0.0763
21302W        W38150   3.332   8.425   3.196 -0.0511  0.2139  0.3240
21303W        W38151   4.865   5.158  12.681 -0.0737 -0.0156  0.1226
21304W        W38152  14.631  12.697  12.928 -0.1034 -0.1408 -0.3346
21305W        W38153   0.654   2.142  11.525  0.0364  0.1826 -0.1994
21306W        W38154  13.930   7.208  15.683  0.2640  0.0256 -0.2516
21307W        W38155   0.586  14.360   1.462 -0.0271 -0.2147 -0.0398
21308W        W38156  10.732   6.027   5.111 -0.0971 -0.1829 -0.0695
21309W        W38157   4.498   8.889  15.588 -0.0994 -0.0851 -0.0399
21310W        W38158  16.931  15.074  17.368  0.1076  0.1175  0.1480
21311W        W38159   5.227  14.196  16.963 -0.2484  0.0524 -0.0511
21312W        W38160   3.444   9.279   3.872  0.0123 -0.0232  0.0404
21313W        W38161  10.878   4.324  16.177  0.0982  0.1384  0.1601
21314W        W38162   3.666  16.228  14.445 -0.1525 -0.0153 -0.0296
21315W        W38163   7.509  10.772   0.285  0.3041 -0.0973  0.3135
21316W        W38164   6.312   2.516  14.361  0.0586 -0.2264  0.0269
21317W        W38165  10.886   6.538  15.907  0.0702 -0.0009  0.2738
21318W        W38166  16.824   8.482   4.731 -0.0264 -0.2998 -0.0350
21319W        W38167   3.493   0.975  15.698 -0.1314  0.1032  0.1842
21320W        W38168  16.453   3.642   1.615  0.1819 -0.0418  0.1371
21321W        W38169  16.528  10.955  17.063 -0.0204  0.2071  0.0832
21322W        W38170   1.174   5.229   3.502  0.0775  0.1091 -0.3037
21323W        W38171  14.057  12.859   2.619 -0.2035 -0.0043 -0.0214
21324W        W38172  16.444  10.149  15.898  0.1185  0.0534 -0.0520
21325W        W38173   5.400  16.304   4.376  0.2660 -0.2196 -0.2644
21326W        W38174   4.669  15.428   0.616  0.0158  0.0233  0.2177
21327W        W38175  12.753  11.939  17.473 -0.0019  0.0244 -0.3296
21328W        W38176  11.013   8.266  11.947 -0.0295  0.1281  0.0875
21329W        W38177  15.151  16.909  15.186  0.1103 -0.0290 -0.1820
21330W        W38178   0.150  14.375   3.473 -0.2058 -0.0653 -0.4867
21331W        W38179   5.099   9.684  12.111  0.0373  0.2177 -0.0471
21332W        W38180  13.144  10.768  12.276 -0.0401 -0.3546  0.2487
21333W        W38181   1.025  12.604   4.327  0.1468 -0.1063  0.1687
21334W        W38182   0.875  16.163  11.680 -0.0058  0.0598 -0.0873
21335W        W38183   3.309  13.758  15.920 -0.1012  0.1342 -0.2966
21336W        W38184   4.895  13.552  15.497  0.2071  0.1866  0.2149
21337W        W38185   3.725  11.714  16.411 -0.0975  0.0021  0.1462
21338W        W38186   0.371   2.263   2.132  0.0284  0.0562 -0.0458
21339W        W38187  12.413  11.357  13.225  0.1518 -0.1947 -0.1229
21340W        W38188  10.318   6.820   0.895  0.0820 -0.0151 -0.0411
21341W        W38189  15.130  12.982   1.364  0.1631 -0.0948 -0.3471
21342W        W38190   8.064  10.541   3.561 -0.1882  0.3968 -0.1827
21343W        W38191   4.725  14.345   5.087 -0.0555  0.0605 -0.0170
21344W        W38192  11.649  17.136   0.384 -0.3933  0.1167 -0.1192
21345W        W38193  13.087  14.316   4.581 -0.2661  0.1838  0.1176
21346W        W38194  15.930   3.831   0.169 -0.0886 -0.0702 -0.1232
21347W        W38195  12.705   0.619  13.790 -0.1576 -0.0258  0.1728
21348W        W38196   1.845  11.608  16.266  0.3461  0.4450  0.0741
21349W        W38197  11.344   3.068   1.201  0.3594 -0.2644  0.0803
21350W        W38198  10.479  15.858   0.819 -0.2255  0.0165  0.0285
21351W        W38199   9.100  11.126  13.209 -0.0133 -0.0379 -0.0754
21352W        W38200  11.061   4.079  13.967 -0.4301  0.0505  0.1042
21353W        W38201   0.890   2.783   4.743 -0.1613  0.0841  0.1257
21354W        W38202  13.870   8.189  14.453  0.0104 -0.2006  0.0394
21355W        W38203   6.461  13.163   4.617 -0.3016 -0.1990 -0.0079
21356W        W38204   1.992   8.448   1.200  0.3047  0.0094 -0.1647
21357W        W38205   3.975  10.146  16.767  0.1317  0.2085  0.1705
21358W        W38206  14.840   7.576  13.190 -0.2485 -0.1542  0.2406
21359W        W38207   4.383  15.047  17.654 -0.0631  0.0759 -0.0979
21360W        W38208   0.838   4.049   4.083  0.0379 -0.1607 -0.2825
21361W        W38209   2.217  13.065   4.096  0.0334  0.0549  0.0007
21362W        W38210  12.064   9.836  16.168  0.1798 -0.2136 -0.0224
21363W        W38211  16.546  12.852   3.746 -0.0193 -0.2856 -0.1308
21364W        W38212  12.439  14.561   2.852  0.2116 -0.1362 -0.1108
21365W        W38213   7.770   0.051  14.212  0.1443  0.1200  0.0958
21366W        W38214   0.707   4.184  11.795  0.0071  0.0025 -0.2806
21367W        W38215  13.050   6.301   0.196 -0.1934 -0.1721 -0.1734
21368W        W38216   8.456   3.196  14.170  0.0786  0.0444  0.2006
21369W        W38217   2.871   4.234   1.193 -0.0457 -0.1843  0.3402
21370W        W38218  11.339  13.789   6.090  0.1297 -0.0080  0.2886
21371W        W38219  15.496   6.511   2.207 -0.2853  0.2826  0.1581
21372W        W38220   3.853  15.145   3.902 -0.0709 -0.0918  0.1261
21373W        W38221   4.986   2.782   4.703 -0.0995 -0.0193  0.3373
21374W        W38222  14.367  15.617  15.795 -0.1027 -0.1152 -0.3495
21375W        W38223   0.340   8.933   5.427  0.3027  0.0588  0.1061
21376W        W38224   5.434   5.985   2.808  0.0943  0.0833 -0.3061
21377W        W38225   4.266   1.327  17.782  0.3397 -0.0024  0.2788
21378W        W38226  16.210  13.443  12.643  0.1585  0.2983 -0.1340
21379W        W38227   6.096  15.518  12.946  0.2246 -0.1085 -0.1440
21380W        W38228   7.238   4.663   4.584  0.0366  0.2521 -0.3197
21381W        W38229  12.762   9.327  11.894  0.1942 -0.1669  0.2825
21382W        W38230   4.049  13.142   3.975  0.1144 -0.0210  0.4476
21383W        W38231   6.379   8.204   4.515 -0.0873 -0.4135  0.0373
21384W        W38232  10.864  15.650   5.969 -0.2097  0.0646 -0.0705
21385W        W38233   8.515  12.402  13.351 -0.3421  0.2065  0.0379
21386W        W38234  15.736   0.646  15.195  0.0022  0.2636 -0.0677
21387W        W38235  11.490  15.270   2.087 -0.0406 -0.0414 -0.2026
21388W        W38236  14.399  11.622  15.097 -0.3328 -0.2949 -0.1830
21389W        W38237   4.082   9.029  14.360  0.0675  0.2122  0.2970
21390W        W38238  14.433   7.085  13.186  0.4963 -0.0524 -0.3495
21391W        W38239  12.822  13.335   1.431  0.0417  0.1048  0.0354
21392W        W38240   7.126   0.669   0.214  0.0836 -0.0276 -0.0283
21393W        W38241  16.028   5.432   4.224 -0.0236  0.1513 -0.2159
21394W        W38242   1.962   9.627   4.283 -0.1016  0.2751  0.0889
21395W        W38243   0.655  14.737  14.176  0.0420  0.1903 -0.3022
21396W        W38244   3.684   8.562   6.783 -0.0285  0.1111  0.0475
21397W        W38245   0.184   6.361  12.474  0.1481  0.0095 -0.1801
21398W        W38246  17.020   1.748   2.374  0.3581  0.1446  0.1803
21399W        W38247   8.806   8.005  17.361  0.2995 -0.3149 -0.1507
21400W        W38248   2.981  12.050  15.255 -0.2062  0.0175  0.1530
21401W        W38249   9.458   9.784   0.758 -0.0764  0.0721 -0.0532
21402W        W38250  16.883  14.605  13.786  0.1617  0.1407  0.1539
21403W        W38251  16.558  14.322  14.145 -0.0639 -0.0906 -0.0855
21404W        W38252   1.014  16.553   6.092 -0.1665  0.2402 -0.0789
21405W        W38253   0.024  14.695  12.979 -0.1992  0.3367  0.0218
21406W        W38254  14.602   1.904   4.591 -0.1241  0.4010  0.3427
21407W        W38255   4.980  16.010   1.714  0.0104 -0.1597 -0.0546
21408W        W38256   1.625  11.725  14.902  0.2447  0.1348 -0.0478
21409W        W38257   6.934   2.623  17.213 -0.1331 -0.0139 -0.3216
21410W        W38258  13.575  12.513   0.770  0.1805  0.4509  0.2152
21411W        W38259   4.300  16.789  16.224  0.2350 -0.2442  0.2993
21412W        W38260  10.864   1.744  11.497 -0.2944 -0.0704  0.1901
21413W        W38261   4.291  10.697   5.006  0.2354  0.1220 -0.3788
21414W        W38262   0.604   7.353   3.958  0.3262 -0.2098 -0.2509
21415W        W38263   9.285  11.320   0.684  0.0795 -0.0350  0.0335
21416W        W38264   8.999  16.453  12.821  0.2145 -0.0257 -0.2317
21417W        W38265  16.613   6.522  14.144 -0.5410 -0.2461  0.2556
21418W        W38266   6.890  12.921   0.254 -0.1230  0.1451  0.0330
21419W        W38267   9.187  11.445   2.099  0.2740 -0.0810  0.0355
21420W        W38268  11.012  10.796   5.780  0.2694  0.0524  0.1245
21421W        W38269   6.226   4.650   0.189  0.1031 -0.0671 -0.1693
21422W        W38270  13.656   0.938   3.421 -0.1071  0.3594 -0.1545
21423W        W38271  13.072   8.254  14.796 -0.0149 -0.4927  0.0032
21424W        W38272  12.079   4.422  16.315 -0.1899 -0.2062 -0.1897
21425W        W38273   4.781  14.519   6.144  0.2162  0.1141  0.2029
21426W        W38274   5.122  13.231  16.804 -0.2864 -0.1935 -0.4855
21427W        W38275  11.237  11.365   1.743 -0.0084 -0.1179 -0.0176
21428W        W38276  12.680   8.340  15.493  0.1016  0.0602 -0.1774
21429W        W38277  14.675  16.307   0.747  0.0104  0.0510  0.0134
21430W        W38278   3.902   3.462  15.352  0.1465  0.1022 -0.0472
21431W        W38279   4.484  15.184   1.051  0.0884  0.2149 -0.0361
21432W        W38280  11.417   5.068   2.537 -0.1194  0.2256 -0.3602
21433W        W38281  13.982  11.981  12.300  0.1801  0.0479 -0.1043
21434W        W38282   8.083   7.888   1.211  0.3031  0.2641 -0.1624
21435W        W38283  12.367  17.001   0.887  0.2292  0.0439 -0.0681
21436W        W38284   3.368   5.349   0.087  0.2292  0.3897 -0.4674
21437W        W38285   8.573  10.907   5.418  0.2308 -0.0684  0.5344
21438W        W38286   0.929   6.336   4.835 -0.1663 -0.1288 -0.0756
21439W        W38287  14.042  11.500   4.528 -0.2851  0.1402 -0.1408
21440W        W38288   4.374   9.347  16.557 -0.1858 -0.0499 -0.1378
21441W        W38289  13.692  16.065   2.534  0.1522  0.1748  0.0163
21442W        W38290   1.088  10.707   1.705  0.1134 -0.0405 -0.2130
21443W        W38291  13.054   2.849  11.768  0.0099 -0.0188  0.2091
21444W        W38292   0.723   0.111   5.786  0.0231 -0.0516  0.0246
21445W        W38293  14.319  12.930  15.237 -0.3505  0.1490 -0.0965
21446W        W38294  13.380   6.286  16.542 -0.0357  0.2779  0.1495
21447W        W38295   5.296  13.824   4.423  0.1224  0.2116  0.0338
21448W        W38296   8.119   1.019  15.740 -0.0337  0.0861 -0.0050
21449W        W38297  14.258  10.445  17.095  0.0392 -0.0229  0.1746
21450W        W38298   1.087   9.365   2.764 -0.2029 -0.1711  0.4123
21451W        W38299   9.127  10.675  13.461  0.0364  0.2143 -0.0555
21452W        W38300  11.849  10.555  14.712 -0.2432 -0.0506  0.1353
21453W        W38301   9.139   9.117   1.041 -0.1286  0.2640  0.0421
21454W        W38302   9.640   7.614   2.824  0.1689 -0.0315 -0.1261
21455W        W38303   0.817   1.821   4.901 -0.1386 -0.4828  0.0396
21456W        W38304  15.502  10.137   0.962 -0.0759  0.0013 -0.1494
21457W        W38305   4.764   9.840  15.707  0.0572 -0.2006 -0.0326
21458W        W38306   3.863   2.522   5.524  0.0230 -0.0787 -0.3599
21459W        W38307  10.135   4.699  14.166  0.0128 -0.0143  0.0024
21460W        W38308   3.227   8.196  13.665 -0.1243 -0.2215 -0.0778
21461W        W38309  14.381  15.215   2.276 -0.0928 -0.0788 -0.2086
21462W        W38310  15.682   7.958  13.458  0.2235 -0.0919  0.2864
21463W        W38311   3.436   0.533  17.071  0.2130 -0.0109 -0.0599
21464W        W38312   4.142  10.057   4.126 -0.0429  0.1007 -0.0039
21465W        W38313   1.894  12.853  14.066 -0.1021  0.0565  0.1593
21466W        W38314  11.129   7.548  16.798  0.2767 -0.1018 -0.1460
21467W        W38315   2.792  13.668   0.883  0.0496 -0.2841  0.0928
21468W        W38316   8.978  15.592   2.608  0.3328  0.0777 -0.2684
21469W        W38317  16.970  12.081  12.433  0.2696 -0.5237 -0.0102
21470W        W38318   6.392   9.014  13.106  0.3762  0.0696  0.0168
21471W        W38319   4.610  16.988  17.530 -0.3198  0.1459  0.1290
21472W        W38320   8.312   7.635  17.604  0.2644  0.1127  0.2041
21473W        W38321   9.701  13.344  13.275  0.1876  0.1122 -0.2319
21474W        W38322   3.987   1.517   5.459  0.1547  0.1357  0.0652
21475W        W38323   6.111  14.064   0.102  0.3112  0.1378  0.1374
21476W        W38324   5.314  10.169  17.078 -0.1230 -0.1849 -0.2465
21477W        W38325  10.777  11.696   3.037  0.2765  0.3055 -0.0646
21478W        W38326   8.332   9.071  13.566  0.1699  0.0531  0.0117
21479W        W38327  16.873  13.674   1.769  0.0300  0.0802 -0.2328
21480W        W38328   8.769   7.264  14.383 -0.2092 -0.0405 -0.1953
21481W        W38329  12.678  14.289   4.843 -0.1320 -0.3450  0.2241
21482W        W38330   9.863   0.798  15.007 -0.0850 -0.0065  0.1099
21483W        W38331  11.643   5.421   2.232 -0.0079  0.0113 -0.2200
21484W        W38332   9.714   0.754   5.101 -0.1400  0.0752  0.0415
21485W        W38333   7.125   5.778  17.711  0.2049  0.0752  0.0181
21486W        W38334  12.201   2.953  16.853  0.0005  0.1763  0.3627
21487W        W38335   5.816   6.913  16.555 -0.1383  0.2142 -0.1361
21488W        W38336  12.010  15.740   3.003  0.0251  0.0235  0.1143
21489W        W38337   5.151  16.287   0.299  0.2386 -0.1463  0.0851
21490W        W38338  10.069   4.709   4.629  0.1195 -0.1738 -0.4110
21491W        W38339   0.113   0.125  15.689  0.0423  0.0222 -0.2267
21492W        W38340  16.657  11.055  13.165  0.2278 -0.0319 -0.2745
21493W        W38341   3.677   4.747   5.347 -0.1662  0.1161 -0.0768
21494W        W38342   8.837   9.413   2.013  0.0215  0.3378 -0.1347
21495W        W38343  14.391  13.200   1.409 -0.2074  0.0550  0.0621
21496W        W38344   9.231   6.618  13.327 -0.1263  0.0687 -0.1793
21497W        W38345  11.314  11.790   2.887  0.0113  0.2727  0.3360
21498W        W38346  12.540   3.218   2.554 -0.3796  0.3322 -0.0694
21499W        W38347  11.120  10.049  16.163 -0.0632  0.1821  0.1040
21500W        W38348  13.570  10.287  14.712  0.2571  0.0930  0.1220
21501W        W38349   0.160  11.363   0.621 -0.1505 -0.0655  0.0666
21502W        W38350   4.060   9.027  11.429 -0.2066  0.0556  0.4592
21503W        W38351   2.755  11.755  13.189  0.1947 -0.2606  0.0795
21504W        W38352  11.214   1.352  17.627  0.0263 -0.0180 -0.0866
21505W        W38353  12.554  16.189   1.808  0.2107  0.0478 -0.2913
21506W        W38354  10.146   4.783  12.912  0.3354 -0.0324  0.0394
21507W        W38355   4.312   4.872   2.360 -0.0698 -0.2677  0.1959
21508W        W38356   8.014   0.981   1.256  0.0005  0.0496  0.0608
21509W        W38357   4.581  12.600  12.543 -0.0999  0.2874 -0.1059
21510W        W38358   7.362   0.880  14.138 -0.0231 -0.2669  0.2382
21511W        W38359   4.534   7.614  13.299  0.1911  0.0351  0.0099
21512W        W38360  12.964   2.268   4.126 -0.3452 -0.0396 -0.2413
21513W        W38361   6.021   9.647  17.775  0.1708 -0.0940 -0.0270
21514W        W38362   1.574  11.809  12.645 -0.0655 -0.0044 -0.0361
21515W        W38363   4.373   9.806   5.250 -0.0552  0.1975 -0.2022
21516W        W38364   5.329  17.129  17.134  0.0582  0.4664 -0.0598
21517W        W38365   5.679  12.334   0.127  0.2283 -0.0260  0.5883
21518W        W38366   1.824  12.561  15.909  0.3523  0.3025 -0.0489
21519W        W38367   3.452   1.512   1.772 -0.2309 -0.3417 -0.1745
21520W        W38368   9.650   4.343   0.962  0.1298 -0.5466 -0.0969
21521W        W38369   5.729   8.800   1.398  0.1913 -0.0276 -0.1561
21522W        W38370  10.578   5.049   2.765  0.1587 -0.0295  0.0100
21523W        W38371  13.462  10.619   3.021 -0.1131  0.2464 -0.2567
21524W        W38372   3.609  12.390  12.952 -0.0986  0.1239  0.0262
21525W        W38373  12.351  14.203   2.553  0.0634 -0.0421  0.2259
21526W        W38374   8.978  13.217   3.364  0.4174 -0.0558  0.0041
21527W        W38375  11.530   5.933  13.757 -0.1232 -0.0299 -0.1778
21528W        W38376   9.717   0.033   0.607  0.1764  0.0875  0.1568
21529W        W38377   8.020   7.761  14.361  0.2008  0.2339 -0.0706
21530W        W38378  13.258   6.786  13.780 -0.0067 -0.2774  0.0451
21531W        W38379   6.346  14.926  16.659  0.1209 -0.0530  0.2955
21532W        W38380   7.170   8.665  15.959 -0.0478  0.1754  0.3481
21533W        W38381   0.413   5.187  16.365  0.0246 -0.0747 -0.1209
21534W        W38382   0.505  12.507  14.464  0.1230 -0.0090 -0.2363
21535W        W38383  11.715  11.658   2.645 -0.0872 -0.0546 -0.2138
21536W        W38384  16.450   7.299   3.317 -0.2126 -0.0882  0.0928
21537W        W38385  15.957  12.531   4.764  0.2603  0.1517 -0.0893
21538W        W38386   7.411  13.261  13.839  0.2869  0.0527  0.3965
21539W        W38387  13.222  12.957   0.684  0.2585  0.1705 -0.1352
21540W        W38388   1.034   8.004   4.300 -0.0094  0.1353 -0.1609
21541W        W38389  12.853   8.269   5.681 -0.0699 -0.1025  0.2104
21542W        W38390  10.202  12.193   3.770 -0.0131 -0.3052 -0.0934
21543W        W38391   3.582  17.074  13.867  0.2152 -0.2916  0.2963
21544W        W38392   3.867  10.329  14.853  0.0580 -0.0386  0.1307
21545W        W38393  12.633  15.861  14.249 -0.0777 -0.1388 -0.0301
21546W        W38394  14.711  15.978  14.191 -0.2421 -0.0524  0.0229
21547W        W38395  16.897  14.622   3.327  0.2469  0.0541 -0.2206
21548W        W38396   9.108   8.879   2.440  0.1366 -0.2526 -0.3013
21549W        W38397   7.297   7.212   0.751  0.1341  0.0325  0.2767
21550W        W38398   9.433  14.676  13.520 -0.1185  0.3189 -0.1367
21551W        W38399  14.382  16.385  16.429 -0.4009 -0.1301  0.0812
21552W        W38400   9.402   3.470   4.453 -0.1811 -0.0120  0.2094
21553W        W38401  11.208  16.641   1.538  0.3852 -0.0656 -0.0523
21554W        W38402   7.196  14.071  14.092  0.0255 -0.3051  0.0914
21555W        W38403  12.294  10.183  13.876  0.0269 -0.2979 -0.0624
21556W        W38404   1.497  17.038  17.126 -0.1889 -0.1423 -0.0970
21557W        W38405   1.859  10.059   4.438  0.1444  0.2684  0.1732
21558W        W38406   8.904   7.005  13.328 -0.0348 -0.2163  0.0157
21559W        W38407  11.769  12.313   0.838 -0.1450  0.1783  0.2752
21560W        W38408  14.858  14.821  13.657  0.0620  0.0352 -0.0941
21561W        W38409   5.013   1.822   5.634 -0.1797 -0.0141  0.0532
21562W        W38410   9.793   6.863   0.472  0.1150  0.0741  0.0297
21563W        W38411   8.837   1.667   1.319 -0.3368 -0.2222 -0.1976
21564W        W38412   6.034  15.767  17.092  0.0441 -0.1449  0.1567
21565W        W38413   2.858  11.122  12.554 -0.0615 -0.3123  0.2440
21566W        W38414   4.570  14.033   1.788 -0.0984 -0.1631 -0.0551
21567W        W38415   3.222  11.822  16.212 -0.2823 -0.0540  0.0074
21568W        W38416   2.630   6.582  12.210  0.1154  0.1874 -0.2656
21569W        W38417  13.478   2.504  14.315  0.1540  0.0684  0.2830
21570W        W38418   8.029   4.246  17.612 -0.0625  0.2580 -0.3267
21571W        W38419   4.663   4.655   0.666 -0.1442  0.0174  0.2537
21572W        W38420  11.977   3.435   0.482  0.1224 -0.0612  0.1569
21573W        W38421   3.994   2.061   2.553  0.1972 -0.0409  0.1723
21574W        W38422   3.666  13.191   1.935  0.1646  0.2127  0.0442
21575W        W38423   4.081  10.254  16.293  0.1899 -0.2312 -0.3527
21576W        W38424  13.712   0.250  16.121  0.0369  0.0165 -0.1464
21577W        W38425   8.327   0.392   3.161  0.0950 -0.2396 -0.1281
21578W        W38426   2.368   5.730   3.583  0.1381 -0.1695 -0.0175
21579W        W38427   6.613  13.512   1.428 -0.0555 -0.1132  0.1405
21580W        W38428   1.764   4.368  17.374 -0.2540 -0.1928  0.0889
21581W        W38429  15.210   2.765  17.310 -0.0404  0.1445 -0.1743
21582W        W38430   0.081   0.554  15.997  0.0092 -0.0405 -0.1204
21583W        W38431  14.654  15.225  16.530  0.1395 -0.1336  0.2722
21584W        W38432   1.359  11.623  16.083 -0.1319 -0.2106  0.0590
21585W        W38433   5.568   9.062  17.771  0.0657 -0.2741  0.0570
21586W        W38434   1.377   5.772   1.959  0.0841  0.0044 -0.0790
21587W        W38435  12.606  11.968   4.796 -0.2918  0.0671 -0.0164
21588W        W38436   7.690   2.738  13.181 -0.5574  0.1452  0.1165
21589W        W38437   9.082   3.161  15.826 -0.1834  0.4461  0.3468
21590W        W38438  11.065  13.608   4.272  0.2498 -0.1481  0.0556
21591W        W38439  13.023  12.015  14.933 -0.1252 -0.2103  0.2303
21592W        W38440  15.163  15.154  16.551 -0.1898 -0.0088  0.0573
21593W        W38441  16.698  10.556   1.334 -0.0102  0.0004 -0.0696
21594W        W38442  15.142  15.041   0.186  0.0939  0.0682 -0.1197
21595W        W38443   3.415  10.843  12.694  0.0326 -0.0174  0.0406
21596W        W38444  14.322   3.907  15.794 -0.1371  0.0327  0.1684
21597W        W38445   3.847  10.369  13.243 -0.2314  0.1734  0.1061
21598W        W38446   5.269  13.900   0.256  0.0105  0.1120 -0.0271
21599W        W38447   3.281  10.055   0.139 -0.0128  0.0290 -0.2156
21600W        W38448   4.790  13.648   0.954 -0.3900  0.3546  0.1923
21601W        W38449   8.480   3.024   5.302 -0.0645 -0.1677 -0.3746
21602W        W38450  15.113   4.884  15.246 -0.1581  0.0708  0.0460
21603W        W38451   8.431  16.862   0.718  0.2421 -0.3277 -0.1326
21604W        W38452   8.496   9.081  17.119  0.2339  0.2077 -0.0014
21605W        W38453   4.125   7.340   3.757 -0.1125  0.3037  0.0002
21606W        W38454   5.223   8.008  17.673  0.0408  0.0473  0.1880
21607W        W38455   7.340   5.561   4.720  0.1908  0.1147  0.3835
21608W        W38456  14.804  15.804   4.681 -0.0542  0.4967  0.2329
21609W        W38457   2.837   4.757   3.527 -0.1132 -0.2112  0.0327
21610W        W38458   4.541  12.534   3.424  0.1032  0.2176  0.0986
21611W        W38459   3.006  10.234  15.352  0.1181 -0.0598  0.2093
21612W        W38460   2.098  10.603   0.534  0.0285  0.4570  0.4269
21613W        W38461   9.849   4.468  15.156  0.1501 -0.1048  0.1856
21614W        W38462   2.900  14.130   1.940 -0.0150 -0.0045 -0.0623
21615W        W38463   3.433  14.623   5.380 -0.0442 -0.4348  0.1226
21616W        W38464   9.610   1.918  14.345  0.0523 -0.0034 -0.2305
21617W        W38465   2.117  14.074  12.752 -0.2998 -0.1367 -0.2250
21618W        W38466   3.416   7.262   3.728 -0.0732 -0.2257  0.0164
21619W        W38467  13.236  13.663   1.347 -0.0939 -0.0022  0.1648
21620W        W38468   2.013   8.460   0.005 -0.0790  0.0150  0.0059
21621W        W38469   5.352   5.176  17.521 -0.0171 -0.1062 -0.3733
21622W        W38470   6.159   8.707   0.131  0.0185  0.1455 -0.1284
21623W        W38471   4.664   3.987  15.584 -0.2646 -0.1464  0.2206
21624W        W38472  17.060  11.150  16.148  0.1037  0.0222 -0.0441
21625W        W38473  14.706  14.853  12.748  0.0958 -0.2898  0.1140
21626W        W38474   8.995  10.215  13.198 -0.1449 -0.2625  0.3317
21627W        W38475   5.903  12.266  15.346  0.1274 -0.0384  0.0526
21628W        W38476   3.437   6.209  14.744 -0.2622 -0.3334 -0.3215
21629W        W38477  13.658   2.303   3.222  0.0021 -0.0845 -0.1191
21630W        W38478   3.880  14.490  14.526  0.0530 -0.5517  0.0215
21631W        W38479   8.062  13.491   3.079 -0.0540  0.0026 -0.1124
21632W        W38480  12.219   9.338   3.672  0.1656  0.2249 -0.1161
21633W        W38481  13.965  10.583   5.113 -0.1217 -0.1796 -0.1212
21634W        W38482   9.586   8.122  15.222  0.2623  0.0653 -0.1046
21635W        W38483   6.873  13.191   5.373  0.1378 -0.0350  0.3299
21636W        W38484   0.355   4.681   4.498  0.3108 -0.0892  0.0402
21637W        W38485   9.173  14.879  10.938  0.0582  0.3047 -0.3422
21638W        W38486  10.737   4.863  14.419 -0.2591  0.0886 -0.0884
21639W        W38487  11.290   3.604  17.262 -0.0733 -0.0214  0.1487
21640W        W38488  14.704   6.729  12.320  0.2747  0.0472  0.1769
21641W        W38489  10.569   4.670   4.719  0.3154 -0.3135  0.1192
21642W        W38490   1.293  12.815   0.838 -0.0310 -0.1854  0.3478
21643W        W38491   9.806   2.363  12.152  0.0673 -0.0100 -0.2884
21644W        W38492   3.189   5.606  16.237 -0.3425  0.0626 -0.1428
21645W        W38493  14.994  16.002   3.810  0.0358  0.1574 -0.0670
21646W        W38494   0.590  16.853  15.118 -0.0416 -0.3560  0.0490
21647W        W38495   8.279   4.049   2.700 -0.0599  0.0399  0.0038
21648W        W38496   6.703  15.311   0.029 -0.2843  0.2617  0.0522
21649W        W38497   2.182  16.586   0.851  0.0469 -0.3808 -0.0419
21650W        W38498  16.836  12.342  13.186 -0.2974  0.2861  0.2177
21651W        W38499  16.714   6.791   0.926  0.0060 -0.0327 -0.4176
21652W        W38500  12.544   2.781   0.805 -0.0573  0.0110 -0.1214
21653W        W38501   7.572  13.161   2.397 -0.0080  0.2739 -0.0386
21654W        W38502   1.090   5.301  14.789 -0.2006  0.2343  0.4484
21655W        W38503   0.637  17.098  15.522 -0.1741 -0.0304  0.2275
21656W        W38504  11.178  13.475   6.463 -0.3977  0.1052  0.0204
21657W        W38505  13.448   1.570   1.517  0.1248  0.1542  0.1143
21658W        W38506   2.113   5.840   1.472 -0.2132  0.3286 -0.1612
21659W        W38507  15.121  15.847   1.277 -0.0869  0.2232  0.1147
21660W        W38508  15.676   1.567  17.701  0.2087  0.2341  0.3112
21661W        W38509  16.392  13.233   4.453 -0.2669  0.0248  0.4404
21662W        W38510   4.988   0.754   1.222  0.0277 -0.0448  0.0296
21663W        W38511   9.967   5.275   1.434  0.1704  0.1644  0.0613
21664W        W38512   1.484  12.991   2.651 -0.2466 -0.2184  0.3285
21665W        W38513  12.623   0.765  15.231  0.1110 -0.2837  0.2814
21666W        W38514  15.317  13.347   5.144  0.0878  0.2808  0.2782
21667W        W38515  12.900   1.570   2.474 -0.2609 -0.0234  0.2965
21668W        W38516   0.072   4.802  13.402 -0.0109  0.1026  0.2204
21669W        W38517  12.902  17.108   4.174 -0.0551  0.0339 -0.0409
21670W        W38518  14.054  12.352   2.537 -0.2068 -0.1860  0.1136
21671W        W38519   6.212   1.297   0.890 -0.0223  0.3232 -0.0598
21672W        W38520   9.567   0.605  16.285  0.1097  0.0147 -0.1026
21673W        W38521   0.252   5.430  15.400  0.0418 -0.3448  0.1564
21674W        W38522   6.422   0.369  12.303 -0.2784  0.0401 -0.1326
21675W        W38523  12.432   0.438   0.711 -0.1399  0.0395 -0.0170
21676W        W38524  16.242   1.277   5.347 -0.0456  0.1615 -0.2609
21677W        W38525  12.246   8.426   2.759 -0.3337 -0.3460 -0.0365
21678W        W38526  14.007   6.696   3.460  0.0621 -0.0440  0.0884
21679W        W38527  12.175   3.176   4.097 -0.0417 -0.1317  0.3378
21680W        W38528   4.198   9.133  15.907  0.0305 -0.2531  0.1491
21681W        W38529   2.670  15.540   1.557 -0.1407  0.2794 -0.0921
21682W        W38530   2.935   6.176  15.513  0.3117 -0.2554 -0.2024
21683W        W38531  11.499  17.068   4.928  0.1905  0.0867  0.0900
21684W        W38532   0.684   4.542   2.711 -0.0002 -0.0273 -0.1120
21685W        W38533  10.502  11.367  15.383  0.2326  0.1279 -0.1794
21686W        W38534  10.607  10.396  17.072  0.0877 -0.1660 -0.1523
21687W        W38535   6.500  11.802   5.465 -0.0633 -0.1513  0.2390
21688W        W38536   3.292   0.469  15.619  0.0943 -0.2406 -0.2472
21689W        W38537   2.924  10.365   0.227  0.0618 -0.0917 -0.0519
21690W        W38538  16.045   2.563  13.963  0.1002 -0.2148  0.1404
21691W        W38539  12.281   5.498  13.961  0.2271  0.1212  0.1126
21692W        W38540   3.675  16.141   2.749  0.1437 -0.1410 -0.1637
21693W        W38541  13.992   1.570   1.370  0.0651 -0.4097 -0.2850
21694W        W38542   6.721   0.999   4.505  0.1164  0.1475  0.1112
21695W        W38543   2.554   6.033   3.220 -0.1843  0.0828 -0.1375
21696W        W38544   4.927   8.731  16.550  0.0436  0.1599  0.2907
21697W        W38545  12.016   9.539   4.124  0.1541 -0.0481 -0.0860
21698W        W38546   7.593  12.812  16.974  0.1297  0.1813  0.1264
21699W        W38547   4.363   7.319  14.658 -0.0619 -0.0866 -0.0936
21700W        W38548  11.013   6.653   2.129  0.0170  0.2460 -0.2351
21701W        W38549   8.719  14.107   0.692 -0.0306  0.3351  0.0812
21702W        W38550   2.104  15.499   2.559 -0.3645 -0.1273 -0.0670
21703W        W38551  13.851  16.564  16.501 -0.3413 -0.0460  0.1546
21704W        W38552  11.686   3.908  13.415  0.2931 -0.0640 -0.2150
21705W        W38553  15.712   6.382   0.037 -0.5076  0.1185 -0.2389
21706W        W38554   9.759   7.440  15.418 -0.1322 -0.0477  0.1739
21707W        W38555   0.346   4.390  14.678  0.0108  0.0247 -0.0831
21708W        W38556  13.980   6.303   2.146 -0.1035  0.0678  0.0230
21709W        W38557   1.254  12.010   2.563  0.3382  0.1765 -0.0833
21710W        W38558  16.078   5.903  17.002  0.0552  0.1262  0.2063
21711W        W38559   7.646  11.816   1.753  0.0773  0.3183  0.2680
21712W        W38560   7.071   3.858   2.002  0.0198  0.2310  0.0352
21713W        W38561  15.788  10.564   4.301  0.0066  0.2747 -0.2220
21714W        W38562   7.011   8.087   0.198 -0.0046 -0.1042  0.0664
21715W        W38563   3.505   0.931  11.812 -0.0138 -0.0687  0.0089
21716W        W38564  16.212  16.641  13.406  0.0942 -0.1537  0.0313
21717W        W38565   8.042  11.585  16.608 -0.1350 -0.0287  0.0400
21718W        W38566  15.543   8.181   0.095 -0.0050  0.0027  0.0651
21719W        W38567   5.089  16.370  12.471  0.1043  0.1145  0.0561
21720W        W38568   3.907  15.577   3.454  0.0085 -0.1740 -0.3494
21721W        W38569   5.116   9.979   2.852  0.2313 -0.2939 -0.1754
21722W        W38570  11.348  15.960  16.178  0.1706 -0.1042 -0.3587
21723W        W38571   0.047   2.913   4.511  0.0746  0.1272 -0.1182
21724W        W38572  14.312  10.230  15.441 -0.1258 -0.0365  0.2917
21725W        W38573   3.088   1.766  17.405  0.0548 -0.0344 -0.2495
21726W        W38574   6.710  16.912  11.909  0.1966  0.1459 -0.4770
21727W        W38575   4.466   2.256  12.472  0.1193  0.0822  0.1011
21728W        W38576   3.842  15.977   2.252 -0.2857 -0.2150 -0.3133
21729W        W38577   4.999   0.914   2.463 -0.2069 -0.2709 -0.0831
21730W        W38578   8.589   7.981  12.307  0.0103  0.0082  0.0409
21731W        W38579   7.907   8.573   4.083  0.3867  0.0854  0.2438
21732W        W38580  14.436  16.463  13.208  0.1845 -0.1601  0.2620
21733W        W38581  12.321   1.691   0.752  0.2118  0.0156  0.0007
21734W        W38582   2.536  10.214   1.250 -0.1057  0.0631 -0.0237
21735W        W38583  13.133  13.435  17.650 -0.0378 -0.1768  0.2604
21736W        W38584   2.389   4.697  12.383 -0.0388 -0.1158 -0.0056
21737W        W38585   0.428   9.801   3.846  0.1880 -0.1311  0.0015
21738W        W38586  14.243   3.718  14.882  0.3220  0.1677 -0.0855
21739W        W38587  11.185   9.888   4.168  0.0153 -0.0696 -0.3634
21740W        W38588   6.202   2.894  14.023 -0.1594  0.3517  0.1052
21741W        W38589   6.904   6.621   3.438  0.1756  0.0215  0.1532
21742W        W38590   4.083  14.110   2.483  0.0186 -0.0074  0.1634
21743W        W38591  15.013   8.681   4.706  0.0735 -0.0525 -0.0792
21744W        W38592   8.289  14.750   2.920 -0.2181 -0.0996 -0.2105
21745W        W38593   9.797   8.144   4.940 -0.2782 -0.3507 -0.2830
21746W        W38594  14.618   0.535  17.315 -0.0491  0.1304  0.0311
21747W        W38595   6.811   6.466   4.796  0.1028 -0.0022 -0.2863
21748W        W38596   0.821  17.020  16.554  0.2108 -0.0454 -0.0088
21749W        W38597   4.142   7.617   4.224  0.1639 -0.0378  0.2656
21750W        W38598   6.391   4.730  11.327 -0.0263  0.0419  0.1531
21751W        W38599   1.954  14.388   2.300 -0.3531 -0.0043  0.0488
21752W        W38600   1.031  14.526   1.599  0.3238 -0.0052  0.0667
21753W        W38601   6.187   7.821  17.150 -0.0394 -0.0363  0.1619
21754W        W38602   9.605   4.969  14.892  0.2233 -0.2373  0.1221
21755W        W38603   2.115   5.639  13.867 -0.1691  0.1366 -0.2839
21756W        W38604   0.152  10.438   1.687 -0.0141  0.0513  0.1878
21757W        W38605  11.910  14.019  16.097 -0.1925  0.3403  0.0813
21758W        W38606   3.261  10.331  14.760 -0.1757 -0.0072  0.0160
21759W        W38607   1.039   3.352  13.513  0.0237 -0.2320  0.0399
21760W        W38608   3.874  16.596  12.517  0.0119 -0.2190  0.2146
21761W        W38609   1.080   3.558   4.316  0.2221 -0.0507  0.3036
21762W        W38610   9.671   4.402   4.721 -0.0469  0.1456 -0.2673
21763W        W38611  10.740   1.447  15.741 -0.1701 -0.0430  0.0922
21764W        W38612  14.289   0.027  16.404 -0.0407 -0.0162 -0.0551
21765W        W38613   9.750   7.481  16.520  0.0667 -0.4120  0.1023
21766W        W38614  14.175  14.559   4.015 -0.0145 -0.2415 -0.1610
21767W        W38615  10.585   2.101   1.737 -0.0366  0.0352  0.2995
21768W        W38616   7.004  16.280   2.467  0.2504  0.1126 -0.0096
21769W        W38617   5.605   6.528  16.285  0.3714  0.1479  0.1042
21770W        W38618  10.914   2.015   0.270  0.1973 -0.3131 -0.1182
21771W        W38619  17.128   4.319  13.466  0.0164 -0.1044  0.0919
21772W        W38620  10.343   9.623   3.820  0.2988 -0.1409  0.0309
21773W        W38621   2.339  12.145   4.684  0.1299  0.4272 -0.1453
21774W        W38622  10.648  14.158  14.519 -0.0882 -0.1543 -0.4423
21775W        W38623   8.878  11.545  17.239 -0.0119 -0.0080 -0.0255
21776W        W38624   5.970  11.173  14.297 -0.1093 -0.1726  0.3074
21777W        W38625   4.874  10.707  14.825  0.1436 -0.1623  0.3021
21778W        W38626   8.138  14.573  13.823 -0.1625  0.1807  0.4014
21779W        W38627   0.268   8.921  15.337 -0.2031  0.0311 -0.1439
21780W        W38628   0.046   1.236  14.469 -0.2849  0.1152  0.2147
21781W        W38629   7.777  14.746   3.781 -0.1958 -0.1757 -0.1462
21782W        W38630  16.726  13.823  17.305  0.3662  0.1434 -0.2048
21783W        W38631   9.107  14.017   2.012 -0.2835 -0.0179 -0.2159
21784W        W38632   3.111   2.020   2.041 -0.0423  0.2260  0.0116
21785W        W38633   1.092   8.850   1.905  0.0155 -0.0915  0.3178
21786W        W38634  16.852   9.476   3.245  0.0774  0.1740  0.1060
21787W        W38635  14.377   9.220   3.432  0.0234  0.0732  0.0109
21788W        W38636   0.896  15.031   0.985 -0.0294  0.0275  0.2654
21789W        W38637   1.764   8.711  13.683 -0.0351  0.0634  0.0169
21790W        W38638   7.268   2.809   2.659  0.0185  0.0038 -0.2297
21791W        W38639  11.064   0.379   1.004 -0.0679  0.0609  0.1293
21792W        W38640   6.797   2.642   3.940  0.0323  0.1000  0.2046
21793W        W38641   9.530  16.101  14.556  0.0641 -0.1834  0.2810
21794W        W38642   5.361   7.490  17.522 -0.0182 -0.2874  0.0903
21795W        W38643   7.027  15.965  16.970  0.1020  0.3741 -0.0609
21796W        W38644  11.477   5.346  13.466  0.2320 -0.0636 -0.0239
21797W        W38645  16.638   1.250   5.675 -0.2529  0.0926 -0.1370
21798W        W38646  11.591   9.188   1.950  0.0211 -0.1396 -0.1723
21799W        W38647  12.872   4.900   4.273  0.0904 -0.0734  0.1952
21800W        W38648  16.981   1.401  16.172  0.0346 -0.3191 -0.1069
21801W        W38649   5.991   9.754  17.239 -0.0975  0.0368  0.0082
21802W        W38650   9.899   4.389   4.248  0.0548  0.0683 -0.3121
21803W        W38651  10.645   7.287  14.165 -0.0874 -0.1526  0.1991
21804W        W38652  10.817   0.355  13.572  0.0742 -0.2920 -0.1511
21805W        W38653  14.601   1.743  14.208  0.2546  0.5656 -0.3139
21806W        W38654   0.719   0.501  13.898  0.0622 -0.2390  0.0951
21807W        W38655   8.705  16.554  15.138  0.0282  0.3800 -0.0460
21808W        W38656   4.764  13.157   0.194  0.1533  0.0954  0.3862
21809W        W38657   0.580  13.354  17.669  0.1572  0.0914  0.0957
21810W        W38658   8.040   5.793  14.758  0.0635 -0.1902  0.0511
21811W        W38659   8.648  14.669   5.978 -0.3028 -0.2387  0.2637
21812W        W38660   0.921   5.419  15.290 -0.2280 -0.0566 -0.2540
21813W        W38661  12.117   2.949   0.218 -0.1019 -0.0175  0.1257
21814W        W38662   6.313  14.404  15.987  0.2066 -0.4346  0.2518
21815W        W38663  16.043  16.321  15.771 -0.3305 -0.0388 -0.0357
21816W        W38664   0.270  12.037   1.773 -0.1540 -0.0824  0.0101
21817W        W38665  14.946  16.143  16.447 -0.1507 -0.4721  0.0113
21818W        W38666  11.315   5.026  13.072  0.0714  0.0824 -0.1614
21819W        W38667  16.916   9.532   5.666  0.0014  0.0686 -0.3551
21820W        W38668  14.853   8.083  17.335  0.0925 -0.1132 -0.0187
21821W        W38669  14.992   2.718   0.215  0.0998 -0.1923  0.1158
21822W        W38670  13.273  11.427  17.443  0.2560 -0.2410 -0.1217
21823W        W38671  14.429  10.443  13.637  0.2083 -0.0253 -0.0151
21824W        W38672  14.564   0.159   4.993 -0.2398 -0.1372 -0.0987
21825W        W38673   4.745   8.944   4.421 -0.0322 -0.0253  0.0960
21826W        W38674  12.421   8.294   5.498 -0.1585  0.2504  0.0992
21827W        W38675   5.075  12.033  14.718 -0.0754 -0.0844  0.1380
21828W        W38676  14.859   9.692   6.239  0.1082  0.0067 -0.2094
21829W        W38677   8.468  12.177   1.168  0.1133 -0.2992  0.4028
21830W        W38678  10.013   2.327  17.285  0.0136 -0.0504 -0.1492
21831W        W38679  10.901   5.274   5.159  0.0391 -0.2931  0.1940
21832W        W38680  14.261   4.955  15.698 -0.1200 -0.1124  0.0223
21833W        W38681   6.781   3.691   2.422 -0.0883  0.2154 -0.2098
21834W        W38682  11.829   1.330   0.604 -0.0566 -0.1467 -0.1326
21835W        W38683   0.962   8.079   5.333 -0.0962  0.2467 -0.1162
21836W        W38684  12.663   4.359  15.202 -0.4233 -0.0749  0.1081
21837W        W38685  11.269   6.973  12.494 -0.1959 -0.1508 -0.1087
21838W        W38686   6.732  15.255  12.248 -0.1731  0.1164  0.2692
21839W        W38687  16.743   4.404   2.324  0.1899 -0.0967 -0.2504
21840W        W38688  14.898   0.256   2.967  0.2505  0.0197 -0.0790
21841W        W38689  15.529  14.623  14.228 -0.2617  0.0172  0.1320
21842W        W38690  12.141   3.217  15.764  0.0252 -0.0823 -0.1003
21843W        W38691   8.758  14.262   1.228 -0.3086 -0.2539 -0.3055
21844W        W38692  14.284   2.567  12.004 -0.1158 -0.2437  0.2314
21845W        W38693  17.063  13.000  12.621  0.0754 -0.1001 -0.0711
21846W        W38694  15.784   4.670   3.525  0.0414 -0.2414 -0.2133
21847W        W38695  16.179   2.243  17.036  0.2833  0.1296 -0.2064
21848W        W38696  13.139   1.400   5.785  0.2488  0.0770  0.1545
21849W        W38697   3.514   8.589  17.284  0.0661  0.1120  0.1216
21850W        W38698   0.475  10.315   2.074 -0.1767  0.2273  0.2528
21851W        W38699   3.562  13.647   1.806  0.0702  0.1147 -0.0751
21852W        W38700  16.707   5.466  12.582 -0.0026  0.2777 -0.2869
21853W        W38701   5.977   9.591   1.802  0.3689 -0.0835  0.2212
21854W        W38702   6.066  15.598   3.628  0.1158 -0.0618 -0.1179
21855W        W38703   8.374   1.034   4.016  0.1636  0.2308 -0.1179
21856W        W38704   1.551   1.510  14.703  0.1930 -0.2332  0.0952
21857W        W38705   8.364   2.808  17.498 -0.2371  0.3016  0.0646
21858W        W38706  14.838  16.751   0.388 -0.1270 -0.0313  0.1327
21859W        W38707   6.995   7.358  17.209 -0.0796  0.0966  0.2130
21860W        W38708   6.437   4.044  15.693  0.3106 -0.0493  0.0181
21861W        W38709   3.666  15.762   1.816  0.1590  0.0274 -0.1626
21862W        W38710  13.564   3.275  16.233  0.0513  0.2382  0.2034
21863W        W38711   0.131   0.433  14.064  0.1380 -0.0553  0.1023
21864W        W38712  11.000  16.296  15.895 -0.2092  0.1530  0.0745
21865W        W38713   0.457   4.904   3.620  0.2293  0.1135 -0.2225
21866W        W38714   5.683   9.358  17.334 -0.1892 -0.0925 -0.1487
21867W        W38715   4.521   0.130   1.008 -0.0379 -0.1770 -0.0465
21868W        W38716   5.841  13.571  14.719 -0.3322 -0.0344 -0.0638
21869W        W38717  15.610   7.421   1.689 -0.0775  0.2353 -0.2403
21870W        W38718   8.603   6.781  17.306 -0.1450 -0.1637  0.1200
21871W        W38719   8.232   5.702  12.469  0.0287 -0.0506  0.2121
21872W        W38720  10.942   2.840  14.694 -0.0687  0.0247 -0.1187
21873W        W38721  15.053   9.494   4.311 -0.1874  0.2352  0.0322
21874W        W38722   9.321   9.735   2.892  0.1714 -0.1847 -0.0051
21875W        W38723   6.013   2.672   0.276 -0.1237 -0.1082  0.0604
21876W        W38724  15.894  14.326  17.573 -0.0663 -0.0780 -0.4452
21877W        W38725   0.017  14.997   0.277  0.2002 -0.3732 -0.3388
21878W        W38726   9.134   7.961   3.404 -0.2876  0.1987  0.1369
21879W        W38727  17.075  14.585  15.399 -0.0569  0.2350 -0.0885
21880W        W38728   4.380   9.027  17.204 -0.1362  0.0448 -0.0512
21881W        W38729   0.440  13.560  12.395 -0.0004  0.0678  0.0665
21882W        W38730  10.084   9.987   3.491 -0.1341 -0.3980  0.0280
21883W        W38731  17.006   9.019   5.499 -0.3941 -0.1156 -0.0508
21884W        W38732   7.120  12.901  16.214 -0.0916 -0.1068  0.1578
21885W        W38733   1.808   6.084  13.223  0.0168 -0.3220 -0.2993
21886W        W38734   9.949  12.869  14.108 -0.0515 -0.0903 -0.0592
21887W        W38735  10.152   3.613  13.744 -0.0274 -0.0177  0.2351
21888W        W38736  10.325  12.232  12.511  0.1490 -0.0758 -0.1245
21889W        W38737  11.314   6.402   2.677  0.2676 -0.0919 -0.3286
21890W        W38738   8.238  13.219  17.228  0.2200 -0.1881  0.2418
21891W        W38739  13.249   1.739  16.693  0.0345  0.1557  0.3195
21892W        W38740  16.749   7.996   0.748  0.1758  0.0443  0.0957
21893W        W38741   9.786  17.071  12.671 -0.0490  0.2057 -0.0505
21894W        W38742   7.585   0.172  11.044  0.0904 -0.3465 -0.0561
21895W        W38743   1.373  13.037  17.543  0.0763 -0.0546  0.0272
21896W        W38744   5.386  12.875   1.839  0.0255  0.2670  0.2916
21897W        W38745  13.945   6.495  14.906  0.0358  0.2863  0.0870
21898W        W38746  13.588   6.680   3.738 -0.0449  0.1206 -0.0332
21899W        W38747   3.875  14.235  16.204  0.1851  0.0604 -0.0485
21900W        W38748  13.114  13.607   5.187  0.1929 -0.0373 -0.2075
21901W        W38749  12.296  14.839  17.045 -0.2409  0.2887  0.0753
21902W        W38750  10.412  14.232   0.875  0.2875 -0.0357  0.1756
21903W        W38751   3.421   2.266   2.877  0.1026 -0.1638  0.0325
21904W        W38752  15.045  15.397   1.514  0.1149 -0.2615  0.1170
21905W        W38753  10.335   5.203  14.392  0.1459  0.0228  0.0235
21906W        W38754  14.374  13.092   2.986  0.0193 -0.0998  0.0232
21907W        W38755   6.411   2.434   2.668  0.1061  0.0196 -0.1617
21908W        W38756   2.006  10.107  13.714  0.1902  0.1965  0.0478
21909W        W38757   3.233   5.718   5.649 -0.0768 -0.0418 -0.0107
21910W        W38758  14.838  11.088  12.192 -0.3307 -0.0122 -0.0132
21911W        W38759   1.123   9.737  11.509 -0.0186  0.6992  0.0395
21912W        W38760  10.229   8.786  16.209 -0.0038 -0.6012  0.3405
21913W        W38761   2.409   7.340   1.583  0.0891  0.3377  0.0482
21914W        W38762  13.715  12.450  14.887  0.1025  0.1385 -0.0197
21915W        W38763   7.588   5.311   0.936  0.0936 -0.3545  0.0178
21916W        W38764   4.004   7.670   3.333 -0.1519 -0.1259  0.0847
21917W        W38765  12.832   7.840   3.496 -0.0951 -0.0894  0.1662
21918W        W38766   0.842  10.736   1.225 -0.0019  0.1584  0.2929
21919W        W38767  13.409  12.212  17.614 -0.2365  0.3058  0.1245
21920W        W38768   2.648  14.044  16.767  0.0261 -0.1598  0.0557
21921W        W38769   2.048   2.922  12.279  0.0495  0.0722  0.0756
21922W        W38770  12.108  16.665   4.514  0.1651  0.0065 -0.4426
21923W        W38771   2.746  11.917   5.625 -0.1631  0.3348  0.1374
21924W        W38772   7.193  15.967  15.330 -0.0590 -0.2627  0.0464
21925W        W38773   7.217   1.532  14.910  0.3421  0.0188 -0.0502
21926W        W38774  10.852  15.493   0.746  0.0750  0.1526 -0.0086
21927W        W38775   7.489   2.826  14.593 -0.1514  0.2646 -0.2667
21928W        W38776   8.481   8.620  16.908 -0.0892 -0.1530  0.0410
21929W        W38777  14.448  15.000   6.780  0.0410  0.1885 -0.3216
21930W        W38778  14.185   1.726  15.472 -0.3271  0.0098  0.0995
21931W        W38779   1.521   7.960   2.822 -0.2140 -0.0979  0.1619
21932W        W38780   7.864  16.290   4.236  0.3351  0.1808  0.0545
21933W        W38781   0.378  12.423  16.027  0.4890  0.1489  0.0366
21934W        W38782   2.966   8.854  15.470  0.0258 -0.1581  0.0087
21935W        W38783   9.066  12.953  13.171 -0.0325 -0.0057  0.3187
21936W        W38784  14.399   0.388  13.616 -0.0618  0.1841 -0.0603
21937W        W38785  12.529   8.579   3.157 -0.0208  0.1477 -0.1293
21938W        W38786  15.556   9.987   2.635  0.1985  0.2063 -0.1685
21939W        W38787   3.919  16.904  16.633 -0.0294  0.3275 -0.0243
21940W        W38788   2.881   5.707   0.971 -0.0263 -0.0421  0.1384
21941W        W38789   7.548   4.533   1.726 -0.2611 -0.3261  0.2432
21942W        W38790   1.251  10.656  17.186 -0.1148  0.1313 -0.3409
21943W        W38791   8.907   4.504  15.324  0.0121 -0.2663 -0.3188
21944W        W38792   8.282   3.495  13.763 -0.1826  0.0697 -0.3940
21945W        W38793  16.978   3.335  13.238 -0.0512 -0.0426  0.0962
21946W        W38794   9.008  16.776  17.279  0.0060  0.0903 -0.0630
21947W        W38795  15.800   9.385  12.219  0.1192  0.1341 -0.1448
21948W        W38796   2.805   3.137  12.740 -0.3000  0.1147 -0.0695
21949W        W38797   8.856  15.501   3.119 -0.1793 -0.3075  0.0778
21950W        W38798  12.645   8.138   3.048  0.1129 -0.3739  0.0484
21951W        W38799   3.278   6.725  16.856  0.1931 -0.2485  0.0360
21952W        W38800  11.616   5.988  12.822  0.1960  0.0994 -0.1720
21953W        W38801   1.175   1.000   6.671  0.1247  0.0567  0.2008
21954W        W38802  13.027  11.923  12.061  0.1143 -0.1848  0.0902
21955W        W38803  13.884  12.330   0.078  0.1464 -0.1806  0.2647
21956W        W38804   3.588  12.688  14.211  0.0177  0.3487  0.2890
21957W        W38805   6.507  13.266  15.672  0.3021 -0.2731  0.1210
21958W        W38806   5.481  11.925  13.717  0.1199  0.1763  0.0381
21959W        W38807  12.760  10.781  16.450  0.1180  0.0773  0.0996
21960W        W38808  12.375  12.635   4.402 -0.1894 -0.1505  0.2313
21961W        W38809  14.201  16.577   1.575 -0.0347 -0.2372  0.1018
21962W        W38810   9.780  12.775   2.614  0.0253 -0.3504  0.1572
21963W        W38811   9.432   2.331  16.269 -0.3946 -0.1037 -0.0928
21964W        W38812   6.168   8.138  15.772  0.0012 -0.1798  0.0527
21965W        W38813  16.806   3.739   1.299 -0.1636 -0.1272  0.0954
21966W        W38814   3.052  11.254  15.851  0.2564  0.1816 -0.0246
21967W        W38815   5.475   3.699   1.860  0.0789 -0.1299  0.2155
21968W        W38816  13.445  13.200  12.854  0.0317  0.1461  0.0341
21969W        W38817   3.490   1.634   5.977 -0.0969 -0.2057  0.0331
21970W        W38818   7.725   9.901   0.373  0.3083 -0.0468  0.1397
21971W        W38819   7.325   7.469   1.387  0.3385  0.0205 -0.3213
21972W        W38820   2.554  15.846   4.342 -0.2559 -0.1244  0.0143
21973W        W38821  14.811   2.949   3.135 -0.1383  0.1506  0.0367
21974W        W38822  10.094  13.888  11.860  0.1478  0.1094 -0.2564
21975W        W38823  15.085   7.667  15.634 -0.2588  0.2854  0.1235
21976W        W38824  15.946   2.841   6.283  0.0108 -0.1243  0.0734
21977W        W38825   2.382   6.479   2.365  0.1948  0.0989 -0.0625
21978W        W38826  16.519   7.561  13.633 -0.0390  0.1000  0.1314
21979W        W38827  16.381   4.736  15.298 -0.3365 -0.2315 -0.1040
21980W        W38828  10.430   6.851   4.292 -0.2200 -0.2069 -0.0404
21981W        W38829   1.038   2.202   1.067 -0.0218  0.2057 -0.3061
21982W        W38830  10.215  12.623   1.564  0.0507 -0.2195 -0.0150
21983W        W38831   5.172   6.266  16.277 -0.2001  0.0136 -0.1187
21984W        W38832   6.002  13.889  17.462  0.0938  0.1063 -0.0505
21985W        W38833   9.399  12.541  15.387  0.3049 -0.1173  0.1924
21986W        W38834  13.976   4.247   5.337  0.0105  0.0394 -0.0867
21987W        W38835  14.574  13.153  16.026  0.1829  0.0341  0.0170
21988W        W38836   0.594   8.915  15.890 -0.2335  0.2062  0.0966
21989W        W38837   4.292   8.671  14.661  0.1179  0.0852 -0.0429
21990W        W38838   6.876   8.382  16.247  0.0648  0.0667 -0.1944
21991W        W38839  10.220   2.823  16.070 -0.2404  0.3106  0.0742
21992W        W38840   5.350   6.798   0.518 -0.1031  0.2470 -0.1831
21993W        W38841   2.731  16.930  13.426  0.2048 -0.1533  0.0354
21994W        W38842  16.259   7.949  13.379 -0.1495 -0.0738  0.0152
21995W        W38843  10.914  13.472  16.835  0.3552  0.1134 -0.0143
21996W        W38844   3.642   0.251   2.619  0.1188 -0.0813 -0.1485
21997W        W38845  10.860  16.128   3.677  0.2923  0.2487 -0.2094
21998W        W38846   6.079   1.525  16.875 -0.4104 -0.2521 -0.1980
21999W        W38847   5.479   6.713   4.711 -0.1502  0.2198 -0.1992
22000W        W38848  11.151  13.532   5.456 -0.0741 -0.0739 -0.0407
22001W        W38849   3.891   1.520  15.524  0.0759  0.0739  0.5295
22002W        W38850   9.178   1.880   2.560  0.0694  0.0755  0.0554
22003W        W38851   3.760   9.772   4.375 -0.0696  0.0106  0.2374
22004W        W38852   3.512  16.171   1.385 -0.2362  0.2124 -0.0126
22005W        W38853   2.689  12.009  17.212 -0.0846  0.4454  0.3083
22006W        W38854   7.353   6.520   3.348  0.0007 -0.3709 -0.3930
22007W        W38855   2.481  15.894   2.405  0.2860 -0.2478 -0.1014
22008W        W38856   7.893   1.587   3.252 -0.2474  0.1681 -0.4089
22009W        W38857  15.637  16.466   5.520 -0.1145  0.0869 -0.0189
22010W        W38858   7.260   9.405   1.160 -0.0964  0.0689 -0.1340
22011W        W38859   0.971   7.307  13.944 -0.1587  0.2546 -0.2037
22012W        W38860  14.272  13.948  12.402  0.2430 -0.0653 -0.1866
22013W        W38861   5.586   1.614   2.516 -0.0569  0.3222 -0.0081
22014W        W38862  15.302  12.207   1.274  0.1089 -0.1941 -0.2181
22015W        W38863  15.567   2.662  15.282 -0.0122  0.2555  0.0755
22016W        W38864  12.926  14.421  13.300  0.0655  0.2712  0.2677
22017W        W38865   3.266   0.259  13.654 -0.0956 -0.0630 -0.3205
22018W        W38866   3.327   4.457   3.914  0.1429  0.0624 -0.1421
22019W        W38867  10.648  13.504   2.832  0.0313  0.0154 -0.0215
22020W        W38868  11.263   1.321   1.389 -0.0799 -0.0413 -0.1709
22021W        W38869  14.553  15.544   2.641 -0.1075 -0.0972  0.2102
22022W        W38870   8.138   6.916   1.364 -0.1394  0.2392 -0.2860
22023W        W38871   2.248  11.590   2.344  0.2093  0.0804 -0.0135
22024W        W38872   1.934  12.549  13.245 -0.0526  0.0027 -0.2935
22025W        W38873   9.063  13.784  15.620  0.2752  0.0890  0.0977
22026W        W38874  12.541   7.426   3.752 -0.0920 -0.1441 -0.0183
22027W        W38875   1.611  15.844  16.553  0.2600  0.2174  0.1014
22028W        W38876   3.700   6.148   2.094  0.0632  0.1099 -0.0191
22029W        W38877   8.917   4.279  16.559  0.0542  0.0193  0.2268
22030W        W38878   9.033  14.032  13.301 -0.0133 -0.1841  0.1322
22031W        W38879   5.574   5.666   1.906 -0.1549  0.0997 -0.1168
22032W        W38880   8.332  16.746   0.187  0.2008  0.4777 -0.1216
22033W        W38881  11.882  10.027  11.896 -0.0380  0.1197  0.1261
22034W        W38882   8.288  13.313   4.958 -0.2609 -0.0198  0.0768
22035W        W38883   8.682  10.581   2.967 -0.2728 -0.1099  0.0295
22036W        W38884   1.047   2.314   1.523 -0.0030 -0.2246 -0.0704
22037W        W38885   8.568   0.792  16.043 -0.0918 -0.1972 -0.0866
22038W        W38886  16.717   5.433   3.048 -0.1116 -0.1796 -0.2864
22039W        W38887   3.606   9.002   3.445  0.2407 -0.0280 -0.0963
22040W        W38888  15.253   4.058   0.868 -0.0616 -0.1353 -0.1996
22041W        W38889   8.165   6.381  13.161 -0.0826 -0.2726 -0.2267
22042W        W38890  14.457  13.703  13.605  0.1249  0.0800  0.1949
22043W        W38891  15.145  16.204  15.573 -0.4333 -0.1321  0.0620
22044W        W38892   2.009   6.008   3.024 -0.0235  0.0692  0.0237
22045W        W38893   2.800   7.724   5.946 -0.0957 -0.3873  0.1808
22046W        W38894  10.776   2.204   3.334 -0.5340  0.3013 -0.0459
22047W        W38895   4.211  11.912   4.104  0.2130  0.0912  0.1249
22048W        W38896  10.027  16.224   3.460 -0.0991  0.3104 -0.0573
22049W        W38897   1.310  12.600   3.175  0.2595 -0.2537 -0.1848
22050W        W38898   8.349   2.819   4.247  0.2427  0.3298 -0.2114
22051W        W38899   4.440   1.832  12.797 -0.1190  0.3936 -0.0873
22052W        W38900  14.443   3.525  15.390  0.2874 -0.0099 -0.0879
22053W        W38901  14.547   2.193  12.216  0.1259  0.1145  0.0092
22054W        W38902   7.804  10.456   0.458  0.0075 -0.1873 -0.1785
22055W        W38903   4.649  11.205  16.864  0.3894  0.1191  0.1600
22056W        W38904  15.468   0.563  14.709 -0.3440 -0.2705 -0.0487
22057W        W38905  10.640   6.369   3.182 -0.0746 -0.0244 -0.2402
22058W        W38906  12.999   8.779   3.884  0.0411 -0.0281 -0.2581
22059W        W38907   1.049  15.262   0.522 -0.3227 -0.0181  0.0143
22060W        W38908   5.946  15.210  16.478  0.0543 -0.1156  0.1667
22061W        W38909   5.536  13.011   0.748 -0.0509 -0.1638 -0.2507
22062W        W38910   9.238   2.645  16.741 -0.3748 -0.1266 -0.1355
22063W        W38911  14.247   8.069   0.473 -0.1280  0.0000  0.0333
22064W        W38912  16.041  10.077  14.255 -0.1690 -0.1642 -0.0504
22065W        W38913   7.163  14.085   3.866 -0.0055 -0.1025 -0.0747
22066W        W38914  15.885  11.764   2.448  0.0588  0.1945  0.1029
22067W        W38915  12.461   1.601  16.422 -0.1333 -0.0071 -0.2000
22068W        W38916   0.583  14.437   3.186  0.0471 -0.0491 -0.1299
22069W        W38917  15.274  10.352  16.641 -0.1244  0.0273  0.0490
22070W        W38918   5.271  16.968   1.356 -0.0123 -0.0496  0.1134
22071W        W38919   1.402  13.438   3.617  0.2978 -0.0270  0.2979
22072W        W38920  14.122   8.413  13.491 -0.1452 -0.0687  0.0268
22073W        W38921   1.402   1.542   0.015  0.1048  0.0821 -0.2394
22074W        W38922   7.401   1.420  12.626  0.2043 -0.0101 -0.1143
22075W        W38923  12.948   3.441   2.739  0.4466 -0.2071  0.1603
22076W        W38924   0.811  11.309  14.722  0.1094 -0.0923 -0.1327
22077W        W38925  14.822  13.495   5.828  0.1479 -0.1293 -0.0969
22078W        W38926   1.231   0.242   0.609  0.2920  0.0462  0.4291
22079W        W38927   4.092  15.475   0.415  0.0449 -0.2636  0.1386
22080W        W38928   8.292   0.774  17.353 -0.0337 -0.1129  0.1916
22081W        W38929   4.548   7.128  17.041  0.1962 -0.0218  0.0474
22082W        W38930  10.483   9.850  13.399  0.1671 -0.1783 -0.1648
22083W        W38931   1.943  15.587   2.112 -0.1073 -0.0471  0.0634
22084W        W38932   9.892  15.439  12.268  0.3732  0.0495 -0.3227
22085W        W38933  15.348  17.086   4.461  0.0644  0.1846  0.1042
22086W        W38934   7.989   5.088   4.149 -0.3059  0.0367  0.0034
22087W        W38935   7.490  10.086   5.675  0.0966  0.1493  0.0748
22088W        W38936  15.534  14.413  13.096  0.4057  0.1364 -0.1737
22089W        W38937   8.785   4.748  15.930 -0.1635  0.0228  0.0574
22090W        W38938   5.830   4.198   4.837 -0.0704  0.0580  0.1617
22091W        W38939  12.953   2.962   2.642  0.1495  0.2902 -0.0450
22092W        W38940   7.723   1.928  12.572 -0.3000  0.0669  0.1437
22093W        W38941   9.954   6.198  16.724 -0.2506  0.0495  0.1418
22094W        W38942  15.086   4.484   4.595 -0.2918 -0.2171  0.1008
22095W        W38943  12.567  14.907   3.244 -0.1751 -0.2284  0.2248
22096W        W38944   6.516  12.904  12.014 -0.0730  0.1516  0.0440
22097W        W38945  12.658   3.543   1.734 -0.1436  0.0264 -0.0713
22098W        W38946   9.888   9.419   0.926 -0.0627 -0.0682 -0.0666
22099W        W38947   5.850   9.425   0.934 -0.0227  0.3097  0.1017
22100W        W38948  17.055   5.200  12.861 -0.1026 -0.0546  0.0897
22101W        W38949   2.993   8.212   0.075  0.1460  0.0497 -0.2982
22102W        W38950  12.101  13.380   0.802  0.1141 -0.0196  0.1911
22103W        W38951   1.476   8.035  13.345  0.0351  0.4480 -0.4856
22104W        W38952   5.492  12.462  17.084  0.3263 -0.4061  0.2808
22105W        W38953  11.034  11.774  14.291  0.1713  0.0315 -0.1174
22106W        W38954   8.304   3.047   0.184  0.0936 -0.2627  0.0378
22107W        W38955   6.268   3.250   3.079  0.1362  0.1502 -0.0228
22108W        W38956   7.123  15.475  12.515  0.2090 -0.1850  0.1172
22109W        W38957  10.232   8.914  13.610  0.1051 -0.0866 -0.0047
22110W        W38958   2.506   1.132  12.825  0.0939  0.0114  0.3747
22111W        W38959   3.255  11.728   4.765  0.1239  0.1714 -0.0975
22112W        W38960  13.148   3.432   1.537 -0.0459 -0.0883 -0.1963
22113W        W38961  11.707   8.021  14.662 -0.0524  0.2565 -0.1177
22114W        W38962  10.309   5.782  11.711  0.0860 -0.1775  0.0209
22115W        W38963   0.336   6.030  13.596 -0.0026 -0.0848 -0.0542
22116W        W38964  17.155   6.212   0.654  0.3931  0.1713  0.0968
22117W        W38965   8.740   2.785  12.850 -0.0334  0.1744  0.0007
22118W        W38966  13.786   4.189  13.396  0.0506  0.0402 -0.1398
22119W        W38967   5.327   2.558  13.854 -0.2136  0.0627 -0.1531
22120W        W38968  15.525   7.908  15.452 -0.2004 -0.0820  0.0669
22121W        W38969   3.290   8.703   3.729 -0.1170 -0.2068 -0.2113
22122W        W38970   9.536   7.066  16.345 -0.2681 -0.0919 -0.1866
22123W        W38971   2.108   1.418  17.730 -0.0577 -0.2939  0.1236
22124W        W38972   5.373   6.180   1.802  0.0532  0.1862 -0.3775
22125W        W38973  13.960   3.383   1.229 -0.1330 -0.1293  0.3427
22126W        W38974  15.524   5.468   5.330  0.0077 -0.1781 -0.3796
22127W        W38975   3.256   2.074  16.010 -0.0088  0.1084  0.1261
22128W        W38976  10.094  13.529   1.930 -0.2780  0.1273  0.1583
22129W        W38977  13.763   1.884   2.330  0.1159 -0.1450 -0.0846
22130W        W38978   0.911  12.398   3.883 -0.2531  0.1572  0.2676
22131W        W38979  14.540  14.715  17.370  0.0922  0.3102  0.1014
22132W        W38980  15.480   5.251  17.524  0.0743  0.1293 -0.0696
22133W        W38981   4.464   9.748   5.786  0.1845  0.1082  0.1247
22134W        W38982   9.032   5.677  13.140  0.0410 -0.0936 -0.1640
22135W        W38983  13.625   1.335  12.158 -0.1615  0.0073  0.2045
22136W        W38984   4.280   1.071   1.089 -0.0284  0.1962 -0.0431
22137W        W38985  12.870  15.026   0.316 -0.0794 -0.2117  0.1561
22138W        W38986  10.880  11.577   2.069  0.0253  0.1307 -0.1207
22139W        W38987  12.544   7.034   3.376 -0.0381 -0.2576 -0.0038
22140W        W38988  14.058  16.099   0.267  0.0520  0.1574 -0.2175
22141W        W38989  15.668   4.931   3.082  0.2031  0.0194 -0.0917
22142W        W38990   0.197   5.751   2.658 -0.0057  0.2728  0.2202
22143W        W38991   3.745  10.020   0.988 -0.2519 -0.2325  0.0131
22144W        W38992  13.729   3.384  16.729 -0.2130 -0.2810  0.0932
22145W        W38993   2.730   3.953  12.579  0.0216  0.1275  0.0569
22146W        W38994   8.260   4.733  15.938  0.0423 -0.0903 -0.0006
22147W        W38995   3.705  14.815  16.279  0.3574 -0.1169 -0.1213
22148W        W38996   8.875   1.507  12.843  0.1174  0.2111  0.0151
22149W        W38997  12.518   3.839  15.154  0.0789 -0.1203  0.1626
22150W        W38998  16.638   3.177  11.585  0.0076  0.3044  0.1521
22151W        W38999   2.430   7.160   0.222  0.0443 -0.1792  0.0333
22152W        W39000  11.540   7.626  16.974  0.2625 -0.2811  0.0624
22153W        W39001  14.919  13.691   0.637  0.1437  0.2452 -0.1465
22154W        W39002   7.971  12.773  17.337 -0.1366  0.1424  0.0005
22155W        W39003  16.020   9.273   2.687 -0.0205  0.1664  0.0644
22156W        W39004   8.888   8.910   2.870  0.2432  0.0206 -0.0259
22157W        W39005  11.090   4.887  11.722  0.3284 -0.0182  0.0192
22158W        W39006  10.956   9.713   4.614  0.1504  0.3359  0.0457
22159W        W39007   8.048   9.376   4.631  0.1565 -0.3208  0.1975
22160W        W39008   7.296  16.001   0.691 -0.0986  0.0581  0.3609
22161W        W39009   3.112  13.112  17.611  0.3865 -0.0141 -0.1666
22162W        W39010  10.480   0.099  14.879  0.1135  0.1559  0.2820
22163W        W39011   8.788   0.355   4.712 -0.0456 -0.1317  0.0380
22164W        W39012  10.145   3.597   0.528 -0.1180 -0.2577 -0.1087
22165W        W39013  16.682   2.412   6.697 -0.2787 -0.0210  0.0099
22166W        W39014   6.870   9.730   2.043 -0.0017 -0.0249  0.0803
22167W        W39015  12.794  15.773   3.311  0.1097 -0.0832 -0.3959
22168W        W39016   2.391  13.896  13.715 -0.1365  0.0032 -0.1550
22169W        W39017  15.203   1.901   4.998  0.2782  0.1021  0.0198
22170W        W39018  15.555   5.307   1.164  0.0817 -0.3607  0.0418
22171W        W39019   6.130   9.475   3.427  0.0444  0.0689 -0.4292
22172W        W39020  12.528  10.070  12.647  0.0120 -0.0868 -0.1205
22173W        W39021   3.306  11.357   4.172  0.4195 -0.1533 -0.0293
22174W        W39022  10.610  15.810  11.701 -0.3175  0.3825 -0.0517
22175W        W39023  15.748   2.560  14.376  0.3133  0.2185  0.1056
22176W        W39024   6.837  13.707  13.721 -0.2443  0.0865 -0.0188
22177W        W39025   1.538  15.093  17.008 -0.0148 -0.4519  0.0378
22178W        W39026   9.907   6.616  12.297  0.1708  0.0953 -0.1025
22179W        W39027  16.162   7.102  16.352 -0.3743 -0.0944  0.2277
22180W        W39028   6.612   9.876  13.604 -0.0695 -0.1116  0.1226
22181W        W39029  11.554   0.562  16.560  0.4923  0.0652 -0.0803
22182W        W39030  11.196  13.820   1.899  0.4368 -0.1608  0.0237
22183W        W39031  11.818  16.935   0.795  0.2178  0.1075  0.0523
22184W        W39032   2.493  11.587   1.897 -0.2062  0.0868 -0.0864
22185W        W39033  13.653  15.640   2.822 -0.1119 -0.0096 -0.2927
22186W        W39034  11.719   8.480   2.838 -0.0762 -0.0708  0.0292
22187W        W39035   9.361  11.087  11.926  0.1262 -0.0695  0.3368
22188W        W39036  10.317   0.978  12.976  0.0351  0.1953  0.2225
22189W        W39037   9.272   5.732  16.465  0.0262  0.0470  0.1230
22190W        W39038   8.408   8.552  13.598  0.2635  0.0085  0.3391
22191W        W39039  12.808  16.310  15.886 -0.1559  0.1125 -0.1157
22192W        W39040   7.981  10.089   2.477 -0.2062 -0.2743 -0.0080
22193W        W39041  13.396  16.541   4.792  0.1856  0.0015  0.0162
22194W        W39042   3.510  10.010   6.020  0.1711  0.1798  0.2202
22195W        W39043  15.225   8.816   1.545  0.2656  0.0244  0.0991
22196W        W39044   8.636   2.459   1.582  0.0446 -0.1897 -0.2109
22197W        W39045  11.887   4.179  15.898 -0.3977  0.1794  0.1238
22198W        W39046   8.246   0.101  15.380 -0.0547  0.0723  0.1229
22199W        W39047   9.155   8.146  15.642 -0.2532  0.0095 -0.0208
22200W        W39048  16.247  11.086   3.175 -0.0369  0.0978 -0.2459
22201W        W39049  13.165  12.185  16.153 -0.0250  0.2333  0.1418
22202W        W39050  15.631  14.828   3.167  0.1805  0.1943  0.1712
22203W        W39051  10.452   4.713   1.743 -0.1027 -0.0097 -0.0323
22204W        W39052  11.173   6.226   5.465 -0.2014  0.0584  0.2445
22205W        W39053  10.288   4.615   2.747  0.0238  0.0691  0.1556
22206W        W39054  14.111   4.086  14.098  0.1760 -0.1682  0.1734
22207W        W39055   0.950  14.396   2.192  0.5317  0.0358  0.3310
22208W        W39056  12.769   0.469  17.493  0.0786  0.1188 -0.1563
22209W        W39057  14.975  11.496   3.529 -0.2833  0.0941  0.1392
22210W        W39058  14.965   1.054  14.626 -0.1811  0.0727 -0.0442
22211W        W39059   0.876   6.354   0.099 -0.2071  0.1110 -0.0111
22212W        W39060   0.300   7.976  14.241 -0.0037 -0.0133 -0.0681
22213W        W39061  10.579   8.900  14.535  0.2798  0.0361  0.1603
22214W        W39062  15.313  10.646   0.727 -0.0630  0.1631  0.0371
22215W        W39063  16.009  14.824   5.995 -0.0338  0.1956  0.3240
22216W        W39064   1.793  14.560   2.719  0.0689 -0.3685 -0.3521
22217W        W39065   8.815   4.773   5.609  0.1553 -0.3142  0.3082
22218W        W39066  11.672   2.543  13.768 -0.0581 -0.0075 -0.0726
22219W        W39067   7.373  12.003   5.687  0.0639 -0.0041  0.1415
22220W        W39068   5.745   0.926  13.514 -0.0830  0.3742 -0.0717
22221W        W39069   1.600  13.686  16.732  0.1107  0.0527  0.0417
22222W        W39070  16.755   2.132  17.678 -0.1102 -0.0098 -0.0496
22223W        W39071   1.448  11.909  13.170  0.2049 -0.0555  0.1417
22224W        W39072   0.853   9.186  14.120 -0.0256  0.1535  0.0869
22225W        W39073  13.734   1.970  13.181  0.1271 -0.1370 -0.0458
22226W        W39074  12.958  16.435   2.529  0.0269  0.2280  0.1309
22227W        W39075  15.586  16.749  16.906 -0.0864  0.0733 -0.1036
22228W        W39076   6.737   4.862   3.128 -0.2085  0.0345 -0.1879
22229W        W39077   2.329   0.696   2.296  0.0770  0.2227 -0.2788
22230W        W39078  16.419   9.748  14.082 -0.0604  0.0733  0.0194
22231W        W39079   1.654   9.642   1.512 -0.0665  0.0246 -0.0865
22232W        W39080   6.280  16.245  15.831  0.1327 -0.0433 -0.0206
22233W        W39081  14.917  12.953  13.238  0.2210 -0.0044 -0.0115
22234W        W39082   3.254  15.797  17.178  0.1320  0.0437  0.0894
22235W        W39083   7.178  10.678   3.690  0.0371 -0.0225  0.0672
22236W        W39084  10.207  10.727  14.555  0.2290  0.0116 -0.0183
22237W        W39085   7.249   2.758  16.215  0.0573 -0.1555  0.0932
22238W        W39086  16.444   2.856  13.170  0.2423  0.2423 -0.2479
22239W        W39087   8.164   2.751   3.360  0.0314 -0.0795  0.1803
22240W        W39088  10.492   1.349   3.753  0.1719 -0.0575  0.3900
22241W        W39089  15.932   7.144  17.630  0.1501 -0.1934 -0.1987
22242W        W39090  10.762   6.612  13.767  0.1465 -0.0801  0.0838
22243W        W39091  10.939   1.418  17.121  0.0167 -0.0638  0.1553
22244W        W39092  12.499  13.944   4.400  0.1717  0.0374 -0.2893
22245W        W39093  11.893   8.912   0.658  0.1285 -0.3748 -0.1408
22246W        W39094  17.053   2.757  16.687  0.0892 -0.3283  0.1199
22247W        W39095  10.248  17.109   1.010 -0.2285 -0.2860  0.3681
22248W        W39096   5.766   5.471  14.256 -0.2070  0.1246  0.1372
22249W        W39097   7.634   3.855   3.485 -0.2300  0.3815  0.1360
22250W        W39098   0.644   9.477  12.772 -0.0907  0.2431  0.1781
22251W        W39099   9.365   3.121  13.336 -0.0110  0.3041  0.1552
22252W        W39100   0.553   2.679   4.026  0.1606 -0.1068  0.1077
22253W        W39101   8.690  13.482   4.407 -0.0132 -0.1767  0.2538
22254W        W39102  16.519   4.036  13.532 -0.0882 -0.2869  0.6087
22255W        W39103   1.686  10.654  14.137 -0.1044 -0.0320 -0.2171
22256W        W39104   0.775   7.504  16.525 -0.1766  0.0176  0.1349
22257W        W39105   7.556   7.834   0.177  0.0276 -0.2370  0.1563
22258W        W39106   7.638  11.464   2.747 -0.1906  0.0310 -0.0544
22259W        W39107  15.036   8.008  13.336 -0.0806 -0.0687  0.1544
22260W        W39108  11.699   7.470   3.660 -0.0194 -0.0551 -0.0137
22261W        W39109   5.919   3.353  14.294  0.0310  0.2418 -0.0751
22262W        W39110  14.166  15.386  15.044  0.1270 -0.1185  0.1163
22263W        W39111  10.999  16.144  15.331  0.4049 -0.1740  0.3071
22264W        W39112   4.203  12.048   1.122  0.3567  0.1514  0.0370
22265W        W39113   6.730   3.284   3.294  0.1318  0.2826 -0.0370
22266W        W39114   3.211  14.806  16.040  0.1338 -0.3069 -0.1271
22267W        W39115   5.234  16.320   2.012 -0.0295 -0.2852 -0.1559
22268W        W39116   2.010   6.641   2.044  0.2438 -0.1442  0.0372
22269W        W39117  10.266  13.716  12.417  0.0306  0.2909  0.0932
22270W        W39118   9.208   4.410   1.961  0.2815  0.0348 -0.0024
22271W        W39119  17.101   2.083  17.244 -0.0257  0.2764 -0.1453
22272W        W39120   4.764   1.078  17.631  0.0291 -0.3587 -0.0170
22273W        W39121  10.828   5.598  15.911 -0.2497  0.1699 -0.0123
22274W        W39122  16.218  16.272   5.890  0.2863 -0.3130 -0.0281
22275W        W39123   9.963   6.037   2.230  0.1839  0.0003  0.0734
22276W        W39124  12.758   6.122  13.801  0.3655  0.2322  0.1995
22277W        W39125  15.734   1.298   5.188 -0.0564 -0.1281  0.2599
22278W        W39126   3.712   7.728   3.780  0.0944 -0.1426  0.1466
22279W        W39127   8.930  17.054   0.359  0.1035 -0.3933  0.0578
22280W        W39128   0.072   9.430  16.221  0.0757 -0.0328 -0.1294
22281W        W39129   3.669  12.790   1.592  0.2080 -0.0186  0.1331
22282W        W39130  14.288   5.149  15.136  0.3307 -0.1686  0.2120
22283W        W39131   2.188  10.867  15.344 -0.1338  0.3290 -0.1668
22284W        W39132  10.997   8.364   0.438 -0.0862 -0.1640  0.0891
22285W        W39133   1.510   0.578  13.054  0.0098 -0.0365  0.1336
22286W        W39134  14.143   1.376  13.429 -0.4633  0.2223  0.1321
22287W        W39135  12.995   6.197   0.725 -0.3281 -0.2445 -0.1140
22288W        W39136   9.073   8.201   0.683 -0.0000 -0.0769  0.1799
22289W        W39137   6.125   8.968   1.066 -0.0035 -0.1307  0.2877
22290W        W39138  16.916   2.241   4.175  0.0631 -0.0964 -0.2339
22291W        W39139  15.052   0.081   4.865 -0.3367  0.2059 -0.0170
22292W        W39140   1.454   5.346   4.656  0.0338 -0.0157  0.1091
22293W        W39141   6.480  12.945   4.043  0.5591 -0.3316 -0.0318
22294W        W39142  16.615   6.168  13.714 -0.1938 -0.1124  0.1717
22295W        W39143   6.561   9.265   3.082  0.0288 -0.0491 -0.0208
22296W        W39144   0.490   8.768   4.811 -0.0236 -0.0048  0.2506
22297W        W39145  13.536  13.135  17.459  0.0306  0.0679 -0.0509
22298W        W39146  13.049  15.322  11.703 -0.2455 -0.0983  0.0053
22299W        W39147  13.266   3.658  12.388  0.0529  0.1634 -0.0946
22300W        W39148   9.486  10.679   4.835  0.0570  0.2630  0.1557
22301W        W39149   6.964   3.236   1.040  0.2407  0.1227 -0.3364
22302W        W39150   8.766   6.567   4.496 -0.4291 -0.0030  0.1063
22303W        W39151   5.168   5.339  14.654  0.2130 -0.4116  0.1039
22304W        W39152  17.154   4.010  14.841 -0.3789  0.1893 -0.0209
22305W        W39153  13.402   2.141   3.846  0.1314  0.1080  0.0718
22306W        W39154  17.047  12.154   0.228 -0.2470  0.0287  0.0118
22307W        W39155   9.283  14.620   3.137  0.1348  0.5126  0.1378
22308W        W39156  12.968  14.868   2.174  0.2476  0.3826 -0.1363
22309W        W39157  14.147   2.311  13.184  0.2496  0.0043 -0.2139
22310W        W39158  11.682   7.144  15.627 -0.0792  0.0688 -0.0360
22311W        W39159  12.150  17.140  10.814 -0.0996 -0.2948 -0.3259
22312W        W39160  16.383   7.469   5.545 -0.1360 -0.0981  0.0942
22313W        W39161   7.135   3.659   1.493 -0.0025 -0.1227  0.1109
22314W        W39162  12.372  14.449  17.415  0.2179  0.1299 -0.4080
22315W        W39163  11.850  11.222   0.437  0.1216 -0.2979 -0.0779
22316W        W39164   5.058   3.454   1.638  0.0767  0.0794 -0.1999
22317W        W39165   6.325  13.613   0.209 -0.1073 -0.1868  0.0974
22318W        W39166  16.633  10.978   0.006  0.2103  0.1243 -0.1067
22319W        W39167   5.056   0.126   6.952  0.0271 -0.0495 -0.1721
22320W        W39168  16.714  15.766   6.979 -0.2107  0.0464  0.1223
22321W        W39169  12.109   7.433  12.645 -0.1311 -0.2642  0.2512
22322W        W39170   8.677   7.512  16.696  0.3194  0.0613 -0.2443
22323W        W39171   1.282   8.854   2.848 -0.3173 -0.0215  0.0092
22324W        W39172   3.275   1.614   0.047 -0.0526 -0.0916 -0.0909
22325W        W39173  14.218   6.464  17.371  0.0307 -0.1824  0.3244
22326W        W39174   1.663  13.693   0.319 -0.1674 -0.0400 -0.0602
22327W        W39175  12.710  11.432   2.236 -0.0405  0.2188  0.0762
22328W        W39176   2.874   3.650   5.449  0.1678 -0.1268 -0.2574
22329W        W39177   2.978   4.593   4.778 -0.1537  0.0823 -0.0737
22330W        W39178   2.848   1.379  12.472 -0.0207  0.1102 -0.0783
22331W        W39179   7.485   4.261   4.216 -0.0124  0.0054  0.0572
22332W        W39180  12.316  10.090   3.241  0.1570  0.1494 -0.3935
22333W        W39181  14.957  11.386  16.663  0.1554  0.0319  0.3377
22334W        W39182   7.548  16.011  13.719  0.2259  0.2163 -0.0281
22335W        W39183  12.253  16.134  14.968  0.0564 -0.1794 -0.2001
22336W        W39184  11.526   4.817   3.269  0.0100  0.2080 -0.1558
22337W        W39185   4.628  13.509  11.874 -0.0471 -0.2034  0.0466
22338W        W39186   5.204   4.031  15.744 -0.0676 -0.2695 -0.1176
22339W        W39187   3.992   5.277  15.446  0.0570 -0.0606  0.0962
22340W        W39188   8.786   6.160   4.862  0.2352 -0.3104 -0.0161
22341W        W39189  15.147   6.816   2.919  0.0402  0.1949  0.1440
22342W        W39190   9.735  16.373  14.096  0.3866  0.2480  0.0632
22343W        W39191   9.526   0.806  13.814 -0.0328  0.2670 -0.1412
22344W        W39192   3.811   3.813   3.688  0.0808 -0.0083 -0.0045
22345W        W39193   7.578  16.941   2.082  0.0492 -0.1578 -0.1796
22346W        W39194  15.146  11.544   0.629  0.0774 -0.1998 -0.1034
22347W        W39195  15.961   9.986   1.855 -0.0200 -0.3384 -0.3669
22348W        W39196   3.477   6.629  16.009  0.0295  0.2652 -0.2327
22349W        W39197  12.249   8.779   2.382  0.0140  0.2518 -0.0754
22350W        W39198  12.782  11.008   1.764 -0.0069 -0.2956  0.0416
22351W        W39199  15.985   6.075  12.873  0.3125 -0.1326  0.0373
22352W        W39200   6.413   5.007  16.570  0.0951  0.0595 -0.3208
22353W        W39201   3.836  15.522   1.384 -0.1453  0.1186 -0.1323
22354W        W39202  12.114  11.937  12.279  0.0021  0.0274 -0.0530
22355W        W39203   6.660  16.222  12.431  0.0058 -0.0630  0.2618
22356W        W39204   6.324  16.324   1.975 -0.0443 -0.1256 -0.1024
22357W        W39205   9.021   3.415  16.358 -0.1883 -0.0098 -0.1658
22358W        W39206  10.304  16.581  17.570 -0.1126 -0.2825 -0.0261
22359W        W39207  13.095   2.240   0.727 -0.2559  0.2411  0.0854
22360W        W39208   8.003  11.204  15.588  0.2142 -0.2512  0.0014
22361W        W39209  10.646   5.838   3.123  0.2244  0.3628  0.0290
22362W        W39210   1.029  15.667  14.906 -0.0159 -0.2796  0.0494
22363W        W39211   0.605  14.885  13.589  0.3248  0.0395  0.1614
22364W        W39212   7.499   6.516   5.122  0.0351 -0.1781  0.1129
22365W        W39213  15.590  14.700   1.549  0.1607 -0.1960  0.0430
22366W        W39214   5.998   1.826   4.917  0.0429 -0.1373  0.0627
22367W        W39215   1.858   2.219   4.186  0.2380 -0.1069  0.0730
22368W        W39216   1.320   1.220  15.656 -0.2120  0.0140 -0.0472
22369W        W39217   0.699   4.709  11.769 -0.0008 -0.0772  0.0583
22370W        W39218   2.310   9.087   2.672 -0.1704  0.1728  0.0401
22371W        W39219   4.955   2.357  14.241 -0.1757  0.0476 -0.1141
22372W        W39220   7.517   0.575  13.253  0.2565 -0.0876  0.0012
22373W        W39221  12.045  10.417  16.499  0.0112  0.4738 -0.4004
22374W        W39222   4.603   8.273   4.082  0.1963 -0.0043 -0.3246
22375W        W39223   8.932   3.323   4.362 -0.1569 -0.3265  0.0920
22376W        W39224  15.511   1.538   3.482  0.5413  0.2781 -0.0863
22377W        W39225   7.958   5.182  16.079  0.0616 -0.1222 -0.1705
22378W        W39226  13.668   8.241   4.108  0.4306 -0.2633  0.0290
22379W        W39227  12.810   5.175   0.894 -0.0258  0.1033  0.1682
22380W        W39228  10.544  16.098  16.159  0.0523 -0.1351 -0.3611
22381W        W39229   2.063  11.207  12.155 -0.3602  0.2371  0.1502
22382W        W39230   3.894  16.643   3.073 -0.2562  0.1396  0.0911
22383W        W39231   1.696   8.432   3.681  0.0352 -0.1639  0.2027
22384W        W39232   4.239  11.644  13.776 -0.0512 -0.0730 -0.0170
22385W        W39233  11.907   2.090   3.195 -0.1328 -0.2014 -0.1322
22386W        W39234  15.960   2.491   0.577  0.1870 -0.3158  0.1497
22387W        W39235  11.134  15.967   1.483  0.1211 -0.1423 -0.2077
22388W        W39236  13.304  14.377   2.994 -0.1281  0.0496  0.2801
22389W        W39237  17.076   6.524   3.043 -0.3016 -0.0341  0.1820
22390W        W39238   2.793   5.757  13.103 -0.3191  0.4405  0.0724
22391W        W39239   4.630  12.803  13.011 -0.1674 -0.1372 -0.0642
22392W        W39240   4.125  14.256   4.301  0.0894  0.0332  0.0387
22393W        W39241   7.885  13.053  15.622  0.1949  0.0803  0.1646
22394W        W39242   3.978   4.814   0.360 -0.1190 -0.0686  0.0178
22395W        W39243  10.852   4.395  11.674  0.3445  0.0919 -0.0736
22396W        W39244  13.928   6.360   1.548 -0.1447  0.1797  0.0826
22397W        W39245   4.221  14.175  14.277 -0.1292  0.0300  0.0681
22398W        W39246  11.733   4.014  12.856  0.1098 -0.0032  0.0460
22399W        W39247   3.262   3.687   3.019 -0.2433 -0.1412 -0.0625
22400W        W39248   6.445  14.238  12.733  0.0528 -0.0086 -0.3014
22401W        W39249   9.780  13.134   3.284  0.2633  0.1766 -0.0377
22402W        W39250   5.941   2.873  14.420  0.1108  0.1979  0.0262
22403W        W39251  10.603   1.006   0.523 -0.5897 -0.1629  0.1435
22404W        W39252   2.675  12.540  15.606  0.1519 -0.1140 -0.1297
22405W        W39253  15.279   6.410   0.821 -0.0214  0.0476  0.2537
22406W        W39254   2.386   1.557   4.832 -0.3524 -0.0853 -0.3910
22407W        W39255  14.317  14.989   1.013  0.0073  0.1412  0.0513
22408W        W39256   4.269  16.970   3.079 -0.0586 -0.0757 -0.1895
22409W        W39257   0.034  11.438  16.668  0.1041  0.0088  0.0897
22410W        W39258   9.259   4.180  14.283  0.2132 -0.2867 -0.2123
22411W        W39259   1.259   9.086   6.884 -0.1703  0.1361  0.0399
22412W        W39260  10.222   2.984   0.943  0.1205 -0.0168 -0.0782
22413W        W39261   3.344   7.671  16.660  0.1789 -0.3364  0.4652
22414W        W39262  12.456  15.899  13.627  0.0167 -0.0467  0.2001
22415W        W39263   0.996   6.780  15.097  0.0637  0.0801 -0.0559
22416W        W39264   8.335  12.825  15.668  0.0255  0.0652  0.0505
22417W        W39265   7.856  11.146  16.830 -0.0450  0.0347  0.0843
22418W        W39266  12.234   5.892  17.663 -0.2578 -0.0108 -0.0914
22419W        W39267  14.397  10.066   4.027 -0.0035 -0.1678  0.0429
22420W        W39268  12.834  16.640   3.942  0.0624 -0.0094 -0.4112
22421W        W39269   0.729  15.558   5.080  0.2143 -0.3943 -0.2369
22422W        W39270   5.956  13.068  13.223  0.0239 -0.1133 -0.0458
22423W        W39271   2.747   0.797   3.805 -0.2066 -0.2222 -0.0388
22424W        W39272   7.736   5.830   2.264  0.4084 -0.0057  0.0909
22425W        W39273   4.604  10.203  17.736  0.3276 -0.0577  0.0749
22426W        W39274   1.694  12.400   5.338  0.2888 -0.2103 -0.0471
22427W        W39275  11.188   0.124  13.297 -0.0272  0.2109  0.2009
22428W        W39276   3.861   5.187  17.618  0.2076 -0.2785 -0.0398
22429W        W39277  15.818   2.955   4.432  0.2011  0.1605 -0.5299
22430W        W39278   9.526  17.133  17.518  0.1573 -0.0979  0.0966
22431W        W39279  13.004   5.590   2.406  0.2701 -0.5290 -0.1561
22432W        W39280  14.274  11.776   0.747  0.2095  0.1321  0.0478
22433W        W39281  11.020   5.209   0.627  0.1205 -0.3859 -0.3399
22434W        W39282  16.075  16.458  14.290 -0.1161 -0.0941  0.1329
22435W        W39283  10.687   2.238   4.800  0.1071  0.0775  0.0823
22436W        W39284  16.810  16.040  14.144 -0.2298  0.2885 -0.0481
22437W        W39285  10.440  15.851  16.766 -0.0967 -0.0705 -0.2008
22438W        W39286   2.428   7.255  12.742 -0.3427  0.0517  0.0950
22439W        W39287   7.029  16.512  16.484  0.0872  0.2367  0.0483
22440W        W39288   2.648  10.749   4.464  0.3602  0.1003 -0.0774
22441W        W39289   2.271   6.838  12.511  0.0280  0.1541 -0.3108
22442W        W39290   6.106   6.461  15.414 -0.0914 -0.2358 -0.2578
22443W        W39291   3.776   4.160   4.013 -0.1032 -0.1851  0.0745
22444W        W39292  14.751  17.137  16.587  0.1930 -0.2810 -0.0660
22445W        W39293  14.415  14.481   4.454 -0.0744  0.1999  0.0115
22446W        W39294   5.392   7.291   3.712 -0.1417 -0.0661 -0.1233
22447W        W39295   4.858   6.306   1.694 -0.1046 -0.1048 -0.2511
22448W        W39296   9.547   9.799   1.738  0.1293 -0.1145  0.0944
22449W        W39297   9.033   8.012   3.860  0.0278 -0.0009  0.1395
22450W        W39298   8.714  11.140   4.768 -0.0716  0.2116 -0.4575
22451W        W39299  10.554  14.141   5.433  0.1730 -0.1715 -0.2785
22452W        W39300   5.905   5.644  16.051 -0.2201  0.0144  0.0153
22453W        W39301  16.228  12.423  14.359 -0.3916  0.0855  0.1971
22454W        W39302  15.824   9.457   1.291 -0.1864  0.2498  0.0322
22455W        W39303   2.135  12.653  14.978 -0.0683 -0.0904 -0.2344
22456W        W39304   8.497   5.645   0.623  0.0877  0.1271  0.2861
22457W        W39305   0.967   2.724   0.764  0.0798  0.0306 -0.1688
22458W        W39306  15.837   5.445  16.909  0.4301  0.0153 -0.0242
22459W        W39307   2.479  15.667  12.601 -0.0151  0.0459 -0.0661
22460W        W39308  12.581   6.711   3.018 -0.0256 -0.0098  0.1570
22461W        W39309  16.207   8.834  13.441 -0.0996  0.0593  0.1591
22462W        W39310   4.718  15.287   1.471 -0.0557 -0.1824 -0.1465
22463W        W39311  10.681   6.686  14.704  0.0047 -0.3943 -0.1037
22464W        W39312  10.161   1.283  16.641 -0.2368  0.0164  0.3670
22465W        W39313   8.479   9.305   2.932 -0.1538  0.1634  0.1084
22466W        W39314   0.417   5.250   3.225 -0.0185 -0.1106  0.1745
22467W        W39315   4.230  11.967  16.471 -0.1866 -0.1116  0.0779
22468W        W39316   6.064   1.896   2.613 -0.1321  0.0296 -0.0748
22469W        W39317   1.582   5.164   1.593 -0.0209 -0.1979  0.0526
22470W        W39318   5.263  10.177   6.144  0.0645 -0.0623  0.1237
22471W        W39319   7.676   4.568  17.457 -0.0027  0.2848  0.0983
22472W        W39320  14.540   8.944  10.907 -0.1258 -0.5101 -0.1832
22473W        W39321   0.543  12.390   1.513 -0.1609  0.0397 -0.1130
22474W        W39322  13.088  11.443  12.282  0.0980 -0.2131  0.1563
22475W        W39323   6.725   2.915   1.481  0.1369 -0.1736  0.1515
22476W        W39324  12.693   1.544  12.553  0.2411  0.1205 -0.1165
22477W        W39325  16.163  12.314  16.856 -0.0316 -0.1176  0.0860
22478W        W39326   9.186   0.653  15.187 -0.0993 -0.3945  0.1057
22479W        W39327  10.120  10.370  17.295  0.0139  0.0888 -0.1233
22480W        W39328  15.855  15.897   1.099 -0.0833  0.4182 -0.2593
22481W        W39329  10.076   3.406  17.332  0.0751 -0.0677 -0.0524
22482W        W39330  10.704  10.958  16.319 -0.0937  0.2445 -0.1556
22483W        W39331  14.290  15.498   0.282  0.2114 -0.2341 -0.1589
22484W        W39332   9.710   4.416  17.782 -0.2260  0.0997  0.1753
22485W        W39333  16.715   6.583  17.685 -0.2814  0.0566 -0.0385
22486W        W39334   3.345   0.189   0.996 -0.1093  0.1845 -0.1671
22487W        W39335  12.105  13.106   6.431 -0.3539  0.1715  0.1735
22488W        W39336   3.262  14.830  16.530 -0.0234  0.1772 -0.1968
22489W        W39337   3.372   3.842   4.071  0.2592 -0.1344 -0.2199
22490W        W39338   8.918   7.519   3.761 -0.2826  0.0605  0.1689
22491W        W39339   8.394   1.871   2.110 -0.2959 -0.2187 -0.2655
22492W        W39340   5.389   1.630  14.145  0.0828  0.0531  0.0006
22493W        W39341   1.352   9.457  15.265  0.0047 -0.2400 -0.2064
22494W        W39342   2.112  10.194   0.934 -0.0131  0.2771 -0.1285
22495W        W39343   9.175   2.599   4.193  0.3022 -0.0017 -0.1808
22496W        W39344   7.005   1.050   1.044  0.2380  0.1208  0.3509
22497W        W39345   1.153  11.367   4.547  0.0154  0.0017 -0.0799
22498W        W39346   5.141   6.375   2.732  0.1844 -0.0752  0.1310
22499W        W39347   0.414  15.352   1.234  0.1497 -0.0388 -0.1821
22500W        W39348  15.249   6.734   1.196 -0.0527  0.2757 -0.1860
22501W        W39349   6.603   4.529  15.620 -0.2185  0.0502  0.0798
22502W        W39350   5.485  16.664   0.141  0.3807  0.4108  0.0288
22503W        W39351   3.179   9.112  16.798 -0.1393  0.2258  0.0489
22504W        W39352   6.898   4.412  14.873  0.2250 -0.2079  0.3746
22505W        W39353  16.419   4.808  16.608  0.2456 -0.2341  0.0439
22506W        W39354  11.225   8.038  15.379  0.1026  0.0224  0.1504
22507W        W39355   8.376   6.409   3.276 -0.0423  0.0152 -0.2976
22508W        W39356   1.774  14.459   0.884 -0.0221  0.1895  0.0467
22509W        W39357  11.224   6.610  13.284 -0.1147 -0.2193  0.3740
22510W        W39358  15.555   9.011  16.853 -0.1555 -0.0367 -0.0090
22511W        W39359   6.983  10.456  15.519 -0.0017 -0.1401  0.2060
22512W        W39360   1.848   1.161   2.260 -0.0824  0.1191 -0.1191
22513W        W39361   5.943   8.310   3.784 -0.0577  0.2756  0.0113
22514W        W39362  13.834   4.021  12.460 -0.2221 -0.1906  0.1067
22515W        W39363   6.570  10.417  17.763 -0.1151  0.1664 -0.0794
22516W        W39364   3.266  10.715   5.322  0.2224  0.1823  0.1927
22517W        W39365  13.071   1.678  15.158  0.0338  0.2775  0.0969
22518W        W39366  12.421   0.901  15.776  0.2447 -0.0614  0.1127
22519W        W39367  11.130  15.237  12.804 -0.1183 -0.2888  0.3116
22520W        W39368  14.024  14.740   2.968 -0.3683 -0.1230  0.3228
22521W        W39369   5.097   7.114  16.573 -0.2322 -0.0237 -0.2849
22522W        W39370  11.088  14.802   4.301 -0.0861 -0.0649 -0.3617
22523W        W39371   4.080   3.231   3.624  0.2198  0.0638  0.1040
22524W        W39372  13.545   3.456  13.161  0.1116 -0.1509  0.1126
22525W        W39373   8.083   5.475   3.221 -0.4340 -0.0989 -0.2168
22526W        W39374   9.509   0.647  11.845  0.2649 -0.2280 -0.1800
22527W        W39375   0.218  10.405  12.511  0.0860  0.0386 -0.1254
22528W        W39376  10.679   0.463   5.215 -0.1863  0.1463 -0.0574
22529W        W39377  11.355  13.785   3.718  0.0155  0.4368 -0.1099
22530W        W39378  12.054  15.553   4.435 -0.3168 -0.0825  0.0648
22531W        W39379   9.285  14.278  14.453 -0.1799 -0.2117  0.1301
22532W        W39380   9.298  13.234   2.923  0.0381 -0.1506 -0.1354
22533W        W39381   0.473  15.697  15.051 -0.1279  0.0452  0.1168
22534W        W39382   0.788   0.178  15.109 -0.1828  0.0184  0.0383
22535W        W39383  12.504   8.876  13.848  0.2932  0.0155 -0.1361
22536W        W39384   9.708  11.961  14.352 -0.0289  0.0961  0.0045
22537W        W39385  15.370   5.569  16.153 -0.0318  0.0172  0.0075
22538W        W39386   5.573  11.340   0.882  0.0404 -0.0272  0.1101
22539W        W39387   9.771   4.141   3.408  0.2382 -0.3864  0.0960
22540W        W39388   9.752   2.216   1.405 -0.1665 -0.1852  0.1375
22541W        W39389  13.377  11.470  13.433  0.2105  0.2257  0.1924
22542W        W39390  12.857  10.071  16.816  0.0678 -0.4098 -0.3076
22543W        W39391   5.607  14.404  16.550 -0.0233 -0.3108  0.0844
22544W        W39392   9.229  13.400   4.707  0.5152 -0.2030 -0.0621
22545W        W39393  11.572   9.644   4.393  0.2245 -0.1334 -0.0153
22546W        W39394  13.380  10.149   0.273 -0.1963  0.2960 -0.1193
22547W        W39395  15.128  15.997  16.940  0.3018  0.2401 -0.0240
22548W        W39396  11.122   3.217  13.503  0.0404 -0.1693  0.0249
22549W        W39397  10.567  11.669  14.468 -0.0987  0.4996  0.0076
22550W        W39398  13.454   2.672  12.491  0.0905 -0.1012  0.3026
22551W        W39399   9.959  10.168   5.333 -0.2602 -0.0620 -0.2410
22552W        W39400  14.486  12.210   2.324 -0.2069 -0.0064 -0.2070
22553W        W39401   2.887  13.174   0.713  0.1516 -0.2315 -0.1532
22554W        W39402   0.701  11.741  14.382  0.2012  0.0749 -0.2342
22555W        W39403  16.560   1.192  16.016 -0.0070 -0.0524  0.1974
22556W        W39404   2.982   4.515  16.542  0.3174 -0.2472 -0.1853
22557W        W39405  10.738   7.418  17.092 -0.0127 -0.0970 -0.0701
22558W        W39406  11.285   1.798  14.963 -0.1129  0.2880  0.0542
22559W        W39407  13.870  10.383   0.120 -0.2321  0.0493  0.0349
22560W        W39408   2.666   5.722   0.562 -0.0396 -0.1617  0.0077
22561W        W39409   2.086  11.921   3.633 -0.0000 -0.1720  0.3408
22562W        W39410   6.271   9.687  16.144  0.0148 -0.0905 -0.1296
22563W        W39411   2.830   8.388   2.397 -0.0943 -0.1376  0.2485
22564W        W39412  15.368  12.654   2.314 -0.0987 -0.1370 -0.1767
22565W        W39413  10.858   9.363   2.492 -0.0481  0.0921 -0.4936
22566W        W39414   5.849   4.687   1.981  0.0351 -0.0070 -0.1665
22567W        W39415   2.170   0.316  14.499 -0.1772 -0.5243 -0.0827
22568W        W39416  15.395   0.286  14.300  0.0420  0.0986 -0.3001
22569W        W39417  13.291   3.052  13.773  0.0178  0.0184 -0.1255
22570W        W39418   4.422   6.539   0.894  0.0201 -0.0604 -0.0534
22571W        W39419   4.249   2.989   1.394  0.2388 -0.0982 -0.1836
22572W        W39420   4.878  14.824   4.879  0.1035 -0.1522  0.5086
22573W        W39421  14.436   3.829   3.101 -0.2830  0.0337 -0.0127
22574W        W39422   2.867   5.002  12.404 -0.0791  0.0780  0.0827
22575W        W39423   3.975  11.185   2.550 -0.0004  0.1500  0.2120
22576W        W39424  12.810  13.680   0.167 -0.1149  0.1113  0.1096
22577W        W39425   9.747  13.052  17.202 -0.1134  0.1114  0.0596
22578W        W39426   4.618   1.220   4.968  0.0752  0.0766  0.1272
22579W        W39427   0.246   7.299   4.294 -0.0244  0.0608  0.2585
22580W        W39428   9.149   0.405   4.351 -0.1921 -0.2504 -0.0596
22581W        W39429   5.313  14.851  17.724  0.1989  0.0496  0.0944
22582W        W39430  16.549   0.048   4.936 -0.2521 -0.1089  0.0874
22583W        W39431  11.495  10.275  12.377  0.0655  0.0143 -0.0735
22584W        W39432   8.656   3.589   0.896 -0.1487  0.2288 -0.1958
22585W        W39433   5.112  14.519   2.887  0.1537  0.1918 -0.0245
22586W        W39434  11.984  16.161  16.943  0.2786  0.0150 -0.0824
22587W        W39435  15.183  16.428   0.674  0.2995 -0.2342 -0.0799
22588W        W39436   8.126   9.084   5.599  0.3163 -0.2035 -0.1028
22589W        W39437   1.286  12.314   4.626  0.1215 -0.0255  0.2883
22590W        W39438   4.161   3.167  15.667 -0.1388 -0.0189 -0.0554
22591W        W39439   9.385   2.155   2.990  0.0120  0.1695 -0.0657
22592W        W39440   1.945   6.524   2.553  0.1753  0.3096 -0.3064
22593W        W39441   6.713  13.716  16.491  0.0006 -0.4147  0.0779
22594W        W39442   7.947   3.404   3.587  0.2308 -0.1185  0.0147
22595W        W39443   5.035  16.809  16.585 -0.1617 -0.1399 -0.0991
22596W        W39444  12.820  16.488  14.973 -0.0965  0.0281 -0.0318
22597W        W39445   4.172   0.021   2.230 -0.0745 -0.1830 -0.1584
22598W        W39446   2.341   0.551  13.614 -0.1638 -0.2969 -0.1288
22599W        W39447   9.441   3.564   2.411  0.3233 -0.0625  0.0611
22600W        W39448  11.521  13.946  13.310 -0.1416  0.0879  0.2223
22601W        W39449  14.256  14.942   3.725  0.1664  0.2062  0.0014
22602W        W39450  13.793  10.790  16.975 -0.0678 -0.0170 -0.0412
22603W        W39451  17.067  12.772  15.127 -0.0499  0.0116 -0.0522
22604W        W39452   5.262  10.426   2.560 -0.1069  0.2149  0.2813
22605W        W39453   5.016   8.922  15.480 -0.0658 -0.2432 -0.3735
22606W        W39454   8.687  12.044  12.497 -0.0318 -0.1477 -0.2291
22607W        W39455   7.862  16.600   5.026  0.4009  0.0763  0.1092
22608W        W39456  12.191  15.030  14.009  0.0319  0.2809  0.1582
22609W        W39457   5.684  13.141  16.134  0.0040 -0.2822 -0.1209
22610W        W39458   2.510  12.015  12.732 -0.0837  0.2775  0.1325
22611W        W39459  14.283   7.503  13.976  0.0081  0.1144 -0.0994
22612W        W39460   1.790   6.213   3.891  0.0011  0.1216 -0.1406
22613W        W39461   1.501   3.456  13.824  0.1758  0.3105 -0.0158
22614W        W39462  11.095  13.671  13.512 -0.0600  0.2337  0.1573
22615W        W39463  10.165  11.909   4.247 -0.0067  0.4465  0.0364
22616W        W39464   5.620   2.180   2.840  0.0781  0.2562 -0.0641
22617W        W39465  10.570   0.172  15.380  0.1855  0.1662  0.1495
22618W        W39466   8.760   0.324   2.340 -0.2063 -0.1719 -0.3668
22619W        W39467  14.439  11.566  13.896 -0.0772 -0.1157  0.0490
22620W        W39468   9.076  16.269   0.062 -0.0591 -0.3383 -0.1719
22621W        W39469  10.399   7.212  11.731  0.1095  0.3459  0.0164
22622W        W39470  14.230   2.116   1.489  0.0563  0.0995  0.1811
22623W        W39471   7.268  14.619   5.736 -0.1524  0.2430  0.1373
22624W        W39472  10.650  10.447  12.308  0.2343 -0.2000 -0.3594
22625W        W39473  11.868   3.549   3.945  0.1483 -0.0579 -0.1447
22626W        W39474   9.114   2.709  14.353  0.0810 -0.0382 -0.0498
22627W        W39475   8.486   4.126  11.059 -0.4993 -0.0010 -0.1827
22628W        W39476   8.399   2.035   3.941  0.1203  0.1486 -0.0782
22629W        W39477  14.409  16.818   3.693 -0.1432 -0.4734  0.3237
22630W        W39478   5.590   8.653   0.343 -0.0878 -0.2170  0.1333
22631W        W39479   9.750   7.780   0.108  0.0763  0.0758 -0.2111
22632W        W39480  16.095   0.627   4.408 -0.2489 -0.3249  0.3275
22633W        W39481   6.340   3.004   0.115 -0.1838  0.2423 -0.0486
22634W        W39482  12.631  12.349   0.434 -0.1416 -0.1242  0.1402
22635W        W39483  14.282   0.356   4.536  0.0734  0.1866  0.2266
22636W        W39484  13.251  13.614  15.832  0.1101 -0.0985  0.3692
22637W        W39485  11.983   1.400   2.456  0.4210 -0.2424 -0.0525
22638W        W39486   2.736   0.206  17.507  0.4228  0.2326  0.3650
22639W        W39487   1.670   5.997  15.597  0.2671  0.1514 -0.0708
22640W        W39488  13.724  16.210  12.809 -0.0036  0.0368  0.0333
22641W        W39489   8.633   7.286  12.906  0.0118  0.4365  0.1287
22642W        W39490  15.013  11.105  17.107 -0.0498  0.1867 -0.0036
22643W        W39491  13.470  16.208   3.418  0.0634 -0.0508 -0.1798
22644W        W39492   0.215   5.730   4.484 -0.2129  0.1274 -0.2671
22645W        W39493  16.254   6.537  12.871 -0.1851  0.3543  0.2548
22646W        W39494  10.604   3.324   0.551 -0.0255 -0.0937 -0.0132
22647W        W39495  16.544   5.315  13.040  0.0516  0.1678  0.0433
22648W        W39496  16.390   5.367  13.543 -0.1554 -0.0347  0.4014
22649W        W39497   0.506  15.146   0.453 -0.1511 -0.1370  0.0316
22650W        W39498   8.038   6.950  12.844  0.0926 -0.1530  0.2122
22651W        W39499   6.864  12.086  17.649  0.3487  0.0098 -0.0393
22652W        W39500  10.128  14.782   1.643 -0.1682  0.0056  0.3970
22653W        W39501   1.059   6.372  14.742  0.2982  0.1332  0.0558
22654W        W39502   9.296   8.821  17.557  0.0993 -0.1412 -0.1466
22655W        W39503   7.176  12.344   3.578 -0.2699  0.1149 -0.1753
22656W        W39504   1.720  15.565   3.445  0.2597 -0.1327 -0.0440
22657W        W39505   4.431   0.655  16.703  0.0249 -0.1568  0.0710
22658W        W39506   8.029   2.274  16.500  0.2804 -0.2293  0.0015
22659W        W39507   3.714  12.017   4.098  0.0316  0.0860 -0.2647
22660W        W39508   8.345  11.236  16.798  0.0726  0.1887  0.0580
22661W        W39509   8.304   9.580  12.182 -0.3048 -0.2848 -0.0125
22662W        W39510   4.696   6.591  17.206  0.2245 -0.2929 -0.0777
22663W        W39511   8.615  14.624  16.107 -0.0614  0.0756 -0.1165
22664W        W39512   4.506  13.843  15.184 -0.2337  0.2295 -0.0545
22665W        W39513  15.572   2.452   5.469  0.0658  0.1029 -0.3887
22666W        W39514   6.292   8.770   2.273  0.0703 -0.2324 -0.0609
22667W        W39515   4.793  15.376  15.514  0.2553  0.0492  0.2587
22668W        W39516  10.873   7.947  12.889 -0.0399  0.0392 -0.0502
22669W        W39517   7.884  13.091   3.330 -0.3075  0.0068  0.0325
22670W        W39518  15.149   4.117  12.921 -0.1908  0.1157 -0.0100
22671W        W39519   6.867  13.744   4.071  0.1943 -0.1135  0.1633
22672W        W39520  15.316  16.023   0.221  0.1866 -0.0798 -0.0210
22673W        W39521   6.596  14.193  13.336  0.0474  0.1616 -0.1282
22674W        W39522   0.966  14.840  15.159 -0.1372 -0.1923  0.0812
22675W        W39523   3.540  12.537   3.166 -0.0792  0.1317 -0.2155
22676W        W39524   1.415   4.091  17.165  0.0476 -0.0648  0.0669
22677W        W39525   4.575   9.907   3.023 -0.2897  0.1869 -0.0894
22678W        W39526  12.739  14.864  15.787  0.1274 -0.4105  0.0672
22679W        W39527   3.986   1.754   4.634  0.1894 -0.1593  0.1512
22680W        W39528  11.631   1.945  12.813 -0.0369  0.0755 -0.0022
22681W        W39529   5.001  10.339  13.062  0.2364 -0.0940  0.3285
22682W        W39530   7.035   8.272  15.594 -0.2269  0.0337 -0.0011
22683W        W39531   6.965   1.468  17.421  0.1322  0.0055 -0.2419
22684W        W39532  14.788  10.132   0.065 -0.1627 -0.0986  0.3261
22685W        W39533   9.242  12.332   3.005  0.4908  0.2732 -0.1084
22686W        W39534   1.358  10.274   5.253  0.3616  0.0887 -0.2674
22687W        W39535  13.701   2.478  13.105 -0.1330 -0.1610  0.4002
22688W        W39536  10.667  11.247  15.803  0.0240 -0.2223 -0.1780
22689W        W39537   9.073   3.329  17.324 -0.0590 -0.0175 -0.0058
22690W        W39538  11.621   3.815  11.426  0.1723 -0.2367 -0.0472
22691W        W39539   4.992  14.205  17.746  0.1150 -0.0146 -0.0452
22692W        W39540  12.590  10.914  15.223  0.2922  0.1249 -0.2037
22693W        W39541  10.352  16.743  17.111 -0.0594  0.1374 -0.0923
22694W        W39542   1.511   5.360  14.596  0.0089  0.0563 -0.0933
22695W        W39543  15.677   3.484   5.300 -0.0386  0.2063  0.2736
22696W        W39544   7.193   1.410   1.874 -0.1840  0.0702 -0.1471
22697W        W39545  17.077  13.254   0.447  0.2189 -0.1274  0.2278
22698W        W39546   3.709  11.453   1.836 -0.0993  0.1769  0.1655
22699W        W39547  16.025   7.282   2.028 -0.1891 -0.1453 -0.0139
22700W        W39548   9.953   6.678   4.232  0.0984  0.2691  0.1901
22701W        W39549   2.641   6.724  11.705  0.0551 -0.0393 -0.1000
22702W        W39550   5.677   9.138  13.803  0.2586  0.3064  0.0303
22703W        W39551   3.587   7.925   1.765  0.4436 -0.0145 -0.1150
22704W        W39552   1.799  12.865   3.946  0.1405 -0.3497  0.2358
22705W        W39553  13.382   8.678   0.113  0.0784 -0.0377  0.0808
22706W        W39554  14.629   5.504  10.966  0.1973 -0.0193 -0.1420
22707W        W39555  12.179   3.886  13.622  0.2718 -0.0311 -0.3882
22708W        W39556  13.702   6.063   4.469  0.2062 -0.1686  0.0772
22709W        W39557  14.185   2.181   0.468  0.0753  0.2337 -0.0364
22710W        W39558   6.998   5.157   4.656  0.3354 -0.2229 -0.0425
22711W        W39559   0.589   1.682  16.313 -0.2503 -0.3742  0.1423
22712W        W39560   3.149   2.032   5.869 -0.0918  0.1472 -0.1927
22713W        W39561   0.219   2.616  14.202 -0.4122 -0.4134  0.0826
22714W        W39562  14.128   8.948   2.468 -0.2218 -0.1086 -0.1344
22715W        W39563  11.812  12.441   0.291  0.0745 -0.5075 -0.1499
22716W        W39564  12.815   3.793  14.221  0.1580 -0.1200  0.0828
22717W        W39565  14.650   3.022  15.395  0.0100  0.2167 -0.0642
22718W        W39566   5.092   2.904   0.445  0.3401  0.0722 -0.2654
22719W        W39567   9.782   1.038   1.337 -0.1440  0.2055  0.3502
22720W        W39568   3.163   0.030   1.979  0.0882 -0.1363 -0.1253
22721W        W39569   9.622   7.974  15.737  0.0824  0.1389  0.1891
22722W        W39570   8.261   9.149  14.222 -0.0790 -0.0084 -0.0713
22723W        W39571   8.714  16.047  12.936  0.3518  0.2138 -0.0047
22724W        W39572   4.529  14.810   1.448  0.1016 -0.0661 -0.1253
22725W        W39573  10.881   1.152  16.206 -0.1916 -0.0193 -0.2211
22726W        W39574  13.058  14.420  15.640  0.1197 -0.1189 -0.0157
22727W        W39575   5.429  15.830  12.561  0.0607  0.0295  0.1821
22728W        W39576  12.205  12.018   1.116 -0.1390  0.0918  0.1287
22729W        W39577   4.333  16.665  13.475 -0.2915 -0.1148  0.0555
22730W        W39578   8.096   2.394   4.122  0.0889  0.0507 -0.2513
22731W        W39579  15.058   5.478   2.571  0.1719 -0.0970 -0.0510
22732W        W39580  10.333  12.602  14.238 -0.2703  0.1944  0.0777
22733W        W39581  13.404   7.755  10.847 -0.0185  0.0982  0.1098
22734W        W39582   3.431  10.435  16.787  0.2521 -0.2055  0.4284
22735W        W39583  15.707   4.333   0.907  0.0167  0.1531 -0.1887
22736W        W39584   7.651  14.239  13.873  0.2375  0.1240 -0.0322
22737W        W39585  11.467   5.419   0.728  0.0066 -0.0988 -0.2644
22738W        W39586   1.253  12.768   0.353  0.0582 -0.0199  0.1352
22739W        W39587   9.293   7.912   4.607 -0.0801 -0.0619 -0.0705
22740W        W39588  10.512   6.695  12.677 -0.1185  0.3030 -0.0621
22741W        W39589   3.153   7.975  15.903  0.3413 -0.2169  0.0592
22742W        W39590   1.955  12.443  16.688 -0.0035  0.2400 -0.1196
22743W        W39591   7.024   1.739  16.859 -0.3050  0.3286 -0.2238
22744W        W39592  16.494   0.085  16.931  0.1486  0.2564 -0.3866
22745W        W39593   2.186   5.645  12.585 -0.2316 -0.0169  0.1234
22746W        W39594   2.253   0.345   4.273  0.2400  0.3057  0.2082
22747W        W39595   0.923  12.994  17.782  0.3167  0.0068  0.2070
22748W        W39596   1.797  15.666   6.268 -0.0550  0.1253 -0.0965
22749W        W39597   1.965  11.308  15.226  0.2039 -0.1373  0.3612
22750W        W39598  15.214   5.733   0.555 -0.0792  0.0940  0.1233
22751W        W39599  13.098  10.431   5.503 -0.2588 -0.3054 -0.1300
22752W        W39600  10.155  14.047  17.728 -0.2493  0.2636 -0.1407
22753W        W39601   2.255   1.415  13.970  0.3826 -0.0543 -0.0089
22754W        W39602   5.198   5.370  13.549  0.0358 -0.2974 -0.0551
22755W        W39603   4.571  16.970  14.149  0.1642 -0.1157 -0.2661
22756W        W39604   0.048   0.199  17.639  0.1661  0.2427  0.2250
22757W        W39605  14.873   0.587  15.920 -0.1467  0.0344  0.2369
22758W        W39606   7.905   3.541  17.194  0.2092  0.2395 -0.1543
22759W        W39607   1.698   3.940  13.821  0.5166  0.1027 -0.1420
22760W        W39608  14.770  14.682   0.289 -0.0644  0.1436  0.1665
22761W        W39609  15.857   9.721  14.845 -0.1680 -0.0588  0.1388
22762W        W39610   4.325   6.120   3.614 -0.0642  0.1113 -0.1164
22763W        W39611   5.591   5.947  13.514  0.1977  0.1757 -0.0149
22764W        W39612  10.785   0.432  11.638  0.0948  0.2538 -0.0651
22765W        W39613   8.007  12.220  16.239  0.2466  0.1321  0.3629
22766W        W39614  10.598   8.901  17.674  0.1045  0.3314 -0.0533
22767W        W39615   9.544   2.583   0.651  0.0095 -0.0625 -0.0576
22768W        W39616   5.179  15.798  16.208  0.0847 -0.2797  0.2707
22769W        W39617   7.354  11.047  16.730  0.2142  0.0640 -0.1379
22770W        W39618   2.689   3.096   0.442  0.2631  0.1224 -0.0832
22771W        W39619  16.281   3.368   3.596 -0.3634  0.1498  0.2338
22772W        W39620   2.500  13.859   0.507  0.0046 -0.1479  0.2149
22773W        W39621  13.668   0.869  12.419 -0.0444  0.3242 -0.3751
22774W        W39622   2.044  12.064   6.489  0.1413  0.1583 -0.0574
22775W        W39623   1.465  14.792  15.130  0.1671 -0.6000  0.0520
22776W        W39624   0.568   9.184  13.424  0.0828  0.1159 -0.0837
22777W        W39625   7.508   0.861  17.516 -0.0964 -0.0586  0.1960
22778W        W39626  16.115   8.685   2.664  0.0844  0.0722 -0.1429
22779W        W39627   7.881   5.374   1.378  0.1086  0.2361 -0.1597
22780W        W39628   7.752  12.969  14.122  0.0417 -0.0325 -0.0113
22781W        W39629   7.990   6.391  13.712  0.2497 -0.0778  0.1032
22782W        W39630  12.902  13.339  15.551 -0.2467 -0.1232 -0.0415
22783W        W39631   7.875   3.762   2.660  0.0046 -0.2796  0.0341
22784W        W39632  12.976   8.690   1.537 -0.0506  0.0185  0.0639
22785W        W39633  16.103  10.408   4.734 -0.3605  0.3259 -0.2282
22786W        W39634  16.519  13.825  12.749  0.1497 -0.1624  0.1680
22787W        W39635   4.515  15.531   6.082 -0.1777 -0.1983  0.0191
22788W        W39636   0.419   5.625  13.298 -0.1585 -0.1724 -0.1695
22789W        W39637   2.956  15.399   3.754 -0.0562 -0.1362 -0.0103
22790W        W39638  15.914  15.638   3.496 -0.0363 -0.3182  0.2903
22791W        W39639  15.881  13.662   5.776  0.1927  0.1577  0.0080
22792W        W39640  12.463  13.347   5.939 -0.1660  0.1480 -0.1826
22793W        W39641  13.954  14.277  13.707  0.3067  0.1239  0.1426
22794W        W39642  11.213   6.063  15.940  0.0671 -0.0786  0.0575
22795W        W39643  10.880   1.963  13.380 -0.1426  0.2129  0.4501
22796W        W39644  10.037   9.874   2.288  0.2124 -0.0775 -0.0466
22797W        W39645  14.161   4.905   0.202 -0.1848  0.0973 -0.0054
22798W        W39646  12.532   8.832  14.338  0.2639 -0.0841  0.1444
22799W        W39647  11.063   8.563  14.178  0.0311  0.2985 -0.1899
22800W        W39648  12.621  13.549  14.105  0.0516 -0.0036 -0.0007
22801W        W39649  12.704  16.661  17.412 -0.0795 -0.2955 -0.0908
22802W        W39650  14.308   5.270  16.581 -0.2904 -0.2807 -0.0097
22803W        W39651   7.745  12.323  17.193 -0.0341 -0.1802 -0.1642
22804W        W39652  12.741  14.077  17.671  0.1936 -0.1721  0.1055
22805W        W39653   7.604   1.322   5.780 -0.1603 -0.3176 -0.0874
22806W        W39654   5.643  12.078  17.451 -0.0476  0.0963 -0.1364
22807W        W39655  14.938  14.292   2.024  0.0493  0.3698 -0.0591
22808W        W39656   6.769  13.828  14.940  0.0213  0.2022 -0.1018
22809W        W39657  11.473  13.397   2.157 -0.0288  0.1416  0.0025
22810W        W39658   1.818  16.200  13.954  0.1478  0.2604  0.0150
22811W        W39659  14.318   1.857  13.257 -0.0163 -0.3654  0.0702
22812W        W39660   0.990   1.395  13.111 -0.0237  0.0793  0.1382
22813W        W39661   6.379   4.432  14.659 -0.2821  0.0296 -0.0282
22814W        W39662   1.302   1.022   0.837 -0.1758  0.4954  0.1677
22815W        W39663   8.380   7.560  12.604  0.1439 -0.1438 -0.0780
22816W        W39664  10.282  11.356   2.884 -0.1297  0.1035  0.0462
22817W        W39665   9.468  15.571  16.845  0.2767 -0.2446 -0.0702
22818W        W39666  15.207  13.469   4.131  0.1096 -0.0261 -0.2610
22819W        W39667  11.048  14.730   3.809  0.4744  0.0331  0.0920
22820W        W39668  12.506   4.894  11.857 -0.2383  0.0555 -0.0891
22821W        W39669   7.777  14.360   1.353 -0.1243  0.1978 -0.3117
22822W        W39670  10.652  11.123  17.732 -0.2060  0.1632 -0.1407
22823W        W39671  15.805   6.882   3.750  0.1447 -0.1807 -0.4358
22824W        W39672   6.877  15.802   2.442 -0.1924 -0.0772  0.3096
22825W        W39673   3.722  16.722  14.405 -0.1963 -0.2148  0.0260
22826W        W39674   2.896   5.277   1.290 -0.0210 -0.1207 -0.1659
22827W        W39675  13.533   2.438   4.323  0.1176  0.1225  0.2167
22828W        W39676  11.013   2.930  15.645 -0.0852 -0.0011  0.2223
22829W        W39677   6.035  15.262   2.416 -0.2132 -0.2166 -0.1150
22830W        W39678  12.415  11.057   4.634  0.0126 -0.0464 -0.0136
22831W        W39679  16.020   8.186  12.533  0.1741  0.1351 -0.0046
22832W        W39680  11.133  16.488   4.840  0.4346 -0.2884  0.0001
22833W        W39681   5.666   1.275   5.896  0.3580 -0.3145  0.1147
22834W        W39682  11.396  17.072  14.864 -0.0154  0.1248  0.1107
22835W        W39683  15.180   5.158  15.801  0.3528  0.3180 -0.0231
22836W        W39684  11.581   3.070  13.881 -0.0175 -0.2546 -0.0616
22837W        W39685   3.075  15.589  14.910  0.1904 -0.2829 -0.0241
22838W        W39686   0.003  10.060  15.461  0.1208  0.0541 -0.2009
22839W        W39687   1.567   4.949   5.271 -0.0011 -0.0311  0.0262
22840W        W39688   7.037   4.100   4.363 -0.0537 -0.1095  0.0454
22841W        W39689   2.848   5.634  14.722  0.1578 -0.0209  0.0470
22842W        W39690   3.127   7.479  14.757  0.0970 -0.1391 -0.1276
22843W        W39691   7.284  13.571  15.313  0.4116 -0.1358 -0.2658
22844W        W39692   2.902   0.443  17.082  0.0502 -0.0267 -0.1477
22845W        W39693  12.908   0.340  16.358 -0.0467  0.0593  0.1167
22846W        W39694  16.005   3.256   1.783  0.0456  0.1910  0.1757
22847W        W39695   3.670  13.924   2.700  0.3162 -0.0000 -0.1691
22848W        W39696   8.080   8.301   4.432 -0.1524 -0.0175 -0.2537
22849W        W39697   4.311  14.243  17.248  0.4069 -0.1874  0.4442
22850W        W39698   2.302   4.214  17.565  0.0618  0.0529  0.0962
22851W        W39699   8.042   8.747  12.150 -0.0596 -0.1277  0.1408
22852W        W39700  15.777  14.057   4.273  0.1786  0.1268  0.0039
22853W        W39701  13.821   2.588  17.383 -0.0736  0.4329  0.3605
22854W        W39702   4.963   9.881  14.758  0.1693  0.0052  0.0690
22855W        W39703   9.782  10.778  17.357 -0.1448 -0.1664 -0.2087
22856W        W39704   3.214   0.605  13.226  0.1395  0.1268  0.0424
22857W        W39705  16.868   6.050  11.711 -0.0271  0.0691 -0.3403
22858W        W39706   2.102   1.865   0.812 -0.0289 -0.0111 -0.2468
22859W        W39707   7.153  15.052   5.022  0.0360  0.1024  0.2864
22860W        W39708   3.715   8.800   4.105 -0.1593 -0.1166  0.2131
22861W        W39709   9.563   2.023  17.577  0.3299 -0.0341 -0.0842
22862W        W39710  13.310   3.990  12.740 -0.0041  0.0282  0.0808
22863W        W39711   7.703  12.560   3.324 -0.2265 -0.2372 -0.2374
22864W        W39712   1.222  12.186  12.209 -0.1880 -0.1158  0.0038
22865W        W39713   2.434   1.825   1.865  0.0202  0.0450 -0.2762
22866W        W39714  12.538   8.739  12.006  0.0200  0.2311  0.2898
22867W        W39715  14.305   6.237  15.668 -0.1615 -0.2113 -0.3401
22868W        W39716  15.748   2.970   2.586 -0.2084 -0.0966 -0.0006
22869W        W39717   9.128  14.976  12.609  0.4404  0.1633  0.4262
22870W        W39718  13.685  10.880   3.864 -0.1860 -0.0435 -0.2700
22871W        W39719   7.359   7.110   5.188  0.2043 -0.2098  0.1345
22872W        W39720  13.018  14.438  15.088  0.0508 -0.0610  0.0456
22873W        W39721  13.593   3.827  16.409 -0.2227 -0.1879 -0.0093
22874W        W39722   2.339   4.783  13.282 -0.0289 -0.1670 -0.2474
22875W        W39723   5.092   3.881  15.211 -0.2745 -0.1175  0.0631
22876W        W39724  15.946   1.499   3.774 -0.0261  0.1175 -0.2134
22877W        W39725   5.080   6.778   4.980 -0.0454 -0.0375  0.0775
22878W        W39726   6.463  12.735   0.478 -0.0407  0.2242 -0.0302
22879W        W39727   2.908  14.883   4.874  0.1839  0.2546  0.3926
22880W        W39728   1.232   7.847   1.416 -0.0436 -0.3416 -0.1782
22881W        W39729   1.148   4.140  15.704  0.0815 -0.0911 -0.0630
22882W        W39730  10.064  13.092   4.977 -0.0567  0.2527  0.0946
22883W        W39731   2.088  11.960  14.057  0.0602  0.1548 -0.1934
22884W        W39732   5.148   6.074  13.698 -0.0893 -0.1580 -0.2967
22885W        W39733  11.138   1.989  12.474  0.3717  0.2567 -0.1679
22886W        W39734   4.666   4.612  15.435  0.0531  0.1292  0.0091
22887W        W39735   1.819   7.036  14.525 -0.1503 -0.3178  0.0549
22888W        W39736   4.165   2.568   2.574 -0.2095  0.0414 -0.0314
22889W        W39737   7.849  13.542   5.205  0.1345 -0.2808 -0.0835
22890W        W39738   2.101  10.370  12.536  0.1805  0.0050 -0.0324
22891W        W39739   7.403   1.617  14.234  0.1526  0.0459  0.0870
22892W        W39740  16.331   7.150   4.700  0.1449 -0.2455  0.0357
22893W        W39741   0.661   3.046  17.266  0.2345 -0.1076 -0.4574
22894W        W39742   3.915  12.409   1.941 -0.1471 -0.1179 -0.0568
22895W        W39743   2.839   5.728  14.131  0.1039 -0.0899 -0.1476
22896W        W39744  10.583  15.527   5.235 -0.0212  0.2462  0.3629
22897W        W39745   4.746   3.376  12.983  0.2307  0.4711 -0.2496
22898W        W39746  15.045   8.003   0.013 -0.2186 -0.0559  0.1852
22899W        W39747   8.402   3.206  14.717  0.4163  0.2458 -0.0129
22900W        W39748   7.929   1.854   1.198  0.1721  0.0289 -0.3039
22901W        W39749   2.845   9.192  13.277  0.1245  0.0373 -0.1000
22902W        W39750  13.819  11.479   4.960  0.0184 -0.1451  0.0537
22903W        W39751  15.086   6.001   2.875 -0.1015  0.0369 -0.0013
22904W        W39752  12.536  15.045  12.334 -0.0029  0.0687 -0.0058
22905W        W39753   9.503   8.554   3.290 -0.2144 -0.0140  0.1248
22906W        W39754   5.085  16.747  17.428  0.1097  0.0401 -0.0116
22907W        W39755   4.858   0.425   2.868  0.1391 -0.4801  0.0985
22908W        W39756  14.035   1.408   0.791 -0.2013 -0.4667 -0.1320
22909W        W39757  11.897  10.071   2.198  0.0783  0.3435 -0.1461
22910W        W39758   5.493   7.644   4.892 -0.4294  0.0421 -0.2109
22911W        W39759   0.042  15.593  14.509 -0.0652 -0.1752 -0.0111
22912W        W39760   8.286  11.834   5.262 -0.3790  0.1082 -0.0469
22913W        W39761   1.073   9.125  17.326 -0.2604 -0.0553  0.1380
22914W        W39762   8.662   9.131   5.378  0.0335 -0.0889 -0.2826
22915W        W39763   0.617   4.877  14.582  0.2026 -0.0826  0.0675
22916W        W39764   4.497   7.782  13.986 -0.0863 -0.1598  0.0565
22917W        W39765   9.392   9.645   4.070 -0.0466 -0.4165 -0.1879
22918W        W39766   7.371   1.073  15.054  0.0932  0.3299 -0.0619
22919W        W39767   4.465   1.615   4.566  0.1243 -0.0618  0.1823
22920W        W39768   9.090  14.954  17.377  0.0758 -0.0206  0.0816
22921W        W39769   0.446   0.015  14.716 -0.1383 -0.2059  0.0143
22922W        W39770   9.700  16.190   0.492 -0.0333  0.0186 -0.2176
22923W        W39771   8.158   2.034  15.365  0.0421 -0.0385  0.1623
22924W        W39772   7.754  16.177  14.575  0.2572 -0.0747 -0.2066
22925W        W39773  15.608  13.794   1.896  0.2260 -0.2575 -0.2514
22926W        W39774   9.302   1.855   1.557 -0.0478 -0.1058  0.0960
22927W        W39775  16.282   4.858  13.104 -0.0046 -0.1034 -0.3744
22928W        W39776   9.538   5.040  17.098 -0.2380  0.0257 -0.3809
22929W        W39777   3.539   9.967  16.945  0.2685  0.1600 -0.3643
22930W        W39778   4.173   7.100   4.275 -0.0507 -0.1075 -0.1963
22931W        W39779   0.432   9.346  16.633 -0.1399  0.2833  0.2482
22932W        W39780   5.153   1.412  16.338  0.0870  0.4340  0.1937
22933W        W39781  13.178   6.067  17.407 -0.3867 -0.2426  0.1434
22934W        W39782   2.480   3.869  13.808  0.1076  0.1145 -0.2589
22935W        W39783   1.197   5.945   0.671 -0.3152 -0.0120 -0.0466
22936W        W39784  14.974  13.897   2.351 -0.0850 -0.0836  0.1508
22937W        W39785   7.045   2.948  11.571 -0.0289 -0.2398 -0.4453
22938W        W39786   6.280   8.882  12.539  0.2259 -0.0546  0.1042
22939W        W39787   6.262  11.361  16.040  0.1080  0.0498  0.2494
22940W        W39788  12.625   8.242   4.462  0.2834  0.0827 -0.0720
22941W        W39789   9.316   0.773   4.007 -0.1327  0.2946  0.1861
22942W        W39790  10.659   1.498  14.319 -0.1737  0.0022  0.1202
22943W        W39791   7.727  13.066   5.713 -0.0381  0.2765  0.0391
22944W        W39792  12.425  10.584   2.447 -0.3357  0.0461 -0.1966
22945W        W39793   3.925   6.312  14.735  0.0156 -0.1321 -0.0903
22946W        W39794   8.353  11.856   4.222  0.0533 -0.1120 -0.1287
22947W        W39795   2.457   8.828   5.885 -0.1185  0.3403  0.2820
22948W        W39796   3.212  10.778   3.586  0.0633 -0.1678 -0.0665
22949W        W39797  15.045  14.255   0.383 -0.0575 -0.1349  0.1710
22950W        W39798  16.212   6.845   2.781 -0.0072  0.1374 -0.3047
22951W        W39799   2.141   9.304   0.284  0.1798  0.1343  0.1187
22952W        W39800   0.699   4.636  12.702 -0.0849 -0.0613  0.0070
22953W        W39801   7.571   8.466   4.561 -0.1390 -0.0913  0.0869
22954W        W39802  14.102  13.929  17.501  0.1512 -0.2079  0.1343
22955W        W39803  10.881   6.069   4.590  0.1744  0.2107  0.0260
22956W        W39804  14.495  16.602   2.547 -0.0764  0.1182  0.0078
22957W        W39805  15.964  14.514   2.901 -0.0186  0.1838 -0.0289
22958W        W39806   5.835  10.831  12.219  0.0903 -0.0536  0.1645
22959W        W39807   7.404  13.977  17.270  0.1123 -0.0356 -0.1741
22960W        W39808   0.322   3.384  14.779  0.0108 -0.1364  0.1868
22961W        W39809   0.120   4.921  14.766  0.1810 -0.0933  0.0962
22962W        W39810   3.537   5.642  15.347  0.2448 -0.0624 -0.1535
22963W        W39811   0.210  16.349  16.274 -0.1078  0.1705  0.2642
22964W        W39812   8.290   7.858   1.784 -0.1881  0.0480  0.1796
22965W        W39813   3.082   8.597   0.416 -0.0979  0.3241 -0.3234
22966W        W39814   9.864   6.090   0.032 -0.2178  0.0509  0.0121
22967W        W39815   9.390  13.009   0.391 -0.0593 -0.0469 -0.0642
22968W        W39816  16.516  11.958   4.187 -0.0946  0.2388  0.0083
22969W        W39817   3.353   8.776   1.547 -0.1178  0.0069 -0.2298
22970W        W39818   2.836  13.919  15.676  0.1895 -0.1431 -0.3631
22971W        W39819   1.308   1.973   6.722 -0.1357 -0.1181  0.1401
22972W        W39820  12.183   3.199   4.644  0.1145 -0.1959  0.1751
22973W        W39821  15.775  14.909  13.162 -0.1310 -0.1884  0.3514
22974W        W39822   1.402  11.106   2.818 -0.4143  0.3641 -0.2864
22975W        W39823   9.404   9.034  13.741 -0.1203  0.0091 -0.1392
22976W        W39824  17.101   7.032  14.994  0.2066  0.0487  0.0273
22977W        W39825   5.829  16.390   3.169  0.1324  0.2432 -0.2534
22978W        W39826  15.171  15.358  15.987 -0.3176  0.2266  0.1488
22979W        W39827   0.852   9.405   0.890  0.2085  0.2772  0.1569
22980W        W39828   6.211   2.625  17.545 -0.2063 -0.1365  0.1363
22981W        W39829   5.149  14.200   3.567 -0.0814  0.2630  0.3067
22982W        W39830   8.273   8.603  14.328  0.0881 -0.0294  0.3869
22983W        W39831   7.164   9.858   1.640  0.0502  0.0539  0.2288
22984W        W39832   9.748   1.727   1.734  0.1182  0.0718 -0.1778
22985W        W39833   4.326   8.838   3.480  0.0566  0.0225 -0.1339
22986W        W39834   7.725  12.670   0.596 -0.3259 -0.0078 -0.0264
22987W        W39835   4.245  11.086  16.032 -0.0441  0.1810 -0.0145
22988W        W39836  12.083   9.415   0.377  0.0708 -0.0265 -0.2054
22989W        W39837   7.730  11.673  13.976  0.0409  0.2770  0.1260
22990W        W39838   2.291  15.415   3.030 -0.0090 -0.0324  0.2041
22991W        W39839  12.329   1.329  14.119  0.2510  0.1999 -0.0977
22992W        W39840  14.488  14.323   3.692 -0.1439 -0.1413 -0.2255
22993W        W39841   3.687   4.400   3.045 -0.0590 -0.4919 -0.0089
22994W        W39842  12.906   3.891   2.002 -0.0303 -0.0824  0.1123
22995W        W39843   0.053  14.996   3.706 -0.1066 -0.1304 -0.0009
22996W        W39844   6.453   8.242  15.284 -0.1974 -0.0248  0.1445
22997W        W39845  11.097  13.297   1.813 -0.3296 -0.2244  0.2645
22998W        W39846  16.376   6.905   2.186  0.1452  0.1329 -0.2312
22999W        W39847   1.248  10.311   0.430 -0.0092  0.0192  0.0547
23000W        W39848   5.709  13.495   1.304 -0.0077  0.1037  0.1792
23001W        W39849   0.072   7.800  14.923  0.0916  0.0489  0.1520
23002W        W39850   2.799  16.270  14.343 -0.0689  0.2784 -0.1988
23003W        W39851  13.457  11.352  16.986  0.1746 -0.0503  0.0287
23004W        W39852  13.813   9.817  16.349  0.1504  0.0304  0.0370
23005W        W39853  13.678  13.185   4.251  0.2355  0.3412  0.1872
23006W        W39854  14.317   7.212   5.257  0.1396 -0.1632 -0.1597
23007W        W39855   0.669  16.267   4.459 -0.3764  0.0875  0.0058
23008W        W39856   3.903   7.714   5.688 -0.0659  0.1038 -0.4903
23009W        W39857  12.205   3.393   1.448  0.1214 -0.3144  0.0809
23010W        W39858   8.744   2.281  13.019 -0.0799 -0.0852 -0.0861
23011W        W39859   5.378   5.410   3.371  0.0565 -0.2610  0.1029
23012W        W39860  13.347   9.960   3.777  0.2675 -0.1968  0.0049
23013W        W39861  14.688  15.110   1.828 -0.1123 -0.0842  0.0250
23014W        W39862   0.628  10.508   3.079  0.0148  0.3123  0.2795
23015W        W39863  13.509  16.661  14.215 -0.1080 -0.0334  0.4354
23016W        W39864   9.933   8.420   2.425  0.1123  0.0016  0.0985
23017W        W39865  12.008   5.534   0.693 -0.1166  0.0908  0.4337
23018W        W39866   8.360   5.031  14.009 -0.1440 -0.1661  0.2385
23019W        W39867  15.862   1.704  13.996  0.1368  0.1829 -0.0201
23020W        W39868   7.868  11.955  14.805 -0.2060 -0.3414  0.0457
23021W        W39869   5.255  14.475  13.462 -0.0339  0.0868 -0.0291
23022W        W39870   3.597   1.237   6.372 -0.2753 -0.1586 -0.4048
23023W        W39871   8.822   4.522   0.516 -0.0663  0.1451 -0.1300
23024W        W39872   3.593  11.529   5.742 -0.0053 -0.4260 -0.2097
23025W        W39873  17.000  13.249  11.543  0.1607 -0.0075  0.0092
23026W        W39874  11.660  15.280  13.479  0.4517  0.3172  0.0893
23027W        W39875  10.917   4.527   3.946 -0.3755 -0.3024 -0.0476
23028W        W39876   8.334  10.439  13.912 -0.0699  0.1521  0.0523
23029W        W39877   2.159  15.768   4.815  0.1822 -0.0104 -0.1493
23030W        W39878  12.806  14.029   2.441 -0.1597  0.1231  0.1078
23031W        W39879  14.940  16.403  13.947 -0.2034  0.3419  0.1737
23032W        W39880  14.164   3.572  12.906 -0.2654 -0.1134  0.0094
23033W        W39881  13.959  12.729  13.414 -0.0848 -0.1659 -0.2086
23034W        W39882  13.421  16.053  12.410  0.2055 -0.1695 -0.0036
23035W        W39883   4.957   7.188  13.636  0.1020  0.1945 -0.1884
23036W        W39884   4.285  16.904   4.710  0.0980 -0.4195  0.1434
23037W        W39885  13.178   0.309   0.705 -0.1980 -0.1456  0.3469
23038W        W39886  14.007  13.237   1.114 -0.1485  0.1172  0.2530
23039W        W39887  17.135  11.239   2.124 -0.2348  0.0802  0.1617
23040W        W39888  14.960   6.516  13.052  0.0935  0.0818  0.2354
23041W        W39889  11.910   1.519  13.037 -0.1029 -0.1113 -0.0149
23042W        W39890   3.848  14.176   7.084 -0.0912 -0.1113  0.2299
23043W        W39891   0.769  13.850  17.703 -0.0998  0.0286 -0.2605
23044W        W39892   4.030   4.660  14.662 -0.3182 -0.2765  0.1288
23045W        W39893   5.529   8.234  17.247 -0.1611  0.0898  0.0832
23046W        W39894  15.397  10.431  16.173 -0.0981  0.0268 -0.2246
23047W        W39895   7.764  10.284  14.516  0.1103 -0.1493 -0.2738
23048W        W39896  10.513   3.552  12.548 -0.1987  0.2563 -0.0429
23049W        W39897   0.634  13.026   2.062 -0.0226 -0.1008  0.3407
23050W        W39898  13.661   8.695   2.421 -0.1918  0.0063 -0.3540
23051W        W39899   1.339   2.929  13.404 -0.2025 -0.0903  0.0561
23052W        W39900  15.141  13.018  17.475 -0.3059  0.4527 -0.1606
23053W        W39901  12.036   6.318   0.134 -0.2280 -0.1595 -0.0469
23054W        W39902  12.362   4.873  17.033  0.1269 -0.1468  0.1732
23055W        W39903   6.601   4.058   3.211  0.0611 -0.2018 -0.1411
23056W        W39904   8.183   1.401   4.601  0.5156  0.0639 -0.2336
23057W        W39905   9.456   7.854  16.645  0.1082  0.1898 -0.1885
23058W        W39906  13.349   4.400  13.034  0.1340  0.0536  0.0761
23059W        W39907   3.475  11.157   6.013  0.1308  0.2954  0.1894
23060W        W39908   9.756  16.460   4.925 -0.1712  0.3437 -0.0156
23061W        W39909   9.603   4.787  11.358  0.0159 -0.0134  0.0117
23062W        W39910  11.401  11.017   0.761  0.2067  0.1508  0.1046
23063W        W39911   6.396  15.201  14.699  0.2006 -0.1915 -0.0179
23064W        W39912   8.602  10.063  15.039  0.1701 -0.0674 -0.1407
23065W        W39913   2.077  12.667   1.593 -0.4570 -0.3450 -0.1803
23066W        W39914  12.349  12.285  16.790  0.1197  0.0209  0.2371
23067W        W39915  12.082   6.022  16.272  0.2110 -0.0554  0.1991
23068W        W39916  11.195  11.075  15.181  0.3661 -0.1943 -0.0659
23069W        W39917  10.205   7.053   4.713  0.1072  0.1905 -0.1733
23070W        W39918  13.741   9.358  17.684 -0.1269  0.0266  0.0880
23071W        W39919  11.966  15.009  16.185 -0.0123  0.0486  0.0018
23072W        W39920  14.551  15.372   0.845  0.1857  0.0331  0.0203
23073W        W39921  13.189   9.344  11.624  0.6155 -0.2401 -0.1628
23074W        W39922   3.287  10.378   0.557  0.1964  0.2470 -0.0202
23075W        W39923  15.050   9.146   0.395  0.0842  0.2415 -0.1477
23076W        W39924   7.224   1.356   4.458  0.1597 -0.0247  0.1011
23077W        W39925  13.811  14.041  11.471  0.2541  0.0239  0.1036
23078W        W39926   3.928   4.745  13.829  0.1043  0.2554  0.0009
23079W        W39927  13.579   7.507   5.098  0.5114  0.1889 -0.0005
23080W        W39928  16.196  11.018  17.560  0.1351  0.0152 -0.1030
23081W        W39929   9.097   7.902  12.407 -0.1165 -0.0530 -0.2401
23082W        W39930  14.215  12.812  13.857 -0.3979 -0.2476  0.0583
23083W        W39931  15.422  13.760  17.070 -0.0863  0.0139  0.1478
23084W        W39932  17.036   6.189  17.541  0.0393 -0.2823 -0.0851
23085W        W39933  13.462  14.331   5.529  0.0183  0.4651  0.1398
23086W        W39934   0.226  16.262   1.112  0.0999  0.0324  0.2538
23087W        W39935   7.910  16.748   0.449  0.0806  0.1781 -0.0502
23088W        W39936   5.563   1.799   3.840 -0.4817  0.3125 -0.0015
23089W        W39937  13.844   5.988  14.904 -0.2373 -0.0087 -0.2244
23090W        W39938  16.434  16.861  12.786 -0.1711  0.0740 -0.0680
23091W        W39939  15.308   4.925   0.931 -0.1153  0.1333  0.1448
23092W        W39940  16.785   0.537  12.847 -0.1019 -0.1619 -0.3387
23093W        W39941  10.063   8.602   3.317  0.2418 -0.0837 -0.1915
23094W        W39942   9.724   0.259   5.209 -0.2929 -0.1902  0.0659
23095W        W39943   7.232  14.638   2.502  0.1703  0.2878  0.2186
23096W        W39944  12.886   1.114  14.980  0.0115 -0.0713 -0.0682
23097W        W39945   5.813   7.075   0.622 -0.1583  0.1846  0.1182
23098W        W39946   7.103   7.065  13.480 -0.4461  0.1911  0.1094
23099W        W39947  15.298   3.932   3.875  0.2256  0.2241 -0.1839
23100W        W39948  11.296  12.237  12.449 -0.0675  0.0810 -0.0724
23101W        W39949   9.186  12.926   5.566 -0.1260  0.0302  0.1725
23102W        W39950  16.365   8.355   0.336 -0.1258 -0.0863 -0.1157
23103W        W39951   0.300   6.697  12.035  0.1771  0.1099  0.0218
23104W        W39952  11.626  10.152  11.466 -0.0742  0.0413  0.2493
23105W        W39953   2.640   9.453   0.515 -0.0528 -0.0513 -0.0194
23106W        W39954   0.431   5.805  16.710 -0.0649 -0.4226  0.1173
23107W        W39955   4.634  11.418   1.925 -0.2005  0.3960  0.0087
23108W        W39956  12.862   5.710   4.034  0.0422 -0.0117 -0.0391
23109W        W39957  12.005   2.138  13.070 -0.1317 -0.3070 -0.2513
23110W        W39958  15.995   2.237  17.537  0.1169 -0.2204 -0.2782
23111W        W39959   4.303  11.019   1.146 -0.2917  0.1528 -0.0095
23112W        W39960   1.593   8.052   5.611 -0.5121 -0.0177  0.2554
23113W        W39961   5.410   6.343   0.248  0.0309  0.1568  0.0682
23114W        W39962   8.768   3.518   3.218 -0.0317  0.2869  0.1579
23115W        W39963  16.411   3.975  16.599 -0.0832 -0.1297 -0.0495
23116W        W39964  11.099   7.606  17.367 -0.1591  0.0127  0.1556
23117W        W39965  11.067  10.390   0.990 -0.2277  0.1878 -0.0755
23118W        W39966  14.400  16.205   1.894  0.0832  0.2478  0.0609
23119W        W39967  11.882   6.573   2.623  0.0484  0.1779  0.2202
23120W        W39968   8.076  16.330   0.158 -0.0247 -0.4502 -0.0865
23121W        W39969  14.482  10.747  14.507 -0.1383 -0.0993  0.0623
23122W        W39970  15.733   7.398  13.658 -0.0038 -0.0622 -0.0306
23123W        W39971   0.192   3.306   5.281 -0.0269  0.2776 -0.1828
23124W        W39972  12.936   5.769   1.887 -0.0322  0.0643  0.0705
23125W        W39973   0.182  16.281   3.069  0.0128  0.2355  0.0336
23126W        W39974   9.488  13.890   4.721 -0.2468  0.2527 -0.2344
23127W        W39975  11.013   8.165  16.196 -0.2189  0.2145  0.1248
23128W        W39976   3.141  13.295  11.449 -0.1528  0.0016  0.2927
23129W        W39977  15.194  11.146   5.308 -0.0720 -0.1115 -0.0520
23130W        W39978  16.516  14.644  16.614  0.2260  0.0408  0.1265
23131W        W39979   6.516   9.308  12.771 -0.1045 -0.1999 -0.1023
23132W        W39980  16.419   3.481  15.774 -0.4585 -0.3005  0.1023
23133W        W39981   2.928  14.485  15.421  0.1406  0.1790 -0.1647
23134W        W39982  12.254   0.725  12.366 -0.1315  0.0508 -0.0471
23135W        W39983  16.454   3.219   0.715 -0.0236 -0.1266  0.3557
23136W        W39984   9.973   1.046  14.510  0.1469 -0.1134 -0.3705
23137W        W39985   0.126   1.412  15.796  0.3990  0.0282  0.0157
23138W        W39986   1.212  10.602   4.868  0.0325  0.4691 -0.0721
23139W        W39987  13.992   0.602  14.702  0.3470 -0.0175 -0.0404
23140W        W39988   9.988  11.821  15.269  0.1891 -0.1184 -0.1159
23141W        W39989   0.821  14.989   3.287  0.1574 -0.1714  0.2055
23142W        W39990  10.522   4.020  12.390 -0.1315  0.1078  0.0666
23143W        W39991   5.666   1.205   1.056  0.1862  0.2750 -0.0679
23144W        W39992  12.309   9.073   4.870  0.0304 -0.0375 -0.2151
23145W        W39993   1.384   0.967   5.249 -0.0906  0.3984 -0.1898
23146W        W39994  15.343   4.632   4.191  0.1100 -0.0762  0.1569
23147W        W39995   8.822   3.209  13.072  0.1212  0.2436 -0.0979
23148W        W39996   7.054   4.564  12.543 -0.1214  0.0378 -0.1224
23149W        W39997  14.854  11.867  13.888 -0.0455 -0.0737 -0.2947
23150W        W39998   3.463  16.344   4.648 -0.0676 -0.2677  0.0561
23151W        W39999   3.540   3.392   3.911  0.4128 -0.0517 -0.0545
23152W        W40000   6.219  12.001   3.653 -0.2727  0.3068 -0.0466
23153W        W40001   5.453   1.108   2.508  0.2088 -0.0961 -0.0674
23154W        W40002  12.618   6.644   1.598 -0.2742 -0.3648  0.0073
23155W        W40003   7.537   4.340   2.675  0.1536 -0.1211 -0.3613
23156W        W40004  14.224  13.146  16.915 -0.0669  0.0674 -0.0690
23157W        W40005   0.386  17.142  17.336 -0.2425 -0.3389  0.6179
23158W        W40006  13.660  11.783   3.682  0.1316  0.1006 -0.0488
23159W        W40007   4.310  15.096   4.168  0.0127  0.0970  0.1033
23160W        W40008  14.042   8.414   2.400 -0.0896 -0.1661  0.1348
23161W        W40009   6.922   4.880  14.048  0.1315 -0.1991  0.1505
23162W        W40010   9.276  11.817   3.014 -0.3931  0.0183 -0.0876
23163W        W40011  12.113   6.568  11.824  0.0625 -0.1165  0.0067
23164W        W40012  10.645  11.493  16.502 -0.0604  0.2069 -0.1095
23165W        W40013   0.711  10.491  12.558 -0.0952  0.0362 -0.3002
23166W        W40014  16.484  13.203   1.100 -0.0947 -0.1956  0.3292
23167W        W40015   8.569  14.983  14.661  0.1891  0.0588  0.0045
23168W        W40016   5.444   7.869   2.947 -0.1124  0.3353 -0.1259
23169W        W40017   1.001   3.758   3.295  0.0451  0.3403  0.2050
23170W        W40018  16.942  11.523   3.510  0.0198 -0.0223  0.0052
23171W        W40019   7.360   1.411  13.164 -0.0266 -0.1452 -0.0647
23172W        W40020  13.386  11.710   0.470  0.0596  0.3191  0.0813
23173W        W40021   1.667   2.149  12.361  0.1814  0.3667 -0.1582
23174W        W40022   2.498   4.907   1.952  0.3209 -0.0442 -0.1506
23175W        W40023   6.687   3.914  16.557 -0.0370  0.4486 -0.1423
23176W        W40024  11.597   2.445   4.747 -0.2624 -0.2231  0.0797
23177W        W40025  15.640   6.527  15.644 -0.0436 -0.3417  0.3044
23178W        W40026   4.712  14.635  16.422  0.1097 -0.1550  0.0506
23179W        W40027  14.548   2.236  16.259  0.1058 -0.2017  0.4315
23180W        W40028  12.633   3.116   4.368  0.1485 -0.1064 -0.0502
23181W        W40029   8.449   8.630   3.342  0.1756 -0.2045  0.1652
23182W        W40030  11.625   6.970  12.958 -0.1038 -0.1652  0.0769
23183W        W40031   6.349   6.516  15.935  0.0532  0.1060  0.0443
23184W        W40032  17.081   1.227  13.468  0.5150  0.1607 -0.1775
23185W        W40033  14.081   5.691  13.918 -0.1229  0.0379 -0.1011
23186W        W40034   6.381  16.078  15.380 -0.1309  0.0646  0.1438
23187W        W40035   5.462   0.981  13.123 -0.0008  0.4608  0.1279
23188W        W40036   0.474  10.182  13.354  0.1036 -0.1642 -0.0674
23189W        W40037   4.628  16.201   5.293  0.1555 -0.1045  0.1420
23190W        W40038   0.766   9.460   1.625 -0.0463  0.4054  0.2512
23191W        W40039   9.101  13.522  17.530 -0.3917 -0.3059 -0.3766
23192W        W40040  10.516   1.382  11.445 -0.2264  0.2618  0.0393
23193W        W40041   9.660  12.176   2.109  0.1960  0.1071  0.1170
23194W        W40042   2.172   1.914  15.193  0.0800 -0.0450 -0.0127
23195W        W40043   7.377   0.765   2.105  0.0439  0.0455  0.1459
23196W        W40044  13.297  12.950  16.711 -0.0448  0.2181  0.0837
23197W        W40045   2.317  16.238   6.167 -0.1618 -0.0746  0.2648
23198W        W40046  13.465   0.296   4.329 -0.0986 -0.1181 -0.0028
23199W        W40047   0.843   5.920   0.274  0.0027 -0.0012 -0.0743
23200W        W40048  12.346  11.130  13.680  0.1385 -0.3839  0.1936
23201W        W40049   2.650   3.853   0.944 -0.2344  0.2865  0.3705
23202W        W40050   1.478  10.797  17.758 -0.0042  0.2241  0.0192
23203W        W40051   6.670  17.055   3.591  0.3263 -0.0823 -0.1321
23204W        W40052   2.186   6.452   0.254  0.0695  0.1464 -0.1010
23205W        W40053   1.554  13.919   0.799  0.1299  0.1206 -0.0658
23206W        W40054   5.021  12.131  12.528  0.0578 -0.0025 -0.0671
23207W        W40055   3.299   1.335   0.422 -0.1091 -0.4034 -0.0502
23208W        W40056  13.476  12.049  15.241  0.1853 -0.1657 -0.0409
23209W        W40057   2.728   3.058   3.669  0.0633 -0.0203  0.0746
23210W        W40058   7.829   0.818  14.249  0.1545 -0.0033 -0.2383
23211W        W40059   3.576   0.818   0.503 -0.0374 -0.1293 -0.2054
23212W        W40060   6.899   6.901  15.566 -0.0330  0.1170 -0.0604
23213W        W40061   5.424   8.426  16.266  0.2713 -0.1221  0.1772
23214W        W40062  14.953  13.645   3.663  0.1437  0.0980  0.0994
23215W        W40063   4.057   8.268  14.900 -0.0569 -0.2804 -0.2921
23216W        W40064   2.374  14.524  16.828 -0.0916  0.1368 -0.1088
23217W        W40065   8.189   7.251  14.988  0.3591  0.1488  0.1179
23218W        W40066   8.965   4.738   3.254 -0.3068 -0.2340 -0.1401
23219W        W40067   5.419  12.452  14.073 -0.1744  0.0857  0.2852
23220W        W40068  13.868  13.202   3.539  0.1642 -0.3119  0.2320
23221W        W40069  14.509   0.130  12.558 -0.0382  0.0072  0.1481
23222W        W40070   9.976   7.262  14.987 -0.0905 -0.1828  0.1010
23223W        W40071   9.818   1.842   2.229 -0.1240 -0.0465 -0.0220
23224W        W40072   3.930   4.858   1.216 -0.0675 -0.1748  0.0265
23225W        W40073  11.610   9.949  17.744  0.1887  0.0540  0.3989
23226W        W40074   7.223  10.059  12.713  0.0357  0.0203 -0.2150
23227W        W40075  10.743  15.997   4.661 -0.3184 -0.0852  0.0221
23228W        W40076  16.253   0.383  17.230  0.0485  0.4095  0.0454
23229W        W40077   4.363  11.489  15.165 -0.0761  0.1045  0.0391
23230W        W40078   8.877   5.993   0.594  0.1286  0.2033 -0.0155
23231W        W40079   6.963   7.208  14.525  0.2564  0.0625 -0.1529
23232W        W40080  16.079   5.398  17.780 -0.0185  0.0779 -0.1533
23233W        W40081  15.242   8.294  12.190 -0.1059 -0.0633  0.2782
23234W        W40082  10.805  14.010  16.780 -0.0420 -0.2883  0.1690
23235W        W40083  10.364  12.919  13.815 -0.1398  0.2562 -0.1303
23236W        W40084  10.351  11.911  17.755  0.1816 -0.0460  0.1766
23237W        W40085   4.556  14.776  17.193 -0.0495  0.1005 -0.6608
23238W        W40086  16.928  16.891   2.558 -0.2940  0.1447  0.0166
23239W        W40087  12.464  11.090  17.415 -0.1156 -0.0770  0.0897
23240W        W40088  12.199  16.543   3.370  0.0620  0.0157 -0.0539
23241W        W40089   6.625   0.222   2.158 -0.3093 -0.1400 -0.2536
23242W        W40090   6.162  14.963  14.332  0.0706  0.0024  0.2330
23243W        W40091  15.379  12.194   5.498 -0.0731 -0.1380 -0.0697
23244W        W40092   9.458   8.806   2.820  0.0474  0.0633  0.0873
23245W        W40093   9.336   0.451   5.432 -0.2244 -0.0428  0.1059
23246W        W40094  15.355   3.574   3.439  0.0941  0.0198 -0.0100
23247W        W40095   0.680  13.989  15.022 -0.1322  0.0410 -0.1447
23248W        W40096   8.553   3.807  16.300 -0.2173  0.0386 -0.1110
23249W        W40097  15.393   9.840   4.134  0.1997 -0.0432  0.1111
23250W        W40098  15.643   3.200  15.217 -0.0415 -0.3706  0.0623
23251W        W40099   8.816   1.657   0.364  0.3191  0.3759  0.0602
23252W        W40100   7.480  14.716   0.551  0.2989  0.0316 -0.0521
23253W        W40101  14.410  16.258  15.121 -0.1258 -0.0237 -0.1111
23254W        W40102   3.405   0.849  14.954  0.4200 -0.1243  0.2760
23255W        W40103   7.072   8.397  13.565  0.1995 -0.0253 -0.2012
23256W        W40104   7.089   0.428   2.338  0.1092  0.0318 -0.1442
23257W        W40105   1.565   7.783  15.080  0.0218  0.0940 -0.2696
23258W        W40106   7.660  11.266  13.652  0.0830 -0.0304  0.0612
23259W        W40107   5.805   7.880   2.458  0.0326 -0.1031  0.0461
23260W        W40108   2.527  11.873   0.241  0.1165  0.0670  0.2274
23261W        W40109   9.159   0.313   2.608  0.0706  0.2120  0.1054
23262W        W40110   5.225   8.171   1.108 -0.4399  0.0677  0.1608
23263W        W40111   7.202   2.722   5.373  0.0482 -0.0161  0.1697
23264W        W40112   6.421  16.380   4.131 -0.2542 -0.1726  0.2660
23265W        W40113   9.538   0.681  15.707  0.5304 -0.1636 -0.1740
23266W        W40114   9.263   4.696  17.432 -0.0591 -0.0358  0.2682
23267W        W40115   0.128  14.233  12.921  0.1186 -0.1024 -0.1787
23268W        W40116   7.848  14.513   0.883 -0.0620  0.0386 -0.0833
23269W        W40117  11.494   0.866   4.939  0.1015 -0.2163  0.1921
23270W        W40118   1.020  12.483   1.327  0.1893  0.3296  0.2477
23271W        W40119  14.436   7.579   2.434 -0.0951 -0.0930  0.0931
23272W        W40120   4.281   3.264  12.605 -0.0224  0.1663 -0.1200
23273W        W40121   1.933   4.077  14.960  0.0830 -0.1665 -0.1759
23274W        W40122  11.082  14.385  12.809  0.0048  0.0749 -0.2607
23275W        W40123   4.825  15.650  13.810 -0.1017 -0.0695  0.0053
23276W        W40124   7.565   8.975  13.687 -0.0576  0.2856 -0.0201
23277W        W40125  14.776  16.405   2.193 -0.1960  0.1244  0.2893
23278W        W40126   9.203   6.918  17.288 -0.1004  0.0999  0.0109
23279W        W40127  11.957  10.864  17.251  0.3791 -0.1955  0.2486
23280W        W40128   7.168   8.895   1.838  0.0729 -0.0061  0.2962
23281W        W40129   9.071   6.864  13.789 -0.1224 -0.1402  0.1454
23282W        W40130  15.560  13.853   5.412  0.0368 -0.2231  0.0910
23283W        W40131   7.212   0.541   3.946  0.1485  0.1601  0.0541
23284W        W40132   6.387  11.385   2.876 -0.1782  0.3686  0.1074
23285W        W40133   9.250   3.738  14.564  0.0755  0.0722  0.0244
23286W        W40134   6.723   3.950  14.867 -0.0895  0.2547  0.0802
23287W        W40135  11.917  11.760   4.272  0.3821 -0.2608  0.1499
23288W        W40136   0.216  11.858  12.517  0.0643 -0.0253 -0.0773
23289W        W40137   6.904   9.437   5.588 -0.0238  0.3284 -0.2210
23290W        W40138   4.740   3.295  16.928  0.5128  0.2862 -0.0004
23291W        W40139  16.172   5.032   1.858 -0.1315  0.0970 -0.1026
23292W        W40140   8.954   3.750  15.981  0.0915  0.0469  0.0562
23293W        W40141   5.670   9.173   3.665  0.1231 -0.0968  0.0419
23294W        W40142  16.708   6.555  17.162  0.0085 -0.2241  0.0082
23295W        W40143   2.425  10.313   5.282 -0.3320  0.1027  0.1325
23296W        W40144  11.451   2.730   6.284 -0.0691 -0.0748 -0.0521
23297W        W40145   7.235   1.453   2.417 -0.0344  0.3147  0.3899
23298W        W40146   1.774   9.400  14.488  0.0585 -0.0870  0.2237
23299W        W40147   2.354   3.704   3.167  0.1095 -0.1372 -0.0707
23300W        W40148  10.663   0.785   1.067  0.0968 -0.2222  0.0550
23301W        W40149   7.459   0.444   5.382  0.1674  0.0871 -0.1482
23302W        W40150   2.504   8.604   4.936  0.1272  0.0123  0.3125
23303W        W40151   4.721   3.550   2.023  0.1697  0.0290  0.0600
23304W        W40152   2.612  16.537  13.175  0.1451 -0.1808 -0.0590
23305W        W40153   6.986   7.758  12.853  0.3361 -0.0434 -0.2015
23306W        W40154  11.408   8.307  13.820 -0.0422  0.1033  0.2274
23307W        W40155   9.408  16.146   0.947  0.3068  0.1993  0.2119
23308W        W40156   4.472   8.375   3.097  0.0177 -0.1274  0.1997
23309W        W40157   5.823   6.567   0.441 -0.0669  0.3946 -0.1671
23310W        W40158   6.582   3.254   2.257  0.0743 -0.0994  0.0377
23311W        W40159   7.072   7.527   4.447 -0.2089 -0.3313  0.0263
23312W        W40160  11.134  11.864  13.351 -0.0121 -0.1517 -0.0610
23313W        W40161   9.973   6.773  12.762 -0.1334  0.0097  0.0091
23314W        W40162   1.130   3.640   4.996  0.0927  0.1783  0.1822
23315W        W40163   8.811   9.624   4.046  0.0821  0.0865  0.2247
23316W        W40164  12.314   3.502   2.088 -0.2703 -0.1750  0.1034
23317W        W40165  10.888   4.744   1.541 -0.2665  0.2643 -0.3727
23318W        W40166  10.127   3.313  16.826  0.0012 -0.0651  0.0404
23319W        W40167  12.399   7.325  16.686  0.1673 -0.0414  0.3026
23320W        W40168   5.760   2.713  17.354 -0.2212 -0.1850  0.1298
23321W        W40169  15.276  15.098  17.019 -0.1543 -0.1748  0.3232
23322W        W40170  13.147  10.432   4.448  0.0475 -0.0796  0.1570
23323W        W40171   5.420   7.409  12.959  0.0534 -0.1799 -0.0513
23324W        W40172   9.978   5.193  17.750 -0.1624  0.0551 -0.2252
23325W        W40173  10.741   6.479  16.377 -0.1011  0.2631 -0.0399
23326W        W40174   9.317   4.527   4.369 -0.2978 -0.1212  0.0076
23327W        W40175   0.066   7.250  15.508  0.2719  0.0290 -0.2464
23328W        W40176  11.154   3.995  11.511 -0.2382 -0.2301  0.1273
23329W        W40177  11.708  10.142  16.210 -0.1791 -0.1262  0.1821
23330W        W40178  13.194  11.797   2.377  0.0541  0.0789 -0.1719
23331W        W40179  15.747  12.785   2.669 -0.0834  0.4633 -0.1371
23332W        W40180   8.273   4.489  17.206 -0.1957  0.1634 -0.1541
23333W        W40181   9.793  16.359   4.402 -0.1767 -0.1255 -0.0356
23334W        W40182  10.451  10.156   1.632  0.0117  0.0937  0.3670
23335W        W40183  17.000   5.987   4.234  0.1039 -0.0197 -0.0983
23336W        W40184   9.835   1.263  17.012 -0.1802  0.0118  0.1925
23337W        W40185   2.140   4.123  13.538 -0.0940  0.0006 -0.0613
23338W        W40186   6.311   7.275   5.127  0.2691  0.1938  0.0834
23339W        W40187  14.494   6.493   2.573  0.1410  0.1748  0.0552
23340W        W40188   1.634   2.372   0.278 -0.1340  0.0327  0.1020
23341W        W40189   1.058   0.660  12.777 -0.0859 -0.0606  0.0441
23342W        W40190  14.632  11.387   0.296 -0.1273  0.0407  0.2435
23343W        W40191  12.966   9.089   1.865 -0.2546  0.4695 -0.2319
23344W        W40192  11.987   0.239  12.483 -0.2888 -0.1057 -0.1836
23345W        W40193   6.748   1.074   2.712  0.0350  0.0749  0.3349
23346W        W40194  11.558  13.212  14.110 -0.1675  0.0925  0.3847
23347W        W40195  10.140  12.879   0.138 -0.3687 -0.1382  0.0924
23348W        W40196   4.610  11.780  16.050  0.0897  0.1576 -0.3117
23349W        W40197   6.613  12.951  12.517 -0.2956  0.1116  0.1174
23350W        W40198   4.111   3.864   5.800  0.3430 -0.1446  0.0272
23351W        W40199  11.946  13.163   5.093 -0.1664  0.4201 -0.0157
23352W        W40200  14.378   0.403  14.899 -0.0025  0.1746 -0.0241
23353W        W40201  10.145   5.211   4.841  0.1967 -0.1591 -0.0749
23354W        W40202   8.893   5.923  11.228 -0.0815  0.0590 -0.0149
23355W        W40203   6.793   9.231   1.918  0.3006 -0.1022  0.0349
23356W        W40204  17.138   6.649   5.587 -0.0626  0.2758  0.1144
23357W        W40205   7.025  10.923   0.661 -0.1526  0.0277  0.0167
23358W        W40206   4.802   7.430  14.203  0.2479  0.0505  0.3046
23359W        W40207   8.639   1.637   3.233 -0.0195  0.1114 -0.0186
23360W        W40208   1.576   8.567   5.376 -0.2577  0.2133 -0.2760
23361W        W40209  11.725  14.695  17.467  0.2435 -0.0095 -0.0114
23362W        W40210  10.326   8.237  16.757 -0.1471  0.2327 -0.1039
23363W        W40211   9.922   2.141  15.064 -0.2988  0.0778 -0.0503
23364W        W40212  12.704  12.930   4.610  0.2499 -0.1562  0.0730
23365W        W40213   6.428   4.914  13.326 -0.1518 -0.1560  0.0709
23366W        W40214   9.126  13.679   5.113  0.2054  0.0456 -0.0190
23367W        W40215  14.670   5.002   5.616 -0.2126 -0.1117 -0.1003
23368W        W40216   3.332  12.375   1.024 -0.2397  0.1560 -0.2432
23369W        W40217  11.198   6.073   1.373 -0.0856  0.0304 -0.2198
23370W        W40218   7.399   3.170  15.555 -0.0831 -0.0043 -0.1796
23371W        W40219  10.862   3.405   1.951 -0.1922  0.0896  0.1035
23372W        W40220   6.589  10.793   0.811 -0.3772 -0.0978  0.1673
23373W        W40221  15.054  12.377   1.771 -0.1719 -0.1980 -0.1745
23374W        W40222   1.699  11.392  13.398  0.0348 -0.2243 -0.0203
23375W        W40223   9.859   9.890  12.807 -0.0243  0.0512  0.0072
23376W        W40224   2.097  16.357  16.615 -0.0526 -0.0469  0.2163
23377W        W40225  11.450   7.242   4.038 -0.0319 -0.0599 -0.2221
23378W        W40226   1.570   3.933  15.803  0.0844 -0.0229 -0.0138
23379W        W40227   8.961   3.258  13.981  0.2320 -0.1328 -0.1179
23380W        W40228   0.789   7.606  13.460 -0.1920 -0.0575 -0.1405
23381W        W40229  16.256  10.225  16.832 -0.1620  0.2706 -0.2630
23382W        W40230  12.532   1.671   2.753  0.0035  0.3146 -0.1809
23383W        W40231   6.375   5.476   0.672  0.1133 -0.0110 -0.2176
23384W        W40232   1.183   9.490   6.010  0.4436 -0.2526  0.1965
23385W        W40233   8.487   0.379  12.219 -0.1238 -0.1944 -0.0545
23386W        W40234  14.114   4.267   3.850  0.2538  0.1490 -0.2891
23387W        W40235  15.546  14.915   4.715 -0.1751 -0.2869  0.2663
23388W        W40236   5.443   5.584   0.690 -0.0679 -0.2195 -0.2197
23389W        W40237  13.136   1.202   6.378 -0.1999 -0.3157  0.3124
23390W        W40238  13.032   5.572   5.331 -0.1776 -0.0005 -0.0978
23391W        W40239   0.426   0.662  13.338  0.0357  0.1808 -0.2950
23392W        W40240   0.885   2.834  12.579  0.3858 -0.1816 -0.0491
23393W        W40241  11.499  13.326   3.874  0.0132  0.1382 -0.0706
23394W        W40242   4.160   2.341   4.633  0.1253  0.0646  0.0380
23395W        W40243   5.624   8.231   2.087  0.1004  0.1127  0.0793
23396W        W40244   1.376  11.867   0.634  0.0646 -0.0828  0.1640
23397W        W40245   6.448   9.664  12.338  0.0274  0.3294  0.1047
23398W        W40246   1.693  16.572   1.230 -0.1213  0.0256 -0.0847
23399W        W40247   2.104  12.410   0.120 -0.0018 -0.1422  0.0331
23400W        W40248   1.345  15.592  15.639 -0.1341 -0.1446  0.0815
23401W        W40249   9.396   1.263  15.074  0.2273 -0.3349  0.2100
23402W        W40250  17.039  17.118   4.656  0.1175 -0.2243 -0.1585
23403W        W40251   3.583   7.007   4.637 -0.2723  0.2753 -0.1018
23404W        W40252  13.519   2.460  16.615  0.2084  0.1441  0.1441
23405W        W40253   3.063  15.507   0.931  0.3219 -0.1350  0.0041
23406W        W40254  14.754   4.873  14.555  0.0386 -0.2461 -0.2180
23407W        W40255   8.864  14.089  17.312 -0.1971  0.0110  0.0154
23408W        W40256  14.402   8.806  13.233 -0.1010 -0.0127 -0.1629
23409W        W40257  16.618  11.755   0.857  0.4952  0.3203  0.2440
23410W        W40258   2.548   4.849   0.103 -0.3994  0.1416 -0.0537
23411W        W40259   1.705   6.659   0.289 -0.1363 -0.3573 -0.1083
23412W        W40260  12.221  13.840  15.716 -0.2541  0.1947  0.0626
23413W        W40261   0.225   0.551   5.005 -0.3156  0.3512  0.1947
23414W        W40262   3.269   6.496   2.176  0.1412 -0.2093  0.0365
23415W        W40263   5.587  12.350  13.596 -0.3320 -0.0662 -0.1187
23416W        W40264  16.289   9.304   3.461 -0.0166  0.1243  0.0251
23417W        W40265   7.577   3.134   6.346  0.2100 -0.2191  0.0146
23418W        W40266   0.049  13.461   5.271  0.0118 -0.2043  0.0767
23419W        W40267   3.180  14.564   3.284  0.0194 -0.0792 -0.0414
23420W        W40268   6.590   7.870  15.564  0.0198  0.2644  0.2812
23421W        W40269  14.915   5.744  13.582 -0.1374 -0.0374  0.0433
23422W        W40270   4.757   6.566   5.678  0.2803  0.1713  0.1671
23423W        W40271  15.330  13.400   1.699  0.0424  0.0843  0.0323
23424W        W40272   7.390  15.535  13.428 -0.1701 -0.2806 -0.2483
23425W        W40273  11.401   7.131  17.755 -0.1301  0.2600 -0.2276
23426W        W40274   8.939   0.938   0.734 -0.1747 -0.0142 -0.0369
23427W        W40275  13.035   5.769   0.032 -0.1382  0.0405  0.0252
23428W        W40276   0.809   8.319   3.620 -0.1446  0.2546  0.2944
23429W        W40277   8.149  11.051  14.940 -0.2219  0.0307 -0.1964
23430W        W40278   8.571  16.485   1.078  0.0869 -0.0874  0.2571
23431W        W40279   9.075  15.828  12.263  0.1484  0.1197  0.0971
23432W        W40280  16.339   0.776  14.128 -0.3263 -0.1115  0.1366
23433W        W40281   9.686  16.830  16.102 -0.0676 -0.0639  0.1202
23434W        W40282   7.083   4.385   3.909  0.2814 -0.1293  0.7629
23435W        W40283  13.193   8.143   3.841 -0.0373  0.1370 -0.1248
23436W        W40284   2.366   1.163   3.217  0.0752 -0.0683 -0.2153
23437W        W40285   7.198  14.316  13.616 -0.1983  0.0569 -0.0455
23438W        W40286   4.234   0.944  12.314  0.1118  0.1238 -0.1456
23439W        W40287   4.163   1.759  14.015  0.0289 -0.0255 -0.0162
23440W        W40288   7.289   8.042  11.970  0.1003 -0.0990  0.0012
23441W        W40289  12.101  12.914  15.663 -0.0764 -0.0041 -0.2004
23442W        W40290   1.736   1.558   3.694 -0.2319  0.1180 -0.1346
23443W        W40291  15.952   1.918   2.798  0.1210 -0.2543 -0.1542
23444W        W40292   5.000  11.641   5.094 -0.0462 -0.1562  0.3212
23445W        W40293   4.812   5.581   0.516 -0.2629  0.0590 -0.1919
23446W        W40294  14.789   2.077   0.656  0.1534  0.0322 -0.0586
23447W        W40295   6.298  16.542   2.455 -0.0585 -0.1498  0.0331
23448W        W40296   1.008   9.889  12.008 -0.1295  0.0538  0.0970
23449W        W40297   0.635   2.432  13.844 -0.0503  0.0424  0.2338
23450W        W40298   4.297  14.447   1.658 -0.1036 -0.3257  0.0358
23451W        W40299  11.041  13.305   3.082  0.1227  0.1260  0.0302
23452W        W40300   3.828   3.967  16.831  0.2308 -0.0545 -0.0564
23453W        W40301   2.992   3.462   1.172  0.4467 -0.2830 -0.0333
23454W        W40302   2.403   3.948  13.053  0.2142  0.3068 -0.0510
23455W        W40303   7.674  13.168   3.787 -0.1519  0.1860  0.0924
23456W        W40304   8.007   7.207   2.871 -0.1529 -0.2314  0.2380
23457W        W40305   7.099  10.487  13.490 -0.1989  0.0624  0.3329
23458W        W40306  15.857   7.252   4.106 -0.1589  0.3861  0.1005
23459W        W40307   4.057  12.096   3.664 -0.1853  0.2042  0.2690
23460W        W40308   0.791   6.209  16.802  0.3604  0.0525  0.1879
23461W        W40309   6.705  16.729   1.144  0.0029 -0.1367  0.1000
23462W        W40310   8.952  10.305   3.408  0.0334  0.0512 -0.0353
23463W        W40311   1.638  14.609  13.293 -0.2844  0.0373 -0.1404
23464W        W40312   5.002  14.993  13.698  0.1368 -0.0170 -0.2199
23465W        W40313   9.809  14.917  15.193  0.2278  0.2298  0.2418
23466W        W40314   5.742   7.465  16.409 -0.0863 -0.0921 -0.4504
23467W        W40315   2.820  11.536  15.363 -0.0952  0.1265  0.0505
23468W        W40316  14.493  14.846  13.253 -0.2804  0.0782 -0.0247
23469W        W40317   9.090   0.628   1.984 -0.2619  0.2860  0.3457
23470W        W40318   4.925   6.403   0.279  0.0205 -0.2015  0.0390
23471W        W40319  14.215   2.331  17.697 -0.1089 -0.0105 -0.2922
23472W        W40320  13.230   8.853   2.637  0.2765 -0.0072  0.2539
23473W        W40321  11.794  13.700  12.881 -0.1441 -0.3604  0.1875
23474W        W40322   8.830  10.644   2.182  0.1746 -0.0996  0.2017
23475W        W40323   8.786   9.023   1.463 -0.1027  0.2953  0.1728
23476W        W40324  11.714   4.543  12.220  0.0712 -0.1256 -0.0001
23477W        W40325  13.258  11.889  14.095 -0.0989  0.0343  0.2731
23478W        W40326   4.528   9.174  13.791 -0.0764  0.2878  0.1831
23479W        W40327  16.306  14.372   5.838 -0.1895 -0.2458 -0.0884
23480W        W40328  13.539  10.726  14.435 -0.0500  0.2735  0.1421
23481W        W40329   7.749   5.577  15.280 -0.1667 -0.0315  0.1774
23482W        W40330  15.297   8.921   2.593  0.3770  0.1199 -0.1461
23483W        W40331   2.323   1.650   2.844  0.0059  0.0848  0.0414
23484W        W40332   2.346   9.324   4.636 -0.0759 -0.0683 -0.1495
23485W        W40333  11.595  16.025   0.949 -0.0439  0.3114  0.3297
23486W        W40334   7.185   4.798  14.667  0.0216 -0.4922 -0.0622
23487W        W40335   3.758   3.695  17.308  0.1717 -0.1899 -0.0202
23488W        W40336  10.485   3.528  14.421  0.1902 -0.2297  0.2607
23489W        W40337   4.355   2.029   2.953  0.1721  0.1336  0.1069
23490W        W40338   8.086   2.675   2.425 -0.0327  0.2982 -0.0649
23491W        W40339   6.240   8.997   3.602  0.0585 -0.0139 -0.2396
23492W        W40340   6.699   9.341  15.683  0.0906  0.2467 -0.1167
23493W        W40341  13.414   5.624   4.086  0.2988 -0.4272 -0.1715
23494W        W40342   2.808   0.608   5.527 -0.1451  0.0397  0.4281
23495W        W40343  14.162   0.803  15.197 -0.1411  0.0709 -0.2434
23496W        W40344  11.549   6.910  16.326 -0.1292 -0.4529  0.2771
23497W        W40345  15.724  15.344  15.829 -0.0789  0.2333  0.0825
23498W        W40346   3.446   4.173   6.672 -0.0466  0.0867  0.2208
23499W        W40347   0.367   9.641  13.151 -0.1835  0.1075  0.2129
23500W        W40348   8.800  12.967   0.321 -0.1410 -0.1041 -0.2477
23501W        W40349   0.687  11.220   3.348  0.0060  0.0731  0.1434
23502W        W40350   5.234  11.922  16.447  0.0141  0.1310 -0.2584
23503W        W40351   2.133   1.766   3.939 -0.2823 -0.3621 -0.1529
23504W        W40352  12.212   3.901  12.656 -0.0201  0.0204 -0.0684
23505W        W40353  12.874   3.877  16.748  0.2761  0.1220 -0.1080
23506W        W40354  13.308   8.065   3.204 -0.3021 -0.1185  0.2329
23507W        W40355  15.055   5.647  14.852  0.0709  0.0458 -0.0854
23508W        W40356   1.915   1.196  16.729  0.0755  0.3850 -0.0923
23509W        W40357   1.312   2.945   5.551  0.0781 -0.1683 -0.0220
23510W        W40358  16.235   2.410  16.013  0.1735  0.1538 -0.2272
23511W        W40359  10.283   0.520  15.161 -0.1859  0.3631 -0.2565
23512W        W40360   0.124  14.775  13.965  0.1406 -0.1163 -0.0546
23513W        W40361  12.549  12.148   5.241  0.2191  0.2739  0.1217
23514W        W40362  11.380  12.085  16.137  0.2761  0.0007  0.1004
23515W        W40363  10.814   0.853  13.425 -0.1272 -0.2850 -0.3296
23516W        W40364  11.580  10.184  14.902  0.2622  0.3440 -0.0011
23517W        W40365   6.840  14.894   2.715 -0.1900 -0.0306 -0.0970
23518W        W40366   2.541   6.813   4.652 -0.2806 -0.2758  0.0230
23519W        W40367  10.025  14.311   1.882 -0.0754  0.2280 -0.2418
23520W        W40368   1.257   5.253  15.869  0.0371  0.2733  0.0698
23521W        W40369   9.549   6.694   1.254 -0.0118  0.0376  0.2981
23522W        W40370   0.711  12.699   6.257 -0.0085  0.1510  0.0715
23523W        W40371   4.145   7.454   6.587  0.1063  0.1893 -0.0663
23524W        W40372  12.782   3.892   0.212 -0.1640 -0.0208  0.2409
23525W        W40373   1.100   2.320  15.057  0.3032  0.0481 -0.0906
23526W        W40374  16.771   7.080  15.596  0.0161  0.1360  0.0574
23527W        W40375   0.032   9.278  15.701  0.1256  0.0256 -0.0468
23528W        W40376   3.139  14.393   5.049  0.1710  0.1915 -0.0628
23529W        W40377   6.055  13.415   2.875  0.2387 -0.1090 -0.1899
23530W        W40378   5.757   9.548  14.675 -0.0474 -0.1001 -0.2065
23531W        W40379   8.466  16.597  12.436  0.2019  0.1024  0.1162
23532W        W40380  15.095   4.447  14.344  0.1298 -0.2237 -0.1437
23533W        W40381   1.992  11.454  17.494  0.0660 -0.1374 -0.4321
23534W        W40382  13.093   3.087  16.335 -0.0742 -0.0195 -0.0038
23535W        W40383   7.090   8.629   1.439 -0.0877 -0.0125  0.1021
23536W        W40384   1.696  16.666   0.756  0.1059 -0.0489 -0.0759
23537W        W40385   3.593   7.902  13.453  0.1143 -0.0021 -0.0036
23538W        W40386  11.894  16.543   1.142  0.1266  0.1944  0.2116
23539W        W40387  13.822   9.016  17.003  0.3370  0.3069  0.0606
23540W        W40388  14.558   2.125   2.477 -0.4043  0.2047  0.3234
23541W        W40389   3.808   0.949  17.341 -0.1428 -0.1922  0.0374
23542W        W40390  10.019   4.955  13.399 -0.1354 -0.0320  0.0047
23543W        W40391  10.804  10.428  16.243 -0.0814  0.0514  0.0099
23544W        W40392   3.835   6.669  17.467  0.1410 -0.0188  0.2880
23545W        W40393   7.969  13.908   4.322  0.2002 -0.1274  0.0052
23546W        W40394  14.888  14.776   4.394 -0.4011  0.1158 -0.0096
23547W        W40395  11.722  10.715   5.098  0.2169 -0.2248  0.0862
23548W        W40396   2.700  11.175   0.899  0.1593 -0.3124 -0.0675
23549W        W40397   3.348   5.584   1.107 -0.0750 -0.1129 -0.0287
23550W        W40398  12.707   1.892   4.366  0.1395 -0.0342 -0.0630
23551W        W40399  12.258  13.871  12.561 -0.0634  0.0137  0.1914
23552W        W40400   2.139   2.151  14.205  0.0484  0.5468  0.1022
23553W        W40401  11.567   5.328  16.581 -0.1751 -0.0328  0.1320
23554W        W40402  15.690  16.367   4.872  0.0738 -0.1406 -0.2653
23555W        W40403  15.181   5.089  12.973  0.0577 -0.1682  0.0574
23556W        W40404  10.779   3.636  11.694 -0.1672  0.0379 -0.0541
23557W        W40405  16.275   2.671  17.353 -0.0317  0.1410  0.1519
23558W        W40406  11.537   2.457  16.367 -0.1662  0.0106  0.0059
23559W        W40407  12.192   9.733  15.660 -0.0794 -0.1188  0.2942
23560W        W40408   4.126   7.425  15.230 -0.0891 -0.0655 -0.2980
23561W        W40409  11.142   2.951   1.996 -0.0570  0.3241  0.1240
23562W        W40410  11.388  13.495  13.121 -0.3555 -0.0370  0.1847
23563W        W40411   0.294  16.260  14.315 -0.1404 -0.0048 -0.2326
23564W        W40412  10.118   0.831  12.440  0.1787  0.0593 -0.2612
23565W        W40413   0.772  16.024   2.082 -0.2445 -0.1010 -0.2144
23566W        W40414  12.641  12.197  15.962 -0.0501 -0.1752 -0.3729
23567W        W40415   3.318   5.143   4.542 -0.0762  0.0306 -0.1438
23568W        W40416   2.935   2.950   2.942  0.3034  0.0995  0.2182
23569W        W40417   5.786   8.465  13.902  0.3903 -0.0115  0.0571
23570W        W40418  13.825   9.897   3.509 -0.0795 -0.0516  0.0131
23571W        W40419   1.968   4.807   3.284 -0.2318  0.0846  0.4711
23572W        W40420  14.423  15.544   5.495 -0.0092 -0.2686 -0.4118
23573W        W40421   5.090  10.133   5.575 -0.0516 -0.1739  0.0130
23574W        W40422   5.766  12.824  12.081  0.0645 -0.0177  0.0284
23575W        W40423   0.956   6.910   3.850  0.2385  0.1073  0.0487
23576W        W40424   8.051   3.777  12.093  0.2304  0.3117 -0.1299
23577W        W40425  10.160  10.509   0.013 -0.1143  0.0042  0.3061
23578W        W40426   7.462  11.919   3.582  0.1649  0.0526 -0.0652
23579W        W40427  11.541  16.140  17.242 -0.0040 -0.4244 -0.2392
23580W        W40428  12.420   2.161   3.369 -0.1427 -0.0152 -0.0792
23581W        W40429  12.774  14.177   2.971  0.0509 -0.2067  0.1044
23582W        W40430   0.566  11.988  12.844  0.4301  0.0015  0.0986
23583W        W40431  10.896   2.131  14.995 -0.0778 -0.0855 -0.3571
23584W        W40432  15.733  10.098   4.509 -0.0990 -0.1296  0.0093
23585W        W40433   1.131   6.039   2.328  0.1685 -0.1126  0.2006
23586W        W40434   5.931   5.026  11.216 -0.0239  0.1783 -0.0464
23587W        W40435   6.391   8.482  17.520  0.0413  0.1523  0.1844
23588W        W40436  10.224   0.754   4.944  0.4213 -0.0358 -0.3178
23589W        W40437  13.315  14.864   4.212  0.2910  0.1250  0.0081
23590W        W40438   0.468   1.368   2.144  0.1247 -0.2883 -0.1296
23591W        W40439  12.129  12.437  14.588  0.0153  0.1278 -0.0029
23592W        W40440  14.900   1.824  17.096  0.1519 -0.2225 -0.1767
23593W        W40441  11.341  15.311  16.995 -0.3690  0.1230 -0.1582
23594W        W40442   8.244  16.261   2.663 -0.1314  0.0630  0.2058
23595W        W40443  15.221   2.882   1.904  0.1096  0.3071 -0.1512
23596W        W40444  13.015   2.664   0.428 -0.0905 -0.2393 -0.0620
23597W        W40445   3.653  10.586   4.347 -0.0555  0.2823  0.1549
23598W        W40446   7.377   1.922   3.929  0.2356  0.4136  0.1038
23599W        W40447   0.964   7.907   2.756  0.4586 -0.0839 -0.1078
23600W        W40448   9.936   3.140   1.845  0.1799  0.1025  0.2904
23601W        W40449   8.959   2.320   4.550 -0.0530 -0.3335  0.1803
23602W        W40450   3.242  16.736  15.908  0.0510  0.0221 -0.2829
23603W        W40451   1.626  17.155   5.776  0.2034  0.1393  0.1500
23604W        W40452   6.132  10.154  14.428  0.0081 -0.3141 -0.1369
23605W        W40453   5.376   9.105  12.891 -0.0398  0.5217  0.1295
23606W        W40454   2.582   6.774   2.804 -0.1045  0.0203  0.2065
23607W        W40455  14.817   3.735  15.804 -0.0546 -0.2290  0.2540
23608W        W40456   7.722  10.020  16.038 -0.0528  0.1052 -0.2370
23609W        W40457   8.002   8.975   2.112 -0.1998 -0.1246  0.2022
23610W        W40458   6.909   4.778   3.575 -0.2847  0.1780 -0.0065
23611W        W40459  12.278   5.866  17.062 -0.0909  0.3671  0.1329
23612W        W40460  14.202   9.866  16.849  0.0614 -0.2420 -0.0365
23613W        W40461   0.780  13.997   5.997 -0.1202  0.0254  0.2317
23614W        W40462   5.354  12.347   6.266 -0.3689 -0.6976 -0.1461
23615W        W40463   5.688  14.436  13.814  0.0617  0.0705  0.0579
23616W        W40464   2.740   4.528  17.534  0.0609  0.2384  0.1297
23617W        W40465   9.925  14.277   3.626 -0.3219 -0.0978 -0.1283
23618W        W40466  14.647  13.982   0.972 -0.0506 -0.0659  0.2521
23619W        W40467   5.259   6.908   5.488 -0.0656  0.2067  0.0932
23620W        W40468  16.827   9.577   2.742 -0.1045  0.1396  0.2533
23621W        W40469  14.759  14.318  16.676  0.0337  0.3314  0.0909
23622W        W40470   3.524   7.189   2.921 -0.0824 -0.1167 -0.1076
23623W        W40471  12.697   3.058  15.535  0.0775  0.1040 -0.0230
23624W        W40472   1.954  11.101  16.529 -0.0901  0.1792 -0.0161
23625W        W40473   7.970  17.089   1.481  0.2365  0.2226 -0.0737
23626W        W40474   5.276  13.345   2.225 -0.4657  0.0943 -0.0419
23627W        W40475  10.822   6.868  17.143  0.1048 -0.0042  0.1114
23628W        W40476   4.670  12.832  17.634  0.1807  0.1213 -0.0042
23629W        W40477   1.887   6.945   1.037  0.2015 -0.0908 -0.0970
23630W        W40478   1.628   0.414  15.185  0.2488  0.2568 -0.3066
23631W        W40479   3.255  13.375  13.478  0.0976 -0.0283  0.0974
23632W        W40480   9.144  10.007  17.334 -0.1118  0.0250  0.0510
23633W        W40481   8.933  12.029   0.710  0.0628  0.1017  0.2216
23634W        W40482   5.012   8.215  14.628 -0.2441 -0.0235 -0.0509
23635W        W40483   2.449  13.093   6.855  0.0850 -0.0852  0.0085
23636W        W40484   3.916  12.471   0.879 -0.1887  0.0999  0.1300
23637W        W40485   4.278   8.476  15.375  0.2227 -0.2411 -0.2257
23638W        W40486   6.773   5.155  15.568  0.1379  0.1389  0.2453
23639W        W40487  11.339   0.088   3.546  0.0767 -0.1335  0.0197
23640W        W40488  15.653  13.276  15.848  0.1254  0.1745  0.1759
23641W        W40489  13.695  15.839   1.233 -0.5150  0.1553  0.6024
23642W        W40490   7.473   8.802   4.964  0.2225 -0.0172  0.0346
23643W        W40491  13.336  16.118  13.567 -0.1472 -0.0759  0.2326
23644W        W40492   8.913   0.189   5.127  0.2353 -0.1569 -0.0263
23645W        W40493  11.865   9.401  15.894  0.1306  0.1772 -0.1751
23646W        W40494   1.151  11.284  17.742 -0.3830 -0.1599 -0.1734
23647W        W40495  12.123   5.393   1.927  0.0461 -0.0376 -0.1498
23648W        W40496   3.528   6.994  17.242  0.0353  0.0008  0.1762
23649W        W40497   9.451   7.806   5.275  0.0990 -0.0450 -0.2476
23650W        W40498  11.401   1.467  13.098 -0.0876  0.0845  0.0186
23651W        W40499  17.083   6.772  15.895  0.1968  0.2888  0.3704
23652W        W40500  10.959   1.331   0.673  0.1192 -0.0486  0.0057
23653W        W40501  11.503   1.392   2.651 -0.2327 -0.1649  0.1191
23654W        W40502   2.386   7.377   4.110 -0.2345  0.1267  0.0829
23655W        W40503   6.375  13.724   3.785  0.1831 -0.0802 -0.1206
23656W        W40504  13.196  17.081   4.627 -0.0238  0.0468  0.0011
23657W        W40505   5.905   0.425   1.454  0.0842 -0.0702 -0.1159
23658W        W40506  13.734   6.345  13.490 -0.0018 -0.0495  0.5582
23659W        W40507  13.979  16.416   3.515 -0.2052  0.1651  0.1071
23660W        W40508  15.197   2.637   3.253 -0.2560  0.0907 -0.2040
23661W        W40509  17.166  13.181   2.550 -0.0191 -0.0796 -0.2241
23662W        W40510   4.209   0.481   0.808 -0.2055 -0.0268  0.2642
23663W        W40511  11.496   6.916   2.327  0.0384  0.1483 -0.0609
23664W        W40512   7.355   5.963  12.195  0.1191  0.0538 -0.0446
23665W        W40513   3.937  14.291  17.780 -0.1044  0.3284  0.3509
23666W        W40514  11.731   9.114   4.155  0.1130  0.0449 -0.0262
23667W        W40515  14.303  12.446  17.662 -0.2222  0.0199 -0.1779
23668W        W40516   7.717  14.082  11.749  0.3731 -0.1483  0.0387
23669W        W40517  14.173   2.089   2.168  0.2061  0.1642 -0.1682
23670W        W40518   8.370  13.204  16.153 -0.1981  0.2120  0.4863
23671W        W40519   6.036   4.591   5.128  0.1641  0.0247 -0.0005
23672W        W40520  16.261  14.250  12.816  0.1975  0.1448  0.3554
23673W        W40521  16.522   1.930  15.489 -0.0738 -0.1644  0.0682
23674W        W40522   0.511  12.454  12.989  0.2836 -0.1772  0.1157
23675W        W40523   9.600   1.343  16.571 -0.0061  0.3201  0.1137
23676W        W40524   7.502  10.135   2.574 -0.2640 -0.0264 -0.0931
23677W        W40525  12.093   4.372  12.587 -0.0977 -0.2885 -0.0935
23678W        W40526   3.958  16.095  16.257  0.2200 -0.0546 -0.1633
23679W        W40527  14.431   0.332   1.575 -0.0560  0.2003 -0.4049
23680W        W40528   5.230   2.246   5.582 -0.2885  0.2324  0.3329
23681W        W40529   5.441   7.713   4.334 -0.0122 -0.3036 -0.1989
23682W        W40530  11.195   0.038  12.318  0.0447  0.0541 -0.3918
23683W        W40531  16.483   0.608  15.784  0.0198 -0.0259  0.0816
23684W        W40532  16.948   8.464   3.400 -0.2934  0.1954 -0.1290
23685W        W40533   1.576  11.170   1.690  0.0119  0.0428  0.2589
23686W        W40534   6.861  15.852   3.804  0.1639 -0.0275  0.0885
23687W        W40535   1.827  10.632   4.701 -0.0412  0.0702  0.0597
23688W        W40536  15.828   8.318   0.538 -0.2022  0.1951 -0.1627
23689W        W40537   9.676   8.524  14.643  0.0224  0.0835  0.1455
23690W        W40538  13.261   6.189  14.166  0.0306 -0.1506  0.2329
23691W        W40539  11.520   0.282   1.262  0.0952  0.0794  0.0766
23692W        W40540   2.825  10.545   3.744  0.1568 -0.2710 -0.2473
23693W        W40541  10.372   9.223  14.832  0.0644  0.0030  0.0669
23694W        W40542   5.223   0.172   0.469 -0.0360  0.1260  0.0642
23695W        W40543   6.547   8.284   5.053  0.0772 -0.0656  0.0838
23696W        W40544   1.831   8.297  15.448  0.0842 -0.0922  0.1515
23697W        W40545   9.805  10.558  12.888  0.0032  0.1252  0.1731
23698W        W40546   0.478  15.353  16.929 -0.3016  0.0409  0.0218
23699W        W40547  11.088  15.231   4.017 -0.0957  0.0953 -0.0233
23700W        W40548   1.435   4.808   2.111 -0.1541  0.0695 -0.3798
23701W        W40549  15.883  12.905  16.512  0.0278  0.3687 -0.0821
23702W        W40550   3.957   1.567   1.769 -0.1123  0.0051 -0.1125
23703W        W40551  14.977  16.188  15.073  0.1738  0.3111  0.3537
23704W        W40552  11.370  10.400   4.056 -0.2680 -0.1857 -0.2958
23705W        W40553  13.848  15.780   2.103  0.2220  0.0598 -0.0957
23706W        W40554   9.495   2.721  15.301 -0.0513 -0.1003 -0.0358
23707W        W40555   3.908  15.497   2.338 -0.1921  0.1282 -0.0235
23708W        W40556  15.122  16.438  13.444  0.2469 -0.4849  0.0551
23709W        W40557  11.681  15.715  17.001 -0.0481  0.0929 -0.5184
23710W        W40558   7.342   5.697   3.823 -0.0835  0.0058  0.0181
23711W        W40559   0.988   3.876   2.433  0.0860 -0.0656 -0.3782
23712W        W40560  16.937  16.234  13.020  0.1975  0.1178 -0.0258
23713W        W40561   1.236  11.490  12.821  0.0889  0.0642  0.1473
23714W        W40562  16.228   5.158   6.509 -0.2230 -0.0782 -0.1391
23715W        W40563  12.516  14.897  11.860  0.0737  0.1927 -0.1172
23716W        W40564   0.974   3.257  15.123  0.0358 -0.0285  0.0069
23717W        W40565   9.447   8.528   0.402 -0.3614 -0.2096  0.4061
23718W        W40566  10.505   3.515   1.016 -0.0665 -0.0180 -0.2198
23719W        W40567  16.409   9.393   0.135  0.0864 -0.1088  0.1649
23720W        W40568  15.933   4.750  14.011  0.2069 -0.2080 -0.3000
23721W        W40569   7.467  14.450   4.082  0.3466 -0.0836 -0.0093
23722W        W40570   0.993   9.729  15.187  0.0431 -0.0921  0.0128
23723W        W40571   6.872   6.754  14.188 -0.0835  0.0387  0.1104
23724W        W40572  10.244  10.127  16.411  0.0547  0.0676  0.0583
23725W        W40573   1.372   7.662   0.018  0.3540  0.0010  0.0644
23726W        W40574   3.916   3.377   1.479  0.0778  0.0891  0.0843
23727W        W40575  11.203   3.560  16.734 -0.0985 -0.2294  0.1131
23728W        W40576  14.867   7.177  13.525 -0.1963  0.0439 -0.1809
23729W        W40577  17.113  10.892   0.460  0.0139  0.1289  0.1479
23730W        W40578   3.720   9.177   6.818  0.0814 -0.1990  0.0338
23731W        W40579  16.619   0.071   1.432  0.0614 -0.0440  0.0658
23732W        W40580   0.428  16.884   2.754  0.0920  0.2164 -0.2891
23733W        W40581  16.981   3.419   4.966  0.0282 -0.0534  0.0622
23734W        W40582   7.979   1.988   0.199  0.4035 -0.3942  0.1495
23735W        W40583   0.981  12.233  13.209 -0.1561  0.1373  0.0096
23736W        W40584   9.387   8.646   0.895  0.2558 -0.3975 -0.1480
23737W        W40585  10.218   3.321   2.353 -0.2858 -0.0616  0.1680
23738W        W40586  14.967   7.606   5.470  0.0011  0.1479 -0.2409
23739W        W40587  14.420   3.912  16.841  0.0531 -0.0617  0.0870
23740W        W40588   3.283  16.195   3.655 -0.0404 -0.1316 -0.1126
23741W        W40589   7.768  12.644  13.676 -0.1979  0.3538 -0.0457
23742W        W40590  14.951   3.684   2.252  0.0654 -0.1459 -0.2064
23743W        W40591  10.123  15.053   3.807  0.1875  0.1464  0.0750
23744W        W40592  14.875   5.514  15.820  0.0277  0.1355  0.1539
23745W        W40593   0.217   5.009  13.834 -0.0976  0.0804  0.3458
23746W        W40594   0.779   5.752  13.697  0.1752  0.1989 -0.3524
23747W        W40595  15.133   9.584   1.838  0.0803  0.0737  0.0515
23748W        W40596   3.174   9.200   1.796 -0.4934 -0.1565  0.1743
23749W        W40597  11.235   3.622   2.292  0.2228 -0.1382  0.2370
23750W        W40598  13.774   2.394   2.268 -0.3579  0.1740  0.1085
23751W        W40599   1.652  10.536  12.507 -0.1119 -0.0365 -0.2927
23752W        W40600  14.284   0.655   2.358  0.0562 -0.0421 -0.1642
23753W        W40601   1.927   0.343   0.241  0.1978 -0.0235 -0.2385
23754W        W40602  15.078   9.004   1.125 -0.1229 -0.1092  0.0827
23755W        W40603  16.530   0.899   5.194 -0.0314  0.0124  0.0282
23756W        W40604   9.629   9.054   1.150 -0.1771 -0.1910 -0.3841
23757W        W40605  15.393   3.345  12.848 -0.0313  0.1397 -0.0856
23758W        W40606  15.889  14.453   3.449 -0.0565 -0.2312  0.2594
23759W        W40607   9.397   9.566   5.091 -0.0634 -0.0882 -0.1729
23760W        W40608   3.886  16.480  11.478  0.1657 -0.0905  0.1040
23761W        W40609  10.583  13.755  14.205 -0.0642  0.4605 -0.0788
23762W        W40610   9.076   4.248  13.356  0.0784 -0.0008  0.1032
23763W        W40611  17.066   5.079   5.744 -0.1620  0.0146  0.1395
23764W        W40612   5.849   1.568  14.151  0.0313  0.0538 -0.1734
23765W        W40613   6.619   6.457  15.514 -0.0145  0.0276 -0.2228
23766W        W40614   0.527  13.999  12.725 -0.1154 -0.0580  0.1366
23767W        W40615   3.170  16.539  15.111 -0.0332 -0.0068  0.1118
23768W        W40616  13.431   4.349   4.552  0.1958 -0.3772 -0.1457
23769W        W40617  16.600   1.775   1.374  0.3102 -0.1616 -0.0244
23770W        W40618   3.257   5.610  12.886 -0.1094  0.2709 -0.1330
23771W        W40619  16.725   9.644   0.499 -0.1778 -0.4628  0.2490
23772W        W40620  11.799   3.202  14.765  0.0512  0.2762 -0.1043
23773W        W40621  16.313   4.711   6.197 -0.0472  0.3405  0.0953
23774W        W40622  10.932  11.585   2.576 -0.0734  0.0262  0.0088
23775W        W40623  12.489  13.387  14.561  0.1362 -0.0467  0.2502
23776W        W40624  13.789   2.142  14.472 -0.0910 -0.0517  0.1586
23777W        W40625   7.938  13.926   2.841 -0.1798  0.2704  0.1069
23778W        W40626   9.634   3.182  14.553  0.3192  0.0471 -0.1030
23779W        W40627   8.007   7.887   2.188 -0.2276 -0.2199 -0.3248
23780W        W40628   5.032  11.706  14.003 -0.3307 -0.2456  0.1598
23781W        W40629  13.755   5.618  12.976 -0.0249  0.0530  0.1071
23782W        W40630   1.708   3.219   2.429  0.0835  0.1790  0.3327
23783W        W40631  15.536  15.860   4.123 -0.4479 -0.0457 -0.3193
23784W        W40632  13.047   9.783  17.243  0.2685  0.0376  0.3697
23785W        W40633   8.531  11.049   2.988 -0.0371 -0.1879 -0.0096
23786W        W40634   9.836   5.849  14.651  0.2511 -0.2610 -0.1401
23787W        W40635   2.512  15.840   0.504  0.1818  0.3806 -0.0426
23788W        W40636  12.781   1.006   1.680  0.0690 -0.0580 -0.3893
23789W        W40637   1.792   1.007   0.592  0.0302  0.0178  0.0168
23790W        W40638  11.891   2.584   1.648 -0.1454  0.2301 -0.0682
23791W        W40639   4.376  13.329   1.143  0.0493 -0.4469 -0.2378
23792W        W40640   8.112  14.218  12.157 -0.1321 -0.1843  0.3631
23793W        W40641   7.580  14.353   1.934  0.1799 -0.2744  0.0101
23794W        W40642   7.276  13.743  12.391 -0.1332 -0.0857 -0.0735
23795W        W40643  11.365  15.837  14.648  0.0224  0.1514 -0.1765
23796W        W40644  16.571   4.283   5.282  0.0861 -0.0341  0.0767
23797W        W40645  11.025   2.819  12.378  0.2170 -0.2907 -0.0830
23798W        W40646  15.185  12.536   4.562  0.0999 -0.0914 -0.3061
23799W        W40647   7.641   3.710   1.444 -0.1205  0.1923  0.1108
23800W        W40648   7.429   4.006  15.091  0.1394 -0.1502 -0.1326
23801W        W40649   8.236   9.343   5.180  0.0410  0.0043 -0.0098
23802W        W40650  11.680   0.451  17.228  0.0821  0.0307  0.0031
23803W        W40651   4.252  10.904  15.517  0.3021  0.1721  0.0756
23804W        W40652  12.182  13.372   2.517  0.2317 -0.0936  0.3395
23805W        W40653  13.228   0.160   1.984  0.1621  0.0148 -0.0657
23806W        W40654   8.491   0.356  10.905  0.0848 -0.0692  0.0301
23807W        W40655  13.436  10.037   4.267 -0.1292  0.0400  0.1447
23808W        W40656   1.491   8.253   1.158  0.1544 -0.1187 -0.1035
23809W        W40657   8.245  14.023   1.449  0.0572 -0.0434  0.0523
23810W        W40658   2.610   1.289   1.718  0.1825 -0.2325 -0.1939
23811W        W40659  11.417  12.670  16.557 -0.0850 -0.1407  0.0787
23812W        W40660   5.506   3.765   4.506  0.0701 -0.2419  0.2794
23813W        W40661   2.677   2.283   2.247  0.0438  0.2435  0.1180
23814W        W40662  17.086   1.388   0.241 -0.0771  0.2066 -0.0344
23815W        W40663   1.383  10.690   4.377 -0.1744 -0.2209  0.1979
23816W        W40664   1.096   5.208  13.739  0.0376  0.1227 -0.1135
23817W        W40665  11.725   6.238   2.956  0.1616 -0.1838 -0.1265
23818W        W40666  15.303   4.308  16.057  0.3607  0.0835  0.1648
23819W        W40667  12.910   5.192  13.080 -0.0933  0.0342 -0.1223
23820W        W40668  13.444   5.725  12.535 -0.0127  0.1533  0.2695
23821W        W40669  14.281  12.367  13.183 -0.2755 -0.1997 -0.1711
23822W        W40670   8.815   5.535  16.495 -0.0590 -0.0530  0.2870
23823W        W40671   2.849   2.046  16.330  0.0887  0.1102 -0.1629
23824W        W40672  10.440  14.267   6.352 -0.0473 -0.0863 -0.0090
23825W        W40673   2.315   0.819   3.563 -0.0681 -0.1050  0.1432
23826W        W40674  17.046   8.992  17.244  0.1436 -0.2536 -0.2040
23827W        W40675   1.953  13.219   3.119 -0.1439 -0.1213 -0.1251
23828W        W40676  10.345   9.755  12.902 -0.3334  0.0679  0.0778
23829W        W40677  15.704   6.731  16.523 -0.1046  0.2635  0.0958
23830W        W40678   5.084  13.365  13.530  0.2251 -0.1751 -0.1032
23831W        W40679  15.460  13.864   1.433  0.0155  0.0599 -0.0977
23832W        W40680  16.764  12.481   2.304 -0.5231  0.1046  0.0280
23833W        W40681  12.604  12.016   1.456  0.0046 -0.0489  0.1436
23834W        W40682  13.914  11.810  11.779 -0.2619  0.1339  0.2447
23835W        W40683   7.179   8.951  12.886 -0.2238  0.3910 -0.0419
23836W        W40684   1.703  14.472  12.796  0.0442  0.1015  0.2349
23837W        W40685   6.434  14.515  14.440  0.2131 -0.1398 -0.1324
23838W        W40686   1.260  17.054   2.902  0.0836  0.3301 -0.1204
23839W        W40687   1.949   6.064  14.221  0.2478  0.1188  0.2886
23840W        W40688  15.773  16.273  13.251  0.4036 -0.0936 -0.0843
23841W        W40689   8.555   0.850  15.497 -0.0539  0.4171  0.2433
23842W        W40690   2.978   7.844  13.895  0.0997  0.0019 -0.3195
23843W        W40691   0.644   4.319   1.243 -0.2874 -0.1524  0.0329
23844W        W40692   7.288  16.877  13.268  0.1087  0.0789 -0.3046
23845W        W40693   8.932   5.264   2.509 -0.0182  0.1160  0.2126
23846W        W40694   7.215  11.864   0.152 -0.0273  0.1142 -0.0398
23847W        W40695   4.407   9.935  16.639  0.1156  0.1411  0.3565
23848W        W40696  16.935   7.664   2.032 -0.3115  0.0312  0.0443
23849W        W40697  15.768   8.718   2.012  0.0177 -0.1992 -0.0529
23850W        W40698  16.906   8.563   1.882 -0.0840  0.4437 -0.1690
23851W        W40699   1.680  14.542   5.776  0.0245 -0.0149  0.0220
23852W        W40700   7.317   4.438   2.199 -0.0150  0.1437 -0.2116
23853W        W40701  15.934  16.258  13.858 -0.2519  0.0058  0.3041
23854W        W40702  14.792  15.968   5.118 -0.0816  0.1357  0.0016
23855W        W40703   5.586  14.727   2.817  0.1801 -0.1392  0.2767
23856W        W40704  14.642  16.734  17.661 -0.1090  0.0752  0.1296
23857W        W40705  13.286   9.565   1.677 -0.1141 -0.0002  0.0728
23858W        W40706   9.117  12.218  12.759 -0.2582  0.1775  0.0008
23859W        W40707  16.453  15.273  13.235  0.1235 -0.2630 -0.2100
23860W        W40708   1.179   9.636   3.129  0.0270 -0.1080  0.0957
23861W        W40709  14.485   7.300   2.902  0.1842 -0.2313  0.4304
23862W        W40710   9.347  13.630   2.659  0.4553 -0.1975 -0.0363
23863W        W40711  10.512   5.142  15.901 -0.0428  0.0578 -0.2733
23864W        W40712   4.823   9.548   0.576 -0.2285 -0.0882  0.1713
23865W        W40713  13.590  11.665   6.622  0.0999 -0.0588 -0.1423
23866W        W40714  12.205   2.436  15.179  0.3585 -0.1190  0.0418
23867W        W40715  16.528  10.380  12.759  0.1672 -0.1945 -0.0316
23868W        W40716  13.537  12.529  16.488 -0.0767  0.2582  0.2399
23869W        W40717   6.840   0.077  12.512  0.0760  0.1185  0.0660
23870W        W40718   8.022  10.167   5.609 -0.0174  0.1832 -0.1640
23871W        W40719   9.845   6.319   2.647  0.0870 -0.2006 -0.3562
23872W        W40720   3.559   0.159  13.230 -0.2258 -0.1424 -0.1619
23873W        W40721   7.061   6.440   1.257 -0.1557  0.1054  0.0718
23874W        W40722  14.044   2.582   4.038  0.1005 -0.2848  0.0001
23875W        W40723  15.421  14.170   2.184  0.0439  0.0403 -0.0711
23876W        W40724  13.360   6.185  15.058  0.0391  0.0994  0.0347
23877W        W40725  10.666   5.427   1.152 -0.0613  0.1263  0.0767
23878W        W40726  14.772   5.886   1.430 -0.2581 -0.1377 -0.0636
23879W        W40727   7.792  10.144   2.024 -0.0405  0.0576 -0.1963
23880W        W40728  15.269  15.921   2.699 -0.2094 -0.2130  0.0826
23881W        W40729   2.398   9.023   0.599 -0.3555  0.0297 -0.0190
23882W        W40730   0.040  11.711   5.538 -0.0558 -0.2598 -0.3016
23883W        W40731   3.421  17.010   2.431 -0.2327  0.3364 -0.1457
23884W        W40732  12.655  16.584  16.843  0.4115 -0.0928 -0.1606
23885W        W40733   0.753   9.732   4.467  0.0833  0.3733  0.3606
23886W        W40734  10.427   2.876  14.410  0.2131  0.3338 -0.1683
23887W        W40735   3.594  10.604   6.997  0.2753  0.1686 -0.1543
23888W        W40736  11.179   5.183   3.518  0.1849 -0.2534 -0.2152
23889W        W40737   1.805   1.321  12.582 -0.2293  0.0578  0.1370
23890W        W40738   2.837  14.440   3.660 -0.0791  0.3361 -0.2015
23891W        W40739   9.391  14.832  14.348  0.1662 -0.1858  0.0575
23892W        W40740  16.114   7.519  12.702  0.1115 -0.2014 -0.1378
23893W        W40741  15.546   7.142   2.085  0.1918 -0.1281  0.0905
23894W        W40742  13.737  12.850   5.054 -0.2401 -0.3138 -0.0512
23895W        W40743   3.362   6.107   3.322 -0.1611  0.5866  0.0419
23896W        W40744   0.118   2.534   3.074  0.0796  0.2772  0.1825
23897W        W40745   5.092   5.502   0.060  0.0449  0.0574 -0.1647
23898W        W40746   2.108   2.890   2.521  0.0900  0.3801 -0.1588
23899W        W40747  11.055  13.163   5.123  0.2033  0.3587  0.4519
23900W        W40748   6.648  13.741  15.932  0.1692 -0.1025 -0.1214
23901W        W40749   9.811   9.831   3.870  0.0493  0.0365  0.1787
23902W        W40750  15.832  16.180  14.965 -0.2652  0.1147 -0.2064
23903W        W40751  14.081  13.386  17.565 -0.1693  0.1392  0.2353
23904W        W40752  14.025  14.519  17.169  0.0693 -0.0808 -0.0701
23905W        W40753   2.817  14.609   2.150 -0.1621 -0.0522  0.2781
23906W        W40754   4.959  13.174  15.792 -0.1071 -0.2071 -0.1037
23907W        W40755  16.563  15.645  16.467  0.1282 -0.1328 -0.2778
23908W        W40756   8.937  10.126   1.463 -0.4053  0.3124 -0.2349
23909W        W40757  12.666   6.253   4.064  0.0662 -0.0241  0.0406
23910W        W40758  12.660   6.107  17.769 -0.2814 -0.1785  0.0216
23911W        W40759   1.297  15.039  15.637  0.1609 -0.0889  0.0888
23912W        W40760   1.764  12.306   3.407  0.0253 -0.2274 -0.2423
23913W        W40761   2.875   1.590  14.575 -0.2565  0.1169 -0.0025
23914W        W40762   8.939  14.852  15.203  0.1529  0.3519 -0.1961
23915W        W40763  17.068  11.796   1.539  0.1584 -0.1034  0.0893
23916W        W40764   2.840  10.053   0.860  0.0473  0.0399  0.1528
23917W        W40765  13.831  10.064   0.496 -0.1949 -0.0182  0.0584
23918W        W40766   1.812   7.806  15.552  0.4213  0.3807  0.4071
23919W        W40767   2.079   8.632  15.910  0.2268 -0.0055 -0.0587
23920W        W40768   5.280  13.887  17.469 -0.1029  0.0193 -0.1101
23921W        W40769  10.167   2.444  14.196  0.0137  0.0689 -0.0838
23922W        W40770   6.163  11.012   0.911  0.2121  0.0748 -0.0844
23923W        W40771   0.322   3.897   4.020  0.1858 -0.2398 -0.0731
23924W        W40772   3.860  16.834   0.651  0.4565  0.0061  0.1681
23925W        W40773   9.695   8.409  15.962  0.3176  0.1555 -0.0014
23926W        W40774   6.213   8.620  15.677  0.0117 -0.1209 -0.0815
23927W        W40775   6.949   6.759   0.415 -0.0101 -0.0121 -0.0747
23928W        W40776   7.275   0.883   4.346 -0.0498  0.1521 -0.4674
23929W        W40777   6.384  12.173  15.467  0.2021 -0.0823 -0.0760
23930W        W40778   5.235  10.944  17.782  0.1500 -0.0252  0.0361
23931W        W40779   0.048  11.290  17.154 -0.1374 -0.0661 -0.1280
23932W        W40780  11.249   8.654  16.190  0.1217  0.0015  0.0948
23933W        W40781   4.549   1.129  15.331  0.3527  0.1088  0.1068
23934W        W40782   2.673  12.991  15.852 -0.2042 -0.1948  0.0802
23935W        W40783   1.146   9.507  17.659 -0.0317 -0.0953  0.2210
23936W        W40784  12.535   3.487   5.617 -0.3748  0.0859  0.2056
23937W        W40785  14.661   1.257  16.672  0.1524  0.1020 -0.2008
23938W        W40786   6.481   3.471   0.853  0.0544  0.0972  0.2060
23939W        W40787   9.312  17.086  14.419  0.2968 -0.0408  0.0771
23940W        W40788  12.829  14.324   0.828  0.3006 -0.2578 -0.2443
23941W        W40789  16.258   1.442  15.527 -0.0288 -0.1574  0.3418
23942W        W40790   3.631  16.842  13.087  0.0152 -0.1802 -0.0129
23943W        W40791   7.567   8.781   3.667 -0.0746  0.1610  0.0655
23944W        W40792   2.076  14.521  13.089  0.2137  0.1836  0.2010
23945W        W40793  12.375   4.881   5.219 -0.2359 -0.1910 -0.0224
23946W        W40794   4.480  14.915  13.757  0.2043 -0.3974  0.1027
23947W        W40795   9.452   8.058   2.231  0.0951  0.1450  0.2342
23948W        W40796   4.695   1.206  14.425  0.3201  0.0483 -0.2257
23949W        W40797   4.447   8.727   5.976 -0.0121 -0.0449  0.0510
23950W        W40798   8.484  11.922   1.597  0.1158 -0.1137  0.0498
23951W        W40799  13.045   7.290  15.892 -0.2853  0.1095 -0.1584
23952W        W40800  12.042   8.458  12.047 -0.0158  0.3486  0.1065
23953W        W40801  15.237   2.061   0.358 -0.3339  0.1614  0.1387
23954W        W40802   2.161  13.737   0.187 -0.0356  0.1969 -0.0253
23955W        W40803   6.826  12.851  13.463  0.0779  0.0007  0.0428
23956W        W40804   5.664  15.144   3.927  0.1119 -0.3477  0.0160
23957W        W40805  14.967   2.623   3.757 -0.1451 -0.1094  0.3902
23958W        W40806  14.538  14.236  17.125 -0.2498  0.1049 -0.0713
23959W        W40807   8.226   9.965   4.842 -0.0069  0.3122 -0.2371
23960W        W40808   0.982  11.719  17.391 -0.1529  0.1286  0.0471
23961W        W40809   3.766   2.693   0.363  0.0934 -0.1220 -0.0853
23962W        W40810  13.325  15.435   0.124 -0.0725  0.0422  0.0662
23963W        W40811  11.696   9.271  14.353  0.0178 -0.0059  0.0478
23964W        W40812  10.124  14.834   4.340  0.0478  0.0906 -0.0986
23965W        W40813   2.471  16.897   1.316  0.3226  0.0825 -0.1054
23966W        W40814   6.771  14.164  13.845 -0.1116 -0.2099 -0.1730
23967W        W40815  11.265  12.526  11.988 -0.3015  0.1532  0.1071
23968W        W40816  14.405   2.942   3.505  0.1198  0.0777 -0.0608
23969W        W40817  14.830   6.526   0.827  0.1187  0.0059 -0.0686
23970W        W40818  13.818   0.537  12.061  0.1620  0.0076 -0.5093
23971W        W40819   1.643   1.856   0.527 -0.4258 -0.1302 -0.0693
23972W        W40820  16.263   5.641  17.386 -0.0551  0.0606  0.1431
23973W        W40821   5.045   0.551   3.889  0.1100 -0.0616 -0.3579
23974W        W40822   3.325  16.065  13.679 -0.1117  0.0312  0.2158
23975W        W40823  15.525   6.706  17.476  0.1778  0.1799 -0.0758
23976W        W40824  12.494   0.232  15.062 -0.1589 -0.2534  0.1542
23977W        W40825   8.868  13.841   0.063  0.1464 -0.0777  0.0569
23978W        W40826   4.474  15.486  17.423  0.1483  0.0305 -0.2157
23979W        W40827   4.834   9.715   5.436 -0.2143  0.1030  0.0154
23980W        W40828  16.641   1.422  13.725  0.0934  0.2467  0.0765
23981W        W40829   6.114   9.220  14.768  0.0593  0.1186 -0.2200
23982W        W40830   5.817  10.165  12.061  0.1004 -0.0277  0.0218
23983W        W40831   4.824  16.115  16.092  0.1259  0.0785 -0.0036
23984W        W40832   2.162  15.127   2.220  0.1304  0.0673 -0.1568
23985W        W40833  11.641  16.320   0.054 -0.0018  0.1342  0.0680
23986W        W40834   9.966  11.925   2.415  0.2638  0.1527  0.2777
23987W        W40835   3.330   6.104  16.698 -0.0431 -0.1334  0.0121
23988W        W40836  15.433   4.653  13.926  0.1721 -0.0275 -0.0678
23989W        W40837  14.906   1.415   4.604 -0.2035 -0.2940 -0.2170
23990W        W40838  12.582   8.802   3.630 -0.1875 -0.3144  0.4184
23991W        W40839   6.518   0.281   0.813  0.0660 -0.1061 -0.1634
23992W        W40840   0.630   3.416  12.347 -0.1430  0.2388  0.0073
23993W        W40841   2.888  15.804  16.826 -0.1963  0.2337  0.0078
23994W        W40842  16.509  10.611   2.638  0.2078 -0.0116 -0.0732
23995W        W40843  12.579   9.714   2.653 -0.0966  0.0799  0.0491
23996W        W40844   9.853   4.915   1.743 -0.0756 -0.1190  0.4387
23997W        W40845   7.613   3.908  16.895  0.1903  0.0891 -0.0691
23998W        W40846   0.242   1.730  12.515 -0.4297  0.1889 -0.1228
23999W        W40847   0.789  11.738   2.381  0.0397  0.1781  0.0247
24000W        W40848  13.680  14.415   2.653 -0.0593 -0.1339 -0.2522
24001W        W40849   5.911  15.156   0.459 -0.0461  0.1138  0.0196
24002W        W40850   7.193   6.971   1.254  0.0007 -0.2289  0.1292
24003W        W40851  13.875   3.010  15.944  0.3451  0.0380 -0.1196
24004W        W40852   1.488   6.736   2.140  0.3332  0.0386  0.1032
24005W        W40853   5.461   1.796   5.875 -0.1955 -0.0036  0.1596
24006W        W40854  11.864   5.493   0.195 -0.2337  0.2093 -0.0105
24007W        W40855   2.160   5.980   4.116 -0.1921  0.1132  0.2068
24008W        W40856   2.921   8.648   5.709 -0.0985 -0.4388 -0.2276
24009W        W40857   5.797   7.472  13.816 -0.1244 -0.1458  0.2034
24010W        W40858   9.994  12.959  13.472  0.2372 -0.1100  0.0201
24011W        W40859   2.569  11.224   4.252  0.2496 -0.4540 -0.0144
24012W        W40860   0.174   8.650  17.079  0.1393 -0.1465 -0.0676
24013W        W40861   5.705   9.991   0.744 -0.1284 -0.1285 -0.1440
24014W        W40862  15.125   3.510  13.211  0.1838 -0.2525 -0.1949
24015W        W40863   3.789   8.842   0.221 -0.1370 -0.2743  0.1422
24016W        W40864  15.948  16.192   1.468  0.3425  0.2756  0.0116
24017W        W40865  17.014   8.602  15.343 -0.1407 -0.0688  0.0042
24018W        W40866   9.244   4.871  11.722 -0.0296  0.1405  0.1315
24019W        W40867  16.516   3.078   1.894  0.1232 -0.1300  0.1100
24020W        W40868   5.623  14.551   5.865  0.1405 -0.1693 -0.0879
24021W        W40869   7.635  13.685  14.874  0.1300 -0.0383 -0.3787
24022W        W40870   9.435   4.224  14.877 -0.0790 -0.3349 -0.0510
24023W        W40871   3.023   8.337   3.588  0.2542 -0.2674 -0.1206
24024W        W40872   1.012  10.407   5.704 -0.1189 -0.3488 -0.1285
24025W        W40873   0.883   7.003  15.646  0.1025  0.2953 -0.0458
24026W        W40874   4.951   0.325   0.035  0.3190 -0.0808 -0.1467
24027W        W40875  14.343  15.004   0.503 -0.2021  0.1068  0.2922
24028W        W40876   3.913   9.810  14.945 -0.0700  0.2494 -0.0128
24029W        W40877   0.500   4.039   2.496  0.0619 -0.0377 -0.1681
24030W        W40878  13.379  15.843   0.853  0.2433 -0.1332  0.3461
24031W        W40879  14.444  11.121   4.147 -0.0234 -0.1146 -0.0746
24032W        W40880   9.830   2.620   1.111  0.1735 -0.0838 -0.3060
24033W        W40881   4.658   5.609   1.224 -0.0470  0.1764 -0.1745
24034W        W40882  16.822  12.844  14.349  0.0536 -0.4427 -0.0463
24035W        W40883   0.193  12.965  16.679  0.2388 -0.0930  0.0140
24036W        W40884   3.146   5.187   0.858 -0.2089  0.1043  0.0465
24037W        W40885  10.209   7.662  14.662 -0.0251 -0.1380 -0.2066
24038W        W40886  11.149  14.241   3.689  0.1653 -0.0564  0.0988
24039W        W40887  10.513  15.561   1.582  0.0109  0.2229 -0.0421
24040W        W40888   6.875  13.770   3.515  0.3307 -0.2033 -0.0878
24041W        W40889   4.283   2.052   4.990  0.2269  0.0763  0.0767
24042W        W40890   9.923   1.323  14.948 -0.1521 -0.0227  0.2772
24043W        W40891   7.065  10.812  15.161 -0.1351 -0.0559  0.4743
24044W        W40892   2.716  12.259  13.182  0.0694 -0.1592  0.0425
24045W        W40893  15.881   1.079   4.274  0.2967  0.5147 -0.0381
24046W        W40894   5.834   2.885   1.283  0.1356  0.0905 -0.1023
24047W        W40895   4.066  10.072   5.622  0.2978 -0.0622 -0.3441
24048W        W40896   1.205   9.310   4.462  0.2915 -0.2263 -0.1000
24049W        W40897  12.255   2.925  17.385 -0.1500 -0.0519  0.1044
24050W        W40898   6.713  13.385  11.404  0.0768 -0.1216 -0.2611
24051W        W40899  13.371   5.188  15.146  0.0334 -0.0353 -0.0495
24052W        W40900   0.787   4.918  12.274  0.0670 -0.1053 -0.3454
24053W        W40901   6.980  13.842   1.276  0.0718  0.1276 -0.0438
24054W        W40902   6.729  13.702   4.550 -0.0340  0.1122  0.0618
24055W        W40903  11.686  13.886  17.010  0.2206 -0.0951  0.0511
24056W        W40904   8.433   5.204   2.545 -0.2325  0.0881  0.0196
24057W        W40905   6.533  16.450  14.954  0.0875 -0.1845 -0.4902
24058W        W40906  10.752  13.510   4.920 -0.3474  0.0929 -0.0149
24059W        W40907   3.643   5.358   2.766 -0.1080  0.1858  0.0204
24060W        W40908   7.897   6.021   2.688 -0.4925 -0.2431 -0.1112
24061W        W40909   9.735   5.216   2.144 -0.0655  0.0340 -0.1349
24062W        W40910   7.710  16.614  14.254  0.1645  0.1125  0.0224
24063W        W40911  16.278   2.075  14.656 -0.0918  0.1282 -0.2255
24064W        W40912  17.021  15.083  15.825 -0.0802 -0.1812  0.1762
24065W        W40913   3.213   4.819  13.376 -0.0057  0.1666 -0.4667
24066W        W40914  10.226   4.880   3.837  0.1279  0.0138  0.4460
24067W        W40915  14.425   5.236  12.004  0.0835  0.0181  0.0644
24068W        W40916   3.315  16.021   0.738 -0.0789  0.1978  0.2926
24069W        W40917  11.630   9.556   0.260 -0.0016  0.1409  0.0334
24070W        W40918   8.778   6.493   0.208  0.2512  0.1757  0.0051
24071W        W40919   2.460   0.652  17.261  0.0179 -0.3034  0.0627
24072W        W40920   7.138   5.473  12.276 -0.1762 -0.0531 -0.0100
24073W        W40921   0.113   2.181   2.713  0.0714  0.1846 -0.0842
24074W        W40922   0.601   0.476  14.819  0.1309 -0.2707 -0.0974
24075W        W40923   8.112   4.419   3.449 -0.1520 -0.3188 -0.1165
24076W        W40924  15.146   2.851   5.390 -0.0734  0.1428 -0.3062
24077W        W40925   7.684   2.212  15.523  0.1783 -0.1034 -0.1761
24078W        W40926  13.394  12.949   3.390  0.1126 -0.1052 -0.0947
24079W        W40927  16.445   8.089   5.543  0.2371 -0.3633  0.1942
24080W        W40928  14.300  11.843   2.562 -0.1732 -0.2938 -0.0620
24081W        W40929  15.172   9.296  12.874  0.2772 -0.3294 -0.2397
24082W        W40930   9.037   7.444   2.826 -0.0784  0.2650 -0.3592
24083W        W40931  13.506  16.716  12.924 -0.0844 -0.1213 -0.3548
24084W        W40932   0.164   6.933  17.693 -0.3111  0.1348 -0.1968
24085W        W40933   7.222   5.494   4.245 -0.0125  0.0857 -0.1658
24086W        W40934   2.976  10.183  12.727  0.3165 -0.2578  0.0636
24087W        W40935  11.687   5.634   3.147 -0.1619  0.0107  0.0930
24088W        W40936  11.448  10.486   2.218 -0.2232 -0.1187 -0.0509
24089W        W40937   1.780  16.152   1.424  0.0242 -0.0579  0.1292
24090W        W40938   9.130  12.897  12.666  0.1858  0.0028  0.1330
24091W        W40939  15.505   8.714   4.814 -0.1878 -0.0845 -0.2073
24092W        W40940   2.952   4.895  14.683 -0.0391  0.2020  0.1409
24093W        W40941  12.300   8.978  16.617 -0.0892  0.2211  0.0569
24094W        W40942  16.062   2.230   3.203  0.2567 -0.0197 -0.2427
24095W        W40943   4.691   9.343   5.777 -0.0013 -0.0743  0.1390
24096W        W40944   7.747   2.556   1.980  0.2935  0.2443  0.4636
24097W        W40945   0.241   9.900  12.566  0.2027 -0.3886  0.2175
24098W        W40946   4.223   2.870  14.962 -0.1414 -0.2275  0.2256
24099W        W40947   4.981  12.294  15.144  0.0854 -0.0946  0.0301
24100W        W40948  14.004  10.599   4.536  0.2881 -0.0074  0.0926
24101W        W40949  10.293   6.878  13.155 -0.2676 -0.0887 -0.2328
24102W        W40950  14.889  15.814   0.536  0.0415  0.0360  0.5439
24103W        W40951   7.936   5.058   2.481  0.1214  0.2083 -0.1627
24104W        W40952  13.534  15.941   0.369  0.2423  0.0215  0.0136
24105W        W40953  15.759  11.497  17.271 -0.0302 -0.0967 -0.2725
24106W        W40954   7.819  12.709  12.370 -0.1540  0.2668 -0.2403
24107W        W40955  16.518  12.035   0.160  0.3951 -0.0643  0.0502
24108W        W40956  15.364  12.797   3.035 -0.1326 -0.1577 -0.1464
24109W        W40957   0.325  12.802  13.669  0.0253  0.1739  0.2864
24110W        W40958   8.931   3.261   3.666  0.0120 -0.1193  0.3589
24111W        W40959  11.206   0.462  17.036  0.0715 -0.0731  0.0570
24112W        W40960   1.665   5.676  14.188 -0.2056  0.0472  0.2223
24113W        W40961   2.028  13.168  13.155 -0.1315 -0.1890 -0.2907
24114W        W40962   9.986  13.921   3.284 -0.0290 -0.0721  0.2285
24115W        W40963   7.118   8.066  13.203 -0.0444  0.0790  0.1345
24116W        W40964  12.264  16.593  17.168  0.0514  0.2792  0.0820
24117W        W40965  14.046   8.056  14.013 -0.0395  0.0198 -0.3264
24118W        W40966   9.860   2.866  15.674 -0.1485 -0.1443  0.0532
24119W        W40967  13.389  11.504   4.694 -0.3547  0.1120 -0.2366
24120W        W40968   4.235  16.632   5.112 -0.1322  0.0877 -0.0807
24121W        W40969   8.692  14.286  11.971 -0.0201  0.0917  0.2171
24122W        W40970  10.040   2.206  12.608  0.3313  0.1924 -0.2090
24123W        W40971  13.150   3.147  12.179  0.0261 -0.0518  0.1164
24124W        W40972   0.158   8.799   1.795 -0.1593 -0.2248 -0.0578
24125W        W40973  15.630  15.071  14.993  0.0404 -0.1591  0.2326
24126W        W40974   4.239  15.099   2.361 -0.1250  0.0459  0.2344
24127W        W40975  14.172  14.274   2.754  0.2773  0.1165 -0.2968
24128W        W40976  12.704   5.452   3.602 -0.0873  0.0065 -0.2334
24129W        W40977   5.350  13.863  13.453 -0.3413 -0.1515 -0.1552
24130W        W40978  15.037  10.616  17.486 -0.1444  0.1245  0.2199
24131W        W40979   0.839   9.374   2.153 -0.0063 -0.3309 -0.1169
24132W        W40980   6.977  13.845   3.004  0.0888  0.1213  0.0529
24133W        W40981   1.012   1.090   1.509  0.0462  0.3599 -0.1072
24134W        W40982  14.108   3.527   0.745  0.2738 -0.0735  0.2026
24135W        W40983  15.617   8.188  13.877 -0.1566 -0.2113 -0.1314
24136W        W40984   9.587   2.700   1.650 -0.0575  0.2252  0.0162
24137W        W40985  16.958  13.064   3.517 -0.0106  0.1432 -0.0930
24138W        W40986  11.452   5.543   4.605  0.2975 -0.0508 -0.1649
24139W        W40987   3.303  13.042  16.351 -0.2802  0.0115 -0.2710
24140W        W40988  16.027  15.321  17.595 -0.0663 -0.0290  0.3254
24141W        W40989   7.965   2.756   5.101  0.1993 -0.2340  0.3809
24142W        W40990   0.162  12.028  17.578  0.0080  0.0717 -0.0644
24143W        W40991   3.111   4.283  13.434  0.1601 -0.3818  0.0504
24144W        W40992   1.362   9.852   5.551 -0.0712  0.0380  0.0885
24145W        W40993  12.788   7.806   4.904  0.2335  0.2040  0.0538
24146W        W40994  14.977  10.278  14.881  0.2075  0.4384  0.1262
24147W        W40995  14.126   5.972  17.667  0.1160 -0.1154  0.1238
24148W        W40996  13.879  10.300   3.184  0.0072  0.0794 -0.2581
24149W        W40997  16.497  14.485   3.590  0.3449 -0.0325 -0.2568
24150W        W40998  10.590  11.588  13.923  0.2327  0.1236 -0.0179
24151W        W40999  10.335   4.069   2.722  0.0329 -0.0801 -0.1318
24152W        W41000  16.110   8.416   2.237 -0.0907 -0.1070 -0.0202
24153W        W41001   6.267  11.478  12.567 -0.2069  0.2356 -0.2318
24154W        W41002  13.896  15.190   1.119  0.0089  0.1460  0.2522
24155W        W41003   0.817   5.795   1.339  0.2402  0.1499 -0.2333
24156W        W41004  15.723  13.341  11.357  0.0892 -0.0403 -0.1032
24157W        W41005  14.622   6.127  11.229 -0.0462 -0.4330  0.1633
24158W        W41006   4.690  13.095  13.488  0.0075 -0.1343  0.2176
24159W        W41007   6.467   4.673  16.226 -0.0009 -0.3746 -0.4185
24160W        W41008  15.456  14.032   3.487  0.1484 -0.2286  0.1507
24161W        W41009   2.814   5.998  17.339  0.0582 -0.0295 -0.1097
24162W        W41010   2.961  16.979  16.307  0.1798 -0.0312  0.1182
24163W        W41011   6.565   8.205   5.975  0.1231  0.1330 -0.0265
24164W        W41012  13.525  11.075  15.631  0.2120  0.0948  0.6299
24165W        W41013   4.975   4.874   0.947  0.2206 -0.2155  0.1209
24166W        W41014   4.719  16.514  17.185 -0.0120 -0.0791  0.0385
24167W        W41015   4.897   8.759   1.555 -0.0415  0.0758  0.0138
24168W        W41016  15.800  11.225  15.567  0.0511 -0.0894  0.0191
24169W        W41017   8.265  12.789   5.069  0.1735 -0.2535  0.2451
24170W        W41018   4.609  15.952   4.181  0.0940  0.1794  0.0364
24171W        W41019   1.747   2.623  13.524 -0.0576 -0.0899 -0.1851
24172W        W41020   3.240   3.985   1.423  0.0664  0.0511 -0.0446
24173W        W41021  11.925   8.822  16.184 -0.2998 -0.0401  0.1974
24174W        W41022  12.016  11.161   4.954 -0.0792 -0.0455 -0.3999
24175W        W41023   8.446   1.416  17.320  0.3455 -0.4063  0.0280
24176W        W41024  15.187   5.576   4.242  0.1093 -0.0753  0.0630
24177W        W41025  15.729   1.686  13.310  0.0173 -0.0205  0.1993
24178W        W41026   8.312  10.494   2.205  0.0043  0.0045 -0.1253
24179W        W41027   6.628   8.696  15.396  0.0630 -0.0767  0.1842
24180W        W41028   2.011   4.307  13.057  0.1074  0.0956 -0.1552
24181W        W41029  12.570  16.186   5.090  0.0350  0.2489 -0.1199
24182W        W41030  16.377  10.205   3.558 -0.2245 -0.0844  0.0922
24183W        W41031  13.664   0.897   1.853 -0.0026  0.3453 -0.0521
24184W        W41032  11.592   7.691  15.800  0.0812 -0.3531 -0.0329
24185W        W41033   4.679   1.294   2.518 -0.1373  0.1785  0.1866
24186W        W41034   9.326  13.385  15.767  0.0819 -0.0713  0.1642
24187W        W41035   3.610  13.557  13.785 -0.0915  0.1275  0.2642
24188W        W41036  12.976  13.734   2.961 -0.0841 -0.2953 -0.1372
24189W        W41037   7.756  11.610  14.479  0.1946  0.2668  0.0842
24190W        W41038   8.243   2.932  16.791  0.2475  0.0130  0.3638
24191W        W41039  15.150   9.064  16.592 -0.1990 -0.2076  0.1437
24192W        W41040  14.564  15.373   4.601  0.2668 -0.0591 -0.1720
24193W        W41041   4.649  11.302   5.263 -0.1090  0.0975  0.2177
24194W        W41042   5.720  16.599   1.405  0.0379  0.1784 -0.0275
24195W        W41043  12.102   7.421   1.643 -0.0268 -0.1024  0.0051
24196W        W41044  16.441  16.524   4.237 -0.2481 -0.2163 -0.1791
24197W        W41045   5.093  16.213  14.431  0.0588  0.0019 -0.0554
24198W        W41046   4.858  12.616   3.774 -0.0876  0.2459 -0.0215
24199W        W41047  17.121   4.004   1.572 -0.0167  0.2090  0.3893
24200W        W41048  11.729   0.850   3.593  0.0298 -0.0425  0.1207
24201W        W41049   1.332   0.927   2.323  0.1158 -0.2023 -0.1634
24202W        W41050  13.674  16.985  13.390  0.2482 -0.0197  0.0557
24203W        W41051  13.458   5.589  17.123 -0.0694  0.3898  0.1517
24204W        W41052  11.183   8.420  16.635 -0.0920  0.0560 -0.0713
24205W        W41053   3.672   2.211   4.759  0.0982  0.0864 -0.0808
24206W        W41054   4.043   5.197   1.759 -0.1715 -0.0283  0.0009
24207W        W41055   6.238  11.760   5.924  0.1379  0.1968  0.0433
24208W        W41056   6.651  11.159  16.345 -0.1392  0.1458  0.1907
24209W        W41057   0.705  16.702  12.547 -0.2830  0.0873 -0.1997
24210W        W41058   7.673   8.858  12.954  0.3297 -0.1266  0.0599
24211W        W41059   1.372  11.707   4.196 -0.0682 -0.2911  0.0882
24212W        W41060   7.494  14.184   2.414  0.3699  0.0174 -0.0998
24213W        W41061  13.887   8.011   0.102 -0.0156  0.0982 -0.2474
24214W        W41062  10.045   9.752  12.292 -0.0834 -0.3327 -0.0364
24215W        W41063   3.367  15.089  13.679 -0.1364 -0.0223 -0.0316
24216W        W41064   2.251   9.339   6.003  0.0043  0.1125 -0.0497
24217W        W41065   3.845   5.599   1.948 -0.2115  0.1789  0.0960
24218W        W41066  13.724  16.370  15.504 -0.1826 -0.3120 -0.0276
24219W        W41067  15.176   1.905  14.690  0.1823  0.0983 -0.0978
24220W        W41068   5.994  11.661  17.496 -0.2535  0.2881  0.1028
24221W        W41069  16.127  12.814  13.783  0.5241 -0.1464 -0.1493
24222W        W41070   2.000  15.181   3.996 -0.1047  0.0000 -0.1157
24223W        W41071   5.864  10.589   4.112 -0.3001 -0.0275 -0.1245
24224W        W41072   7.075   7.598   5.011  0.0128  0.2465  0.2642
24225W        W41073  15.263   4.261   5.259 -0.1414 -0.1030 -0.1529
24226W        W41074  15.803   2.552  12.890  0.0415  0.3308 -0.3093
24227W        W41075   9.796   4.933   4.158  0.0930 -0.3536  0.0030
24228W        W41076   4.895  12.743  16.233 -0.0316 -0.1791  0.4424
24229W        W41077   4.559  13.696  13.512  0.1922  0.0631 -0.1180
24230W        W41078   3.693   7.676   2.209  0.1182  0.1907 -0.2214
24231W        W41079   6.518  12.497  17.770 -0.0717 -0.2947  0.4650
24232W        W41080  10.518   5.574   5.383  0.1833  0.0644  0.1435
24233W        W41081   7.691  13.149  17.517 -0.0238  0.1069 -0.1312
24234W        W41082   7.284  14.797   1.919 -0.1611 -0.1758  0.1063
24235W        W41083   0.375   3.934  11.524  0.2776  0.0260 -0.0902
24236W        W41084   0.082   6.581  17.289 -0.0570  0.0200 -0.1324
24237W        W41085   7.796   5.213   2.021  0.1120 -0.0430 -0.0133
24238W        W41086  15.871  13.676  14.165 -0.1139 -0.0802 -0.0827
24239W        W41087  16.341   2.766   4.445 -0.0557 -0.1532  0.0426
24240W        W41088   3.434  12.046  15.429  0.5120  0.2589  0.0398
24241W        W41089   6.584   1.374   4.199  0.0804 -0.0509 -0.1861
24242W        W41090   7.245   0.486  11.793  0.2142 -0.1945 -0.2943
24243W        W41091  16.544   4.439  15.648  0.0168  0.0734 -0.0693
24244W        W41092   7.354  11.025  13.305  0.0239 -0.2707  0.2133
24245W        W41093  16.105  11.405   2.817  0.0522  0.1196 -0.1587
24246W        W41094   4.838   7.720  15.483 -0.1201 -0.0850 -0.2021
24247W        W41095   1.781  10.190   1.714  0.3182  0.1140 -0.0822
24248W        W41096  13.210  10.969   5.468 -0.0358  0.1525  0.0049
24249W        W41097  10.877   9.654   3.238 -0.2920  0.2492  0.0052
24250W        W41098  11.587  12.609  12.573 -0.0919 -0.0213 -0.2210
24251W        W41099  10.775   4.898   4.275  0.1323 -0.0595  0.0718
24252W        W41100   8.959   8.291  15.245  0.4099 -0.1792  0.3211
24253W        W41101   4.791  15.521   3.628 -0.1479  0.1126 -0.1004
24254W        W41102  15.764   2.200  16.770 -0.0872 -0.0887  0.1391
24255W        W41103   4.704   8.185   3.599 -0.0733  0.0881 -0.0033
24256W        W41104  10.938  16.511   0.658 -0.4623  0.1839  0.2936
24257W        W41105  16.569   7.507   0.679 -0.0198  0.1130 -0.0726
24258W        W41106  11.035  11.759   3.809  0.2260  0.0690 -0.3141
24259W        W41107   9.314  16.279   6.031 -0.0355  0.1830 -0.4889
24260W        W41108   9.773   0.840   0.673 -0.0384  0.0186  0.0412
24261W        W41109  12.784  10.947   4.266 -0.3301  0.2027 -0.1954
24262W        W41110  10.682  12.973   3.151  0.2213 -0.0649 -0.0817
24263W        W41111   5.616   4.739   3.797 -0.1629 -0.1071  0.0122
24264W        W41112   4.061   2.999  13.381  0.1240  0.0053 -0.0536
24265W        W41113   5.245   1.906   2.099  0.0717 -0.0391  0.4313
24266W        W41114  16.464   5.215  17.533 -0.1069  0.2350  0.2647
24267W        W41115  16.743  10.035   0.203  0.1661  0.1257  0.1408
24268W        W41116   7.768   3.869   0.045  0.1236  0.1086 -0.0593
24269W        W41117  12.217   5.984   2.719 -0.0699  0.0713 -0.0058
24270W        W41118   2.755  10.678   6.088 -0.0718  0.1025 -0.1081
24271W        W41119  13.081   5.792  15.555  0.0271 -0.0836 -0.0286
24272W        W41120  13.208   0.741   2.033  0.1302 -0.1264 -0.0523
24273W        W41121   4.888   4.878  13.207  0.1833  0.0824 -0.0589
24274W        W41122   4.150  15.747   4.022  0.0252  0.0078  0.0098
24275W        W41123   6.175   9.936   0.910  0.0875 -0.1506  0.1640
24276W        W41124   0.860   1.696   0.317  0.1161 -0.1576 -0.0289
24277W        W41125  14.909  11.637   0.019 -0.1899 -0.0341 -0.0243
24278W        W41126   7.739   8.851   2.991  0.0599 -0.1604  0.2742
24279W        W41127   7.446   5.021  13.293  0.0285 -0.1734  0.1747
24280W        W41128  15.550  13.538  12.663 -0.0394 -0.2027  0.0324
24281W        W41129   0.338  16.204   3.535  0.2053  0.4434 -0.1708
24282W        W41130   8.148   5.261  13.378 -0.0842 -0.2797  0.1989
24283W        W41131  16.097  11.602  14.020 -0.1937  0.1164 -0.0310
24284W        W41132   7.710   1.152  15.421  0.3222  0.1808 -0.0274
24285W        W41133   6.164   2.644   3.222 -0.0834 -0.0905 -0.1302
24286W        W41134  12.040   4.018  14.253 -0.2378 -0.2181  0.1994
24287W        W41135  14.808  16.788   4.723  0.3277  0.1781 -0.1270
24288W        W41136  17.085   1.905   0.273 -0.2307 -0.1233 -0.1216
24289W        W41137   4.029   1.134   2.984 -0.1901 -0.0001 -0.0251
24290W        W41138   1.739   7.383   5.960  0.0291 -0.0239 -0.3256
24291W        W41139   4.982  11.552  12.541 -0.0936 -0.0770  0.2924
24292W        W41140  11.877  16.427   3.742  0.0031  0.3100  0.4925
24293W        W41141  15.130   2.688   1.269 -0.0216  0.1920  0.1362
24294W        W41142   6.550   7.474  15.883 -0.0372 -0.0934  0.3930
24295W        W41143  14.130   6.402  12.640  0.0942 -0.1313 -0.0274
24296W        W41144  14.593   8.846   0.118  0.0255 -0.1539  0.0439
24297W        W41145  17.115  13.132  13.730  0.1534  0.1084 -0.0311
24298W        W41146   8.325   8.674   0.664 -0.0360 -0.1003 -0.3154
24299W        W41147   5.390   1.506  13.017  0.1309 -0.1014  0.1870
24300W        W41148  10.736   1.074  14.718  0.2891  0.1408  0.1703
24301W        W41149  12.626   4.757   1.881  0.2787  0.0135  0.0914
24302W        W41150  10.331  13.034  14.451 -0.1783  0.1702  0.0203
24303W        W41151  15.634   5.244   2.684  0.2058  0.2508  0.0838
24304W        W41152   7.723   5.406   5.048  0.0106  0.1241 -0.0331
24305W        W41153  11.263  14.640  13.962  0.2301  0.2555 -0.0402
24306W        W41154   3.909   6.330  13.481  0.0189  0.1549 -0.0958
24307W        W41155   7.765  15.245   3.941  0.1386  0.2034  0.4311
24308W        W41156  14.615   2.291   1.962  0.2533 -0.4094  0.1492
24309W        W41157   4.408   7.114  15.610 -0.3942 -0.1146 -0.2466
24310W        W41158   8.103   6.009  16.277 -0.0721 -0.2939  0.1932
24311W        W41159  13.896  13.168  13.108 -0.1615  0.2677 -0.0953
24312W        W41160  13.780  16.862   1.477 -0.0475 -0.1168 -0.1758
24313W        W41161  11.674  11.727  12.337 -0.0836  0.2060  0.1093
24314W        W41162   1.831  13.126  17.295 -0.3989 -0.0604  0.1102
24315W        W41163   2.680   2.451   5.651  0.0221  0.1054  0.0048
24316W        W41164   9.569  13.625   3.201  0.1225 -0.3802 -0.0779
24317W        W41165   0.991   3.470   1.970  0.5090 -0.0531  0.2230
24318W        W41166  14.993   9.648   2.644 -0.2127 -0.0340 -0.6162
24319W        W41167   6.099   7.013  14.544  0.1100  0.1475 -0.1524
24320W        W41168   9.207   9.979   2.421 -0.2321 -0.0306 -0.0788
24321W        W41169   6.973  15.634   2.948  0.0584  0.3237  0.2572
24322W        W41170   9.958   4.758  12.363 -0.0535 -0.0646  0.0350
24323W        W41171   5.221  14.685  16.448  0.4098  0.0540 -0.0965
24324W        W41172  14.447   1.712  15.071 -0.0083  0.0504  0.0534
24325W        W41173  16.693   4.162  14.686 -0.1914 -0.0457 -0.1365
24326W        W41174   7.698  11.974  12.868 -0.0408  0.2305 -0.0293
24327W        W41175   2.102  13.967  15.439  0.1498  0.0214  0.0950
24328W        W41176  16.164  17.153  13.606  0.4013 -0.1000 -0.0375
24329W        W41177  13.057   2.519  12.172  0.0936 -0.0916  0.0145
24330W        W41178  13.616  14.438  12.922 -0.5146  0.3030 -0.0953
24331W        W41179  14.753   1.543   1.539  0.2555 -0.0880  0.2191
24332W        W41180   1.439  15.287  15.237  0.2863 -0.0882 -0.0068
24333W        W41181   5.312  17.148   3.851 -0.1480 -0.2278  0.0169
24334W        W41182   0.765   7.574  17.431  0.0455 -0.1015  0.0250
24335W        W41183  16.917  11.519  12.297  0.1372 -0.0040 -0.1511
24336W        W41184   5.267  11.734   3.822  0.1238  0.0457 -0.1409
24337W        W41185   3.908   1.294   5.974 -0.0328 -0.0463 -0.0856
24338W        W41186   4.112   0.472  17.609  0.1619  0.2896 -0.0923
24339W        W41187  14.645   2.515  15.310 -0.0684  0.1095 -0.3350
24340W        W41188  11.473   8.297  15.064 -0.3092  0.0532  0.0282
24341W        W41189  13.547  12.603   2.565  0.1358 -0.0153  0.0819
24342W        W41190   7.835  13.890   1.066 -0.1483  0.1140 -0.2779
24343W        W41191   4.455   5.763   4.489  0.3259  0.0298 -0.2496
24344W        W41192   9.791  15.457  14.972  0.2125  0.0740  0.0714
24345W        W41193   6.732  13.563   2.455 -0.0060  0.2245 -0.0039
24346W        W41194   1.493   8.421  16.609 -0.4221 -0.0485  0.0880
24347W        W41195   2.520  15.683  15.000 -0.1173 -0.0343 -0.0224
24348W        W41196   2.490  12.397  11.829  0.1319  0.2034 -0.3115
24349W        W41197  10.941  14.864  15.818  0.0522 -0.2141 -0.0092
24350W        W41198   7.059   4.111  12.160  0.0506  0.1845 -0.2100
24351W        W41199  13.149   0.744  14.215 -0.3243 -0.1324  0.1368
24352W        W41200   7.378   6.178  17.707  0.0178 -0.1559  0.2745
24353W        W41201   0.731  13.539  16.364  0.0119  0.2966 -0.1277
24354W        W41202   6.789   9.367   0.994 -0.1647  0.0483  0.2659
24355W        W41203   7.743   8.172   3.085  0.0664 -0.1765 -0.4382
24356W        W41204  13.078   7.765  16.164 -0.2271 -0.0383 -0.1440
24357W        W41205  14.302  13.905  15.147 -0.2783 -0.0484  0.1371
24358W        W41206   9.614  10.536   0.498  0.1047 -0.0406  0.0683
24359W        W41207   0.232   8.552   3.009 -0.2062  0.1779  0.2822
24360W        W41208   3.344  10.792  16.096  0.0975 -0.0494  0.0373
24361W        W41209  11.771  12.414  16.314  0.2323 -0.0685 -0.0836
24362W        W41210   4.386   6.419   1.548 -0.2728 -0.2189  0.0849
24363W        W41211  12.561   5.737   3.241  0.1136  0.1528 -0.1915
24364W        W41212  17.050   4.819  17.221 -0.0382  0.2802 -0.0562
24365W        W41213   4.260   6.188  16.090 -0.0747 -0.1640 -0.1959
24366W        W41214  12.630   0.016  15.518  0.0478 -0.0552 -0.0713
24367W        W41215  13.853  11.851   2.414 -0.1012 -0.0615 -0.3185
24368W        W41216   5.349  10.047   5.087  0.2708  0.2056  0.3544
24369W        W41217   2.049   6.644  16.328 -0.0858 -0.3884  0.1114
24370W        W41218  13.396  12.750   3.860  0.2946 -0.0481 -0.1869
24371W        W41219   1.822  12.984  14.701 -0.0829 -0.1949 -0.1110
24372W        W41220   5.916   7.735  12.186  0.0240  0.1885 -0.1703
24373W        W41221  11.474  16.373   3.342 -0.0738 -0.1286 -0.0835
24374W        W41222   0.474  15.628   5.968  0.1287 -0.2627 -0.3405
24375W        W41223   1.270  16.213   1.413 -0.4244  0.1457  0.1532
24376W        W41224  16.008   8.197  14.277  0.3238 -0.0728 -0.2852
24377W        W41225  10.392   7.979   1.964 -0.0759  0.2860  0.0694
24378W        W41226   7.378  10.156   3.470 -0.0539  0.0587 -0.1018
24379W        W41227  13.322   6.546  17.547  0.0963 -0.2835 -0.1213
24380W        W41228  15.705   3.433  16.081 -0.1935  0.0891 -0.1796
24381W        W41229  16.704  16.326   3.495  0.1649  0.1609 -0.0156
24382W        W41230   0.201   4.086  12.070 -0.3199  0.3484 -0.0868
24383W        W41231   3.078   6.716   1.797  0.0626 -0.0333 -0.1147
24384W        W41232   0.998  11.699  16.423  0.1797 -0.3340  0.0574
24385W        W41233   4.723   5.044   3.685  0.1333  0.3338  0.6353
24386W        W41234  17.061  13.147  17.342  0.2689 -0.1549  0.0399
24387W        W41235   6.483   4.083   4.896  0.3410 -0.0381 -0.0399
24388W        W41236  12.463   7.018   0.818 -0.1624  0.0222 -0.1068
24389W        W41237   6.709  11.866  16.801 -0.2508  0.1639  0.1634
24390W        W41238  12.075  10.916  16.776 -0.0177  0.1264 -0.3219
24391W        W41239   4.591   7.296   3.928  0.2115 -0.3572  0.1272
24392W        W41240   2.337  14.518   0.768 -0.0304  0.1258  0.2913
24393W        W41241  10.840  11.001   0.940 -0.0381 -0.2136  0.0166
24394W        W41242  16.048   5.918   0.004  0.1130  0.1237  0.0793
24395W        W41243  14.898  16.328   0.138  0.1558  0.1372 -0.0992
24396W        W41244   8.389   6.097   0.298  0.0454 -0.3978  0.0981
24397W        W41245   3.935  15.047  16.663  0.1555 -0.0292  0.1514
24398W        W41246  13.357   4.756   3.367 -0.0593  0.1078 -0.2688
24399W        W41247   2.409  11.272  17.312  0.1759 -0.1175 -0.2026
24400W        W41248  11.542  13.129   6.493  0.0603 -0.1606 -0.2701
24401W        W41249  12.000   4.086   3.384 -0.0176 -0.1457 -0.1489
24402W        W41250   6.946   9.752  12.218 -0.1275  0.0896 -0.3762
24403W        W41251  13.495   5.154   3.100 -0.1296  0.1334 -0.0785
24404W        W41252  12.653  11.279   5.512 -0.1102 -0.0018  0.0462
24405W        W41253  11.412   2.760   0.253  0.1290 -0.0660  0.0064
24406W        W41254  10.245   8.522   0.626 -0.0430  0.2598 -0.0048
24407W        W41255  15.894  15.831  15.836 -0.2339 -0.0705 -0.1277
24408W        W41256   4.699  16.416  13.295 -0.0099 -0.1308 -0.0958
24409W        W41257   1.316  15.102   3.199 -0.1309 -0.0861  0.2278
24410W        W41258   0.831   7.745   0.187 -0.2042 -0.2177  0.1714
24411W        W41259   5.702   1.685   0.933  0.1149  0.1030 -0.0874
24412W        W41260   9.354  12.367   1.725  0.1611 -0.1592 -0.1495
24413W        W41261  14.734   6.227  13.492 -0.2243 -0.2726 -0.1373
24414W        W41262   5.732   1.641   1.908  0.2887  0.2707  0.3951
24415W        W41263   1.826  16.197  12.457 -0.0219  0.1547  0.0280
24416W        W41264   0.899   4.162  13.367 -0.0437 -0.1595 -0.1109
24417W        W41265   1.756  13.214   0.217 -0.1443  0.3108  0.1554
24418W        W41266  11.567  10.641  14.190  0.1480 -0.1146 -0.0469
24419W        W41267  15.023  13.530  17.241 -0.0102  0.0922  0.0201
24420W        W41268  12.864   3.045   1.208  0.0605 -0.0973 -0.0932
24421W        W41269  17.134   1.659   2.925 -0.0562  0.1733  0.0007
24422W        W41270   6.247  15.014   1.241 -0.0100  0.1473 -0.2875
24423W        W41271   1.528   9.924   3.982 -0.1949  0.0834  0.1632
24424W        W41272   5.620   4.651   1.499  0.3164 -0.1373  0.0364
24425W        W41273   5.838  16.826   1.994  0.2819  0.1858  0.0694
24426W        W41274   2.724   7.377  15.132 -0.1600 -0.1621  0.0260
24427W        W41275   8.694   2.972   0.522  0.4331 -0.0601  0.0819
24428W        W41276   7.383   5.875  12.997  0.0491  0.0847 -0.2180
24429W        W41277  13.897   5.009   2.500  0.0487 -0.0373  0.0062
24430W        W41278  14.534  13.172   2.504  0.0353  0.0481  0.0457
24431W        W41279   1.499   4.708  15.464  0.1988 -0.0102 -0.1722
24432W        W41280   1.917   0.659   1.482  0.2073  0.0348 -0.1307
24433W        W41281   5.295   9.094  14.352  0.1133 -0.1257  0.1007
24434W        W41282   9.225  16.402   0.550  0.2200  0.0170  0.1884
24435W        W41283   6.832   6.382   4.312  0.0845  0.1983 -0.1082
24436W        W41284   1.445   0.424   5.589  0.0375 -0.0623 -0.3139
24437W        W41285   9.203  13.547   3.652 -0.0819  0.1892  0.0329
24438W        W41286   9.538  10.774   2.712 -0.2044  0.3371  0.1493
24439W        W41287  17.042   8.934   0.906 -0.2529  0.1000 -0.2983
24440W        W41288  14.093  15.418   0.693  0.0329  0.3856 -0.1354
24441W        W41289  13.425  11.618   2.807 -0.0739  0.2980  0.1965
24442W        W41290  12.398  13.137  16.199 -0.0003 -0.4419 -0.1742
24443W        W41291  16.407   8.251  16.110  0.1408 -0.2293  0.0576
24444W        W41292  13.377   9.321   5.555  0.0688 -0.2759  0.0235
24445W        W41293   8.727  16.051  16.617 -0.1573 -0.1212 -0.2692
24446W        W41294   1.584   4.148  15.320  0.0904  0.0366 -0.0357
24447W        W41295   4.133  15.758  13.391 -0.0273  0.1394 -0.0061
24448W        W41296  11.317   4.843  14.390  0.0758  0.2515  0.1932
24449W        W41297  16.997   6.110  13.344  0.1029  0.1683  0.0648
24450W        W41298   8.441  15.997   0.877  0.0952  0.1477 -0.1655
24451W        W41299  11.756   9.194  12.581  0.0715 -0.0591 -0.2254
24452W        W41300   2.865  10.664  14.533  0.0141  0.1521  0.1966
24453W        W41301   5.693  14.293   2.641  0.0782  0.0717  0.2325
24454W        W41302   2.955   8.611  14.372 -0.5254  0.1869 -0.1082
24455W        W41303  12.631   4.586  13.775  0.3010 -0.1261  0.4819
24456W        W41304  14.606  15.911   0.142 -0.1423  0.0149 -0.1733
24457W        W41305   7.249  11.591  17.555 -0.2606 -0.2069  0.1674
24458W        W41306   9.813   2.615  13.910  0.0080  0.0449  0.2722
24459W        W41307   0.636   9.180  12.173 -0.1055  0.1540 -0.0109
24460W        W41308  10.319  11.520  14.912 -0.0610 -0.1885  0.0266
24461W        W41309   2.080   3.553  12.960  0.2225 -0.0579  0.1102
24462W        W41310  13.792   7.561  12.928 -0.0889  0.0846 -0.1751
24463W        W41311   4.774   1.717  16.774 -0.1991 -0.0938  0.0263
24464W        W41312   8.363   0.390  16.416 -0.3471 -0.1605  0.0191
24465W        W41313   8.337  12.480  12.485  0.0718 -0.1499  0.4190
24466W        W41314   4.753  10.940  16.387 -0.0417 -0.2711  0.1331
24467W        W41315   6.062  12.323   2.838  0.0222 -0.0545  0.4171
24468W        W41316   4.312   5.469   2.068  0.2605  0.0887 -0.1511
24469W        W41317   1.970  15.821   0.414 -0.2737  0.4289 -0.0111
24470W        W41318  10.888  13.749   3.733 -0.1232 -0.2335  0.0033
24471W        W41319   0.423   6.163   4.789  0.1686  0.0746  0.1084
24472W        W41320  10.174   2.534   5.263 -0.1801  0.1256 -0.1929
24473W        W41321  13.290   3.508  14.087  0.1037  0.1194  0.2462
24474W        W41322   8.961  16.246  14.745  0.0081  0.1486  0.0473
24475W        W41323  13.458  14.486  13.900  0.3783 -0.2344 -0.2842
24476W        W41324  15.421  11.782  12.182  0.0755  0.2278 -0.1267
24477W        W41325  14.444  11.192   4.770  0.1280  0.0400 -0.0050
24478W        W41326  13.603   0.618   3.854  0.0041 -0.0113 -0.3861
24479W        W41327  12.789  12.146  14.049  0.0395 -0.1184 -0.1382
24480W        W41328   9.232  13.245   6.048  0.0117  0.0963  0.0207
24481W        W41329   5.751   8.371   5.569  0.2344 -0.1306  0.0577
24482W        W41330  16.809  14.579   1.976 -0.2028  0.1943 -0.0654
24483W        W41331  11.368   2.274  11.949  0.0465  0.4021  0.1710
24484W        W41332   9.440   7.000   5.685  0.1645 -0.1907  0.1137
24485W        W41333   7.223   7.435   3.392  0.0516 -0.0306 -0.0798
24486W        W41334   6.808   4.666   2.203 -0.3340  0.0493 -0.1392
24487W        W41335   9.385  13.335  12.393 -0.1435 -0.0757 -0.1184
24488W        W41336   0.560  12.018   2.724  0.1995  0.1404 -0.0331
24489W        W41337   4.867   0.550   6.683 -0.2824 -0.0606  0.3801
24490W        W41338  14.401   7.986  13.673 -0.3421 -0.1604  0.0030
24491W        W41339  11.284   6.199  17.432  0.1699  0.0517  0.0010
24492W        W41340   5.888  14.865   0.927 -0.0206  0.1868  0.1597
24493W        W41341   6.709  10.861   0.279  0.2754 -0.1235  0.2540
24494W        W41342  14.883  10.375   5.218 -0.1303  0.0734 -0.1835
24495W        W41343  12.579  10.127   3.685 -0.1515 -0.1892 -0.1812
24496W        W41344  10.193   1.951   4.570 -0.1795 -0.1329 -0.2147
24497W        W41345  10.755   0.272  14.465 -0.0422  0.3506  0.0156
24498W        W41346   7.332   1.563   5.411  0.1744 -0.1958 -0.2187
24499W        W41347   1.261   3.800  13.504  0.0595  0.1658  0.2704
24500W        W41348   2.721  12.549  14.313  0.2722 -0.1364 -0.1856
24501W        W41349  14.583   1.139   0.250 -0.1361 -0.0774  0.2546
24502W        W41350   8.162  10.993  16.426  0.0904 -0.1969 -0.1865
24503W        W41351   3.094   8.731   4.879 -0.0550  0.3959 -0.2468
24504W        W41352  14.232   5.868   1.538 -0.3031 -0.2527  0.0150
24505W        W41353   8.739  16.507  16.509  0.3787 -0.0965  0.0038
24506W        W41354   3.153   1.100   1.835  0.2445 -0.1020  0.2923
24507W        W41355   3.297  16.647   5.986  0.0665  0.1881 -0.2128
24508W        W41356   4.356  13.244  17.049  0.0696 -0.1440 -0.1738
24509W        W41357   4.208  14.258  15.014 -0.1478 -0.0428  0.2409
24510W        W41358  15.857   8.080   4.613  0.1022 -0.1744  0.0024
24511W        W41359  16.054  10.506   3.842  0.2874 -0.3095  0.1130
24512W        W41360  13.775   0.129  13.044 -0.0438 -0.0098 -0.0760
24513W        W41361  17.041   5.972   3.037  0.1468  0.0980  0.1162
24514W        W41362  11.500   2.450  13.102 -0.4262 -0.0946  0.0959
24515W        W41363   6.017   7.550   4.799 -0.1464 -0.2216 -0.3429
24516W        W41364   3.808   3.420  17.704 -0.1443  0.0657  0.0158
24517W        W41365   1.313  14.876   0.222 -0.1666  0.0952  0.0496
24518W        W41366   2.932   7.424   3.900 -0.2711 -0.0615  0.1918
24519W        W41367  16.240   2.874   0.370  0.3290 -0.2645 -0.0116
24520W        W41368   9.992   5.275  17.263 -0.0760 -0.2202 -0.0742
24521W        W41369   0.173   3.932  13.118  0.2282 -0.0604 -0.3473
24522W        W41370  12.198  12.954   3.263  0.0329  0.0283  0.1085
24523W        W41371   4.477   6.643  12.332  0.3293  0.0972 -0.0191
24524W        W41372  14.512   4.731  15.363 -0.0374 -0.0652 -0.0532
24525W        W41373  11.536  14.389  13.027 -0.0909  0.2301  0.1272
24526W        W41374   2.793  12.014  16.594 -0.1422 -0.0252 -0.0804
24527W        W41375  15.523   4.376   1.644 -0.0624 -0.1349 -0.0124
24528W        W41376  16.098  16.412   4.549  0.5222 -0.1300 -0.0074
24529W        W41377  16.010  15.171   5.566 -0.0867 -0.1245 -0.1720
24530W        W41378  14.965   3.132  12.455 -0.4081  0.3307  0.1021
24531W        W41379  10.406   7.803   3.501 -0.0427 -0.1523  0.0963
24532W        W41380   5.525   6.208  17.580 -0.0035  0.0405  0.0513
24533W        W41381  13.812   2.604  14.741  0.0503 -0.1797 -0.3814
24534W        W41382  13.655   3.008  13.398 -0.0675  0.1985  0.0835
24535W        W41383  11.847   1.403  12.160  0.0748 -0.1490  0.2148
24536W        W41384  11.955   1.609   5.037 -0.1037  0.0723 -0.1955
24537W        W41385   4.613   1.915  17.207 -0.1591 -0.1104 -0.2320
24538W        W41386   7.244  13.573   3.761 -0.0653 -0.1588 -0.3990
24539W        W41387   3.924  17.162   4.507  0.0355  0.2273 -0.0844
24540W        W41388   9.864  13.997  15.554 -0.0491 -0.4910  0.0596
24541W        W41389  13.116  10.494   1.944 -0.2366 -0.1996 -0.2428
24542W        W41390  14.819   9.558  15.462 -0.2823  0.0322 -0.0818
24543W        W41391   9.800   6.352  15.050  0.0352 -0.1932  0.0928
24544W        W41392  15.628   0.023  13.360 -0.0487 -0.1376  0.4391
24545W        W41393   9.165   1.972  14.019 -0.1848 -0.0814  0.0173
24546W        W41394   5.459  11.972   2.286 -0.0865  0.1096 -0.2593
24547W        W41395   4.116   1.535   3.353 -0.5475 -0.2991  0.2791
24548W        W41396   7.983   8.431  17.033  0.0098 -0.3715  0.0426
24549W        W41397  13.539  12.772  12.435  0.4234 -0.1448 -0.0149
24550W        W41398  15.648  14.362   3.877  0.1623  0.0465 -0.0882
24551W        W41399   4.859  16.522   1.036 -0.1170 -0.1535 -0.2826
24552W        W41400  11.133  11.056  14.695 -0.1158  0.1384 -0.1833
24553W        W41401   6.210   4.040   3.965 -0.2141 -0.1270 -0.1534
24554W        W41402   0.544  15.358   4.606  0.2009 -0.0460 -0.0118
24555W        W41403   0.308   9.155  12.993  0.1262  0.1223 -0.1949
24556W        W41404  15.432  15.183  17.586  0.1052  0.1095 -0.1120
24557W        W41405  13.231  10.048  13.407 -0.0415  0.0270  0.0189
24558W        W41406   7.777  11.669   0.880  0.1245 -0.0527 -0.1306
24559W        W41407  11.164  12.349   5.732  0.2063 -0.0855  0.1811
24560W        W41408   1.006  11.057   4.965 -0.3526 -0.0533 -0.0230
24561W        W41409  13.853   5.004  15.407  0.0477 -0.0487  0.3053
24562W        W41410   0.802  15.047   1.783 -0.2847  0.0219  0.0797
24563W        W41411   8.443  14.735   3.483 -0.2927 -0.2608  0.1559
24564W        W41412   1.658   5.250   1.098 -0.1408 -0.1923  0.0747
24565W        W41413   3.391   5.817  13.794 -0.0295  0.0640 -0.0331
24566W        W41414   3.821  16.156  13.887  0.0225  0.1368  0.0339
24567W        W41415   4.778  15.412  16.037  0.0989 -0.2228  0.0604
24568W        W41416  11.737  16.684  15.075  0.2061 -0.3394  0.1231
24569W        W41417  10.456   1.095   0.040 -0.1610  0.1027 -0.0295
24570W        W41418   7.577   4.066  16.018  0.0216  0.1042  0.1014
24571W        W41419  12.163   4.730   1.060  0.0892 -0.2022 -0.0489
24572W        W41420   8.809   1.168  16.895 -0.1964 -0.1370  0.0265
24573W        W41421   2.440   4.662  14.846  0.0415 -0.1143  0.0793
24574W        W41422   3.081   5.471  12.455  0.0773 -0.1493  0.1008
24575W        W41423   4.937   3.573   3.720 -0.0189 -0.2700 -0.0040
24576W        W41424   6.255   0.591  16.852  0.0239 -0.0188 -0.1777
24577W        W41425   7.303   8.382   1.839 -0.3441  0.1315  0.4181
24578W        W41426   8.937  14.513  17.619  0.2654  0.1049 -0.0822
24579W        W41427  12.450  14.685   3.794 -0.0956  0.1810  0.1098
24580W        W41428  12.380  12.816  12.834  0.0424  0.0552  0.0642
24581W        W41429  14.205   2.629  16.139 -0.1655 -0.0053 -0.0376
24582W        W41430   8.482   3.672  11.839 -0.0314  0.1031 -0.1016
24583W        W41431  11.811   2.116  11.510 -0.2138 -0.0139  0.0467
24584W        W41432   6.025   4.723   2.574  0.0391  0.1523 -0.3369
24585W        W41433   2.012   9.828  13.223 -0.0409 -0.1186 -0.0382
24586W        W41434   1.920   1.636  14.360  0.0169  0.1459 -0.1325
24587W        W41435   1.997   8.057  16.666  0.0081 -0.2762 -0.1189
24588W        W41436  16.591  13.171   1.773 -0.0564  0.1008  0.1372
24589W        W41437   2.532   5.265   2.372  0.1742 -0.1428 -0.0091
24590W        W41438   6.674   7.925  14.178 -0.0338  0.0942 -0.0707
24591W        W41439   7.205  11.157   3.998  0.0481 -0.0118  0.0451
24592W        W41440  12.536   3.520  16.170 -0.1576 -0.0268  0.2552
24593W        W41441  16.146   0.104  15.944 -0.0081 -0.1759 -0.0875
24594W        W41442   3.754  10.442   1.324 -0.0060 -0.0733 -0.0944
24595W        W41443   0.840  16.364  14.405 -0.1298 -0.0326 -0.2608
24596W        W41444   1.666   0.704   4.849  0.0766 -0.1338 -0.0014
24597W        W41445  11.336   2.607   3.279 -0.3487 -0.2461  0.0885
24598W        W41446  13.221  13.969   0.085 -0.2244  0.1162  0.0097
24599W        W41447  10.743  17.166   1.118 -0.3569  0.0891 -0.0512
24600W        W41448   6.885  14.379   1.235  0.1666  0.0372  0.0836
24601W        W41449   3.568  12.089   4.579  0.0143 -0.0369  0.3168
24602W        W41450   5.436  15.877  14.716 -0.4356 -0.0855 -0.0996
24603W        W41451   5.097  14.977  15.389 -0.3081  0.2061  0.1091
24604W        W41452  16.499  11.585   4.510  0.0233 -0.0436  0.1012
24605W        W41453   8.198   0.267  14.919 -0.1445  0.0598 -0.1530
24606W        W41454  10.706   5.667  13.636 -0.0578  0.1258  0.1016
24607W        W41455  10.754  15.445  16.695  0.2860 -0.0427 -0.0792
24608W        W41456  17.043   5.179  15.596 -0.0249 -0.0310 -0.1670
24609W        W41457   0.957  13.750   3.726  0.1571  0.1035 -0.0931
24610W        W41458   0.588   8.615   0.336  0.2135 -0.2507  0.1177
24611W        W41459  12.883  13.709   1.026 -0.0213 -0.0501  0.2424
24612W        W41460  14.956  14.093  15.229 -0.2602  0.3028  0.0116
24613W        W41461   8.163   5.446  13.825 -0.1992  0.1344  0.0360
24614W        W41462  15.147   9.047  12.365 -0.1340 -0.1619 -0.1315
24615W        W41463   9.155   5.378  13.618 -0.0418  0.5557 -0.0324
24616W        W41464   8.274   5.388  12.840  0.0125  0.1457  0.1985
24617W        W41465  15.170   1.616  16.050 -0.1825 -0.2362 -0.1684
24618W        W41466   0.779   7.662  12.123  0.1360  0.2390  0.1734
24619W        W41467  10.747   4.954   3.747 -0.1072 -0.0354  0.0784
24620W        W41468   0.416   1.862   0.417  0.1941  0.0398 -0.1493
24621W        W41469   8.234  12.431  17.776 -0.2501  0.0367  0.0783
24622W        W41470  13.719  15.324  13.259 -0.1559 -0.1839 -0.0732
24623W        W41471  17.127   7.245  16.051  0.0971 -0.2261  0.1608
24624W        W41472   7.486   4.943  16.109 -0.2774  0.1442  0.2310
24625W        W41473  10.373  10.265   4.910  0.1165  0.0329  0.1174
24626W        W41474   3.975   2.448  12.605 -0.0446  0.5554 -0.4510
24627W        W41475   0.574   3.000   4.442 -0.0156  0.1430  0.2712
24628W        W41476  15.727   3.420  13.490  0.1055 -0.1169  0.1197
24629W        W41477  14.522   8.099  15.056 -0.2141  0.2029 -0.4183
24630W        W41478  10.492   4.062  13.818 -0.2713 -0.0074 -0.1041
24631W        W41479   8.372   3.635   2.482 -0.1983  0.0766 -0.2081
24632W        W41480   1.976   8.010  12.643 -0.1472 -0.1557  0.0438
24633W        W41481  10.146  12.830  16.934  0.2347  0.2392 -0.0796
24634W        W41482  15.288   9.788  13.056  0.0833 -0.1320  0.2052
24635W        W41483   8.834   5.870   4.380 -0.3048 -0.2155 -0.0774
24636W        W41484   3.023   9.516   4.878  0.1231  0.1249 -0.0997
24637W        W41485  16.433   9.225  14.712 -0.0435  0.0301 -0.0718
24638W        W41486   3.125  12.771  12.457 -0.0630  0.0081  0.0132
24639W        W41487   7.570  11.305  15.927 -0.2473 -0.0316 -0.0889
24640W        W41488   5.413  14.641  16.974 -0.3171 -0.0787 -0.0275
24641W        W41489   3.923   0.274  13.797 -0.2387 -0.1164  0.0164
24642W        W41490  11.500   0.590   0.876 -0.2926  0.0377  0.0641
24643W        W41491  13.821   5.706  14.353  0.0668  0.1829 -0.0514
24644W        W41492  13.356  13.864   4.876  0.0838  0.1325 -0.0569
24645W        W41493   3.558   0.482  16.542 -0.0744 -0.2821 -0.1498
24646W        W41494   5.257   0.606  16.978  0.2058  0.0886  0.1511
24647W        W41495   5.865   1.279   2.241 -0.3537  0.2679 -0.0464
24648W        W41496  16.012  13.820  14.721  0.2960  0.0925  0.2169
24649W        W41497   1.596   8.412   5.914  0.0090  0.2242 -0.2342
24650W        W41498   4.113  11.105  14.985 -0.3160  0.2262 -0.2219
24651W        W41499  15.974  12.495   3.123 -0.0126  0.0037 -0.1673
24652W        W41500   2.981   5.771  16.949  0.0480  0.4654  0.0634
24653W        W41501  11.727  11.794  15.015  0.0859  0.0715 -0.3140
24654W        W41502   9.264  11.718  15.238  0.2034 -0.2211 -0.0617
24655W        W41503   4.374   1.574   0.498 -0.2492  0.2838 -0.2533
24656W        W41504   5.513   9.823   5.618  0.1806  0.0673  0.0653
24657W        W41505  16.024  14.374   0.258 -0.1424  0.0495 -0.2109
24658W        W41506   4.153  14.221  13.395  0.4989 -0.3398 -0.2277
24659W        W41507   5.875  10.130   1.884  0.1543 -0.0070  0.0100
24660W        W41508   8.869   4.834   4.280 -0.1811  0.0172 -0.0089
24661W        W41509  13.200  11.027  14.696 -0.3857 -0.3762  0.0563
24662W        W41510  12.963   0.347  16.985 -0.0406 -0.0035  0.2641
24663W        W41511   8.143  15.655   3.386 -0.0692 -0.3030 -0.2200
24664W        W41512   0.844  12.410  15.725  0.0633 -0.1254  0.0362
24665W        W41513   4.296   1.698  15.296 -0.2906 -0.0840  0.2178
24666W        W41514  11.692   1.842  15.837  0.0852 -0.1757  0.1235
24667W        W41515   9.539   3.789  15.370  0.0812  0.2084 -0.0423
24668W        W41516   0.215  16.682  12.343 -0.0113 -0.2498  0.3727
24669W        W41517   8.583   9.097  17.637  0.0835  0.2605 -0.0896
24670W        W41518  10.695   2.265  17.688  0.0717  0.0738  0.0989
24671W        W41519   9.479  10.837  13.182  0.1638 -0.0708  0.0998
24672W        W41520  14.395   4.691   3.033 -0.0475  0.1995  0.0343
24673W        W41521   7.350   0.237  14.813  0.0962  0.1315  0.0709
24674W        W41522  15.508   2.109  17.228  0.1451  0.0464  0.1615
24675W        W41523  13.718  10.533   0.572  0.1160 -0.3401 -0.0186
24676W        W41524   5.544  10.900   5.034  0.0615 -0.0029  0.1524
24677W        W41525  15.615  10.874   3.072  0.1337  0.1349 -0.2028
24678W        W41526  10.834   8.719  12.352 -0.5014 -0.1885  0.5977
24679W        W41527   4.055  17.062  14.173  0.1047  0.0298  0.0353
24680W        W41528   2.527   9.123   1.470 -0.2860 -0.3307 -0.1610
24681W        W41529   6.243  15.359   5.516 -0.1506 -0.0384  0.0086
24682W        W41530   4.815   4.270  16.009  0.3448 -0.1880  0.0822
24683W        W41531   1.325  12.728  12.617  0.2766 -0.4194 -0.1182
24684W        W41532   3.374   7.024   1.559 -0.3868  0.0194  0.0829
24685W        W41533   5.931   4.576  13.170 -0.0711 -0.2469  0.1160
24686W        W41534  14.315   4.248  14.944 -0.4576  0.2497 -0.1136
24687W        W41535  14.467  12.927  14.272  0.0704  0.0185 -0.0314
24688W        W41536  16.782   4.605   4.006 -0.1878  0.0956 -0.2802
24689W        W41537  10.747  16.854   1.595  0.1000 -0.1913  0.0590
24690W        W41538  11.272   3.104  17.635  0.2654 -0.2014 -0.3252
24691W        W41539   8.267  12.726  16.329  0.4340  0.1506  0.1213
24692W        W41540   6.900  16.436   0.298  0.0590  0.2605 -0.0392
24693W        W41541   6.059   5.634  15.190  0.1231 -0.0549 -0.1711
24694W        W41542   6.689   2.421  15.510  0.3602 -0.0954  0.0161
24695W        W41543  14.149  12.775   1.074 -0.0627  0.0546  0.1020
24696W        W41544   4.835   8.322  13.808  0.1669  0.3216 -0.1219
24697W        W41545  15.366   6.595   3.712 -0.0083  0.0663  0.0559
24698W        W41546  11.453  13.409  16.703  0.2103  0.0095  0.0382
24699W        W41547   8.336  15.241   4.830  0.1667 -0.1198 -0.2187
24700W        W41548   2.064   0.840  16.018 -0.2618 -0.2706 -0.0595
24701W        W41549   1.063  12.455  14.207 -0.2891  0.1080 -0.1410
24702W        W41550   9.053   4.959   0.401 -0.0215 -0.0233  0.0550
24703W        W41551   1.288  13.285   0.265  0.2541  0.0602  0.2814
24704W        W41552  14.740   4.648   4.863  0.0362  0.0140  0.1439
24705W        W41553  10.447   7.002   5.193 -0.2229  0.0034  0.3238
24706W        W41554   0.228  16.572   5.992  0.0646 -0.1078  0.1811
24707W        W41555   1.944   8.114   4.318 -0.3605  0.0457  0.0152
24708W        W41556   1.446  14.317   2.165 -0.1181  0.0128 -0.0730
24709W        W41557  11.468   3.249  12.500 -0.1210 -0.2949 -0.2074
24710W        W41558   8.795   2.691   5.012 -0.3547  0.0889 -0.1768
24711W        W41559   3.306  15.609   4.518  0.2318 -0.3575  0.2438
24712W        W41560  11.147   8.159  13.286  0.0798  0.2056 -0.0567
24713W        W41561  11.406  14.625  14.429 -0.0523 -0.0160 -0.1063
24714W        W41562   3.060  11.485   7.007 -0.1369 -0.1148 -0.0012
24715W        W41563  15.696   1.238  14.932 -0.0524 -0.0046  0.1266
24716W        W41564   0.916   9.138   3.279 -0.3042  0.2117 -0.1273
24717W        W41565  16.248   6.058   4.399  0.3130 -0.0256 -0.2174
24718W        W41566  15.482   0.874   5.107  0.0327 -0.0521 -0.0937
24719W        W41567  17.003  16.168  15.090 -0.3934  0.0040  0.0593
24720W        W41568  12.353   6.513  12.839 -0.1762 -0.2217  0.1665
24721W        W41569   9.735   9.330  12.307  0.0070  0.1571 -0.1061
24722W        W41570   0.589   0.211  13.409 -0.3484 -0.3416  0.2349
24723W        W41571   9.462   9.871  15.920  0.1060  0.1256 -0.1811
24724W        W41572   4.939   9.291   4.746 -0.1041 -0.3367  0.2579
24725W        W41573  10.485  10.231   3.074  0.1497  0.0892 -0.1095
24726W        W41574  12.202   4.433   2.706  0.0392 -0.2246  0.0745
24727W        W41575   3.597   6.408  12.525 -0.0276 -0.0673  0.0134
24728W        W41576  16.646  16.949  13.837 -0.1298  0.2858  0.1832
24729W        W41577   2.831  14.425  16.419 -0.2395 -0.1445  0.0075
24730W        W41578   8.508  16.382  14.731 -0.0142  0.1262  0.0531
24731W        W41579   4.873  12.428   0.790  0.2756  0.2226  0.1256
24732W        W41580   1.831  14.812  14.203 -0.0013 -0.0238  0.3253
24733W        W41581   1.633  10.685  16.526 -0.1932  0.1749 -0.1815
24734W        W41582   0.785  13.481   0.343  0.0366  0.1339 -0.0645
24735W        W41583   2.059   7.160  16.172  0.2381 -0.0604 -0.0367
24736W        W41584   6.384  14.489   3.458  0.0239 -0.1950  0.0700
24737W        W41585  14.783  16.532  15.368  0.2819  0.0600 -0.0807
24738W        W41586   6.170   6.725  12.848 -0.0766  0.1223 -0.3019
24739W        W41587   6.893  10.795  16.575 -0.0758 -0.2242  0.1492
24740W        W41588  15.998  16.867  16.182 -0.0097 -0.1062 -0.0678
24741W        W41589  12.999   8.706  15.531 -0.0730 -0.0278  0.1366
24742W        W41590   6.224   5.832  12.211 -0.0568 -0.0802  0.1457
24743W        W41591  16.548  15.837   5.916  0.1607  0.2647 -0.0551
24744W        W41592  15.030   0.415  17.641  0.0275 -0.1067 -0.1863
24745W        W41593  11.325   4.237  17.089  0.2638 -0.0855 -0.3334
24746W        W41594   2.943   9.599   0.936  0.4761  0.1183 -0.0871
24747W        W41595   9.627   7.483  16.985  0.1121 -0.1350 -0.3858
24748W        W41596   6.288  13.474  12.398  0.0951 -0.2847 -0.1628
24749W        W41597  13.654  15.011  16.222 -0.2415  0.2638  0.0986
24750W        W41598  15.581   1.191  12.413  0.4921  0.0279 -0.1606
24751W        W41599   6.013   9.576  13.670 -0.0408  0.0561 -0.1431
24752W        W41600  10.915   2.765  11.409  0.0146  0.2515  0.3107
24753W        W41601   4.668   4.247  15.057 -0.0558  0.0230 -0.0783
24754W        W41602  16.782   6.672  13.593  0.1278  0.1397  0.0063
24755W        W41603   5.215   6.532  13.945 -0.0223 -0.0543  0.2879
24756W        W41604  14.783   9.401   0.832 -0.0650 -0.0340  0.0007
24757W        W41605  13.073   4.939   1.784  0.3432  0.3298 -0.4481
24758W        W41606   2.041  15.782   1.082  0.4525 -0.2025 -0.1323
24759W        W41607  16.805   6.980  12.620 -0.3608  0.0497  0.0244
24760W        W41608   8.136   8.143  13.164 -0.0871  0.1365  0.1631
24761W        W41609   0.812  11.807  16.913 -0.0418  0.2988  0.0248
24762W        W41610   5.754   5.170   1.596 -0.0156  0.1812  0.0310
24763W        W41611   2.525   9.611  15.653 -0.0038 -0.1976 -0.1650
24764W        W41612   8.427   9.949   2.160 -0.1275 -0.1238 -0.0275
24765W        W41613  13.241  11.794  12.613  0.1801  0.2515  0.2132
24766W        W41614   8.716  11.163   3.523  0.2092  0.0688 -0.2342
24767W        W41615   2.569   6.552   4.170 -0.0212 -0.1332  0.0750
24768W        W41616   0.184   1.197   4.472 -0.2765  0.0839  0.3078
24769W        W41617   3.048   9.002   4.046 -0.1695 -0.0464 -0.0455
24770W        W41618   6.040  12.662   3.228 -0.0395 -0.2269 -0.0585
24771W        W41619  11.728   6.728   0.125 -0.0634 -0.2209  0.0530
24772W        W41620   9.956   5.596  15.164  0.0424  0.1368  0.1006
24773W        W41621   3.845   8.554  12.551  0.0311 -0.1051  0.0688
24774W        W41622   5.417  17.138  17.724 -0.1293  0.1567  0.0444
24775W        W41623   2.892   6.977   0.034  0.0699 -0.2222 -0.0886
24776W        W41624   3.363   3.202  12.684 -0.0774 -0.2030  0.2617
24777W        W41625   9.502  14.743   0.362  0.1000 -0.2816 -0.0267
24778W        W41626   3.009  15.882   1.309  0.0661 -0.0237  0.0175
24779W        W41627  13.401   8.312  16.221 -0.2789  0.0811 -0.2113
24780W        W41628  12.145   9.259  14.090 -0.1186 -0.0890 -0.0225
24781W        W41629   2.051   5.512   0.509 -0.0289  0.2268 -0.1293
24782W        W41630  15.375   5.632  13.797  0.0622  0.1388  0.3365
24783W        W41631   4.482  11.618  13.290  0.1261 -0.2146 -0.0252
24784W        W41632  15.583   4.727   4.627 -0.0054  0.0953  0.0730
24785W        W41633   3.954  14.184   6.011  0.1264 -0.0948 -0.1279
24786W        W41634  11.236   2.816   4.309 -0.0081 -0.0865 -0.2081
24787W        W41635   5.797  14.153   3.125 -0.1673  0.1292 -0.0321
24788W        W41636   8.659  15.611   3.606  0.1379 -0.1096  0.2172
24789W        W41637   8.455   7.731  13.101 -0.3562  0.0029  0.0005
24790W        W41638  10.550  11.715  15.805 -0.1499 -0.5521  0.0181
24791W        W41639   7.631  14.978   5.206 -0.0267 -0.0818  0.0278
24792W        W41640   4.985  10.132   3.300  0.3873  0.0727 -0.0739
24793W        W41641  11.375   0.593   3.130 -0.0113 -0.3612  0.0459
24794W        W41642  11.645  17.106   4.431 -0.3785  0.1670 -0.1831
24795W        W41643  14.240   2.794  15.611 -0.0176 -0.1087 -0.4587
24796W        W41644   1.626  11.018   2.203 -0.1075 -0.0208 -0.1685
24797W        W41645  14.576   6.732  17.671 -0.0976  0.1209  0.1336
24798W        W41646  12.445   6.701  16.709 -0.1374  0.0893  0.2253
24799W        W41647  14.337   7.689   0.187 -0.1235  0.0043  0.0542
24800W        W41648   3.434   6.074   0.605 -0.1719 -0.0536  0.1742
24801W        W41649   4.839   2.967  17.371  0.0974  0.1649 -0.0460
24802W        W41650  10.314  14.041   0.429 -0.0971 -0.0761  0.2504
24803W        W41651  11.376   9.376   2.542 -0.1730  0.1883 -0.2347
24804W        W41652   6.496   0.759  17.362  0.2022 -0.0753 -0.2732
24805W        W41653  11.406  14.154  15.988  0.1828  0.0032  0.1738
24806W        W41654  12.109  15.031  13.459 -0.0267 -0.0835 -0.0995
24807W        W41655   7.412   7.094   4.550  0.1884  0.1304  0.1517
24808W        W41656   2.086   6.674  14.845  0.0503  0.0939  0.0757
24809W        W41657  15.113  14.719   2.931  0.3485  0.0898  0.1934
24810W        W41658   4.127   6.135   4.481 -0.1057  0.3814  0.2260
24811W        W41659   6.551   9.854   5.463  0.4595 -0.2572 -0.0375
24812W        W41660  12.829  14.773  14.775 -0.1684  0.1466  0.0358
24813W        W41661   2.851   7.904   3.207 -0.1224  0.0037  0.2415
24814W        W41662   1.383  15.574   0.135 -0.3094  0.0246 -0.1310
24815W        W41663   6.473   9.972   2.422  0.0533  0.1289 -0.0712
24816W        W41664  15.825   3.474  12.143 -0.0348  0.1055 -0.3925
24817W        W41665   7.745   2.544  12.616  0.0080 -0.1048 -0.1499
24818W        W41666  10.901   5.693  12.753 -0.3103  0.1763  0.0103
24819W        W41667  15.208   1.410   5.045  0.0808  0.0303  0.1207
24820W        W41668   0.592   9.455   2.591 -0.2563  0.1577 -0.0064
24821W        W41669  15.417  10.895  16.476 -0.3382 -0.1433  0.1203
24822W        W41670   3.726   8.590  14.641 -0.2470  0.1444  0.0251
24823W        W41671   6.845  10.873  12.766  0.1489  0.3709  0.0518
24824W        W41672   3.730  15.161   1.745 -0.0800 -0.0294 -0.0598
24825W        W41673   9.223   6.134  11.951  0.2401 -0.3482  0.0223
24826W        W41674  12.480  15.742   1.979 -0.2666 -0.0654  0.0653
24827W        W41675   0.795   3.101  16.315  0.0819  0.1357 -0.0383
24828W        W41676  14.598  10.500  17.495 -0.1677 -0.0030  0.0348
24829W        W41677   0.493   4.477  12.184  0.0884  0.2855  0.2580
24830W        W41678  14.356  10.965  15.915  0.1493 -0.0701 -0.0820
24831W        W41679   9.244   8.115  14.198  0.0813  0.0307  0.0253
24832W        W41680  12.149   0.247  17.403  0.0013 -0.2111 -0.0473
24833W        W41681  12.747   4.395   3.482 -0.2513 -0.0805  0.0643
24834W        W41682   6.958  12.414   4.824  0.0798 -0.2209 -0.0285
24835W        W41683   1.880  12.720  12.745  0.5345 -0.0948  0.3078
24836W        W41684   4.914  14.643  16.899 -0.2774  0.3635  0.1874
24837W        W41685  11.650  10.012   0.511  0.0235 -0.0382  0.3550
24838W        W41686   2.556  15.536  14.148  0.0188  0.1676  0.2346
24839W        W41687  14.918  10.128   3.344 -0.2223 -0.1575  0.1595
24840W        W41688   0.300  12.787   1.710  0.0424 -0.0655  0.1609
24841W        W41689  15.829   1.290  17.209  0.0950 -0.1533 -0.0486
24842W        W41690  13.132   2.847  14.196  0.1939 -0.2471 -0.2616
24843W        W41691  12.557  14.005  16.573 -0.1289  0.0077  0.2467
24844W        W41692   5.520  12.018  12.440  0.1100 -0.0333  0.0537
24845W        W41693  11.095   1.206   2.959  0.1980 -0.0389  0.1118
24846W        W41694   7.541  16.964   5.467 -0.0147 -0.3201  0.0119
24847W        W41695   4.085   4.656  13.199 -0.0377  0.0327 -0.1612
24848W        W41696   9.668  16.306   2.465 -0.3498 -0.0141 -0.0130
24849W        W41697   9.750  15.687  14.567 -0.0442  0.1536  0.1221
24850W        W41698   0.514   6.528  13.010  0.3239  0.1297 -0.2616
24851W        W41699   5.938  16.202  12.432 -0.0173 -0.2352  0.0199
24852W        W41700  12.680   1.165   4.905 -0.0619 -0.0535 -0.0006
24853W        W41701  11.074   8.717   3.576  0.2134  0.2095 -0.0361
24854W        W41702   8.767  11.157   2.463 -0.1144  0.1215 -0.3262
24855W        W41703  14.931  16.171  12.597 -0.1493 -0.4483  0.0631
24856W        W41704  16.430  14.599   0.332 -0.0631  0.3583  0.1739
24857W        W41705   1.958   3.385  17.287  0.1033 -0.2299  0.1323
24858W        W41706  11.473  14.075  14.511  0.3675 -0.1943  0.0103
24859W        W41707  13.181   0.483   5.355  0.1612 -0.1819 -0.2364
24860W        W41708  14.525   9.469  15.038 -0.1778  0.0024  0.0089
24861W        W41709  15.424  10.129   0.351 -0.3171  0.1314  0.0189
24862W        W41710   6.136  10.208   5.613  0.2940 -0.1213 -0.0571
24863W        W41711   6.291  12.513  15.100 -0.0544  0.3099 -0.0676
24864W        W41712   9.635  15.530   5.211  0.0229  0.0606 -0.3263
24865W        W41713   1.056   7.253   1.046 -0.2824 -0.1422 -0.0480
24866W        W41714   0.919   2.433   3.307  0.0717 -0.1158 -0.5010
24867W        W41715   6.418  16.597  16.276  0.0444  0.0875  0.1727
24868W        W41716  12.089   0.951   2.788  0.2605  0.1169 -0.2153
24869W        W41717   2.147   5.000  17.011  0.0870 -0.0808 -0.2482
24870W        W41718  16.269  14.643  13.129  0.0763  0.0650 -0.0819
24871W        W41719  10.002   8.120   3.507 -0.2555 -0.1482 -0.1695
24872W        W41720  17.024  11.309  14.241 -0.0344 -0.0956  0.1044
24873W        W41721  12.803  12.071  12.626  0.1110 -0.3123  0.0801
24874W        W41722  11.334   1.747  17.280 -0.1104  0.2111  0.2700
24875W        W41723  16.736  14.070   6.144 -0.1075 -0.1347  0.1038
24876W        W41724   0.384   6.233   3.150 -0.1016 -0.0814 -0.0810
24877W        W41725  15.945   0.698  13.832 -0.1131  0.0084 -0.0720
24878W        W41726  13.658   1.151   1.248  0.4954 -0.3099 -0.1059
24879W        W41727  13.894   8.893   1.965  0.0840  0.1082  0.1174
24880W        W41728  14.673   7.033  14.834 -0.0703  0.1037  0.1703
24881W        W41729   6.387   5.793   2.937  0.2822 -0.1630 -0.0757
24882W        W41730  15.759   5.624  15.409  0.0684 -0.1878  0.0939
24883W        W41731   0.121   3.448  12.888 -0.1947 -0.0636  0.1790
24884W        W41732   2.594   8.243   3.930  0.1540 -0.0373 -0.1031
24885W        W41733  11.566  13.382   3.392  0.1471 -0.1707  0.0580
24886W        W41734  13.784  12.619   1.971 -0.1509  0.2921 -0.3456
24887W        W41735  16.627   7.566  12.572  0.1511  0.2327 -0.0256
24888W        W41736  13.328   9.989  16.521  0.0755 -0.0519 -0.3071
24889W        W41737  11.270   7.035  15.332  0.0743 -0.1859 -0.1611
24890W        W41738  13.588   5.956  16.836  0.0778  0.0377 -0.2622
24891W        W41739  11.103  15.641   3.500 -0.1983 -0.2879 -0.0489
24892W        W41740  15.143   2.931  15.174 -0.0036 -0.1136  0.0266
24893W        W41741   7.306  14.943   3.845  0.1573 -0.0799 -0.0991
24894W        W41742   3.431   7.946   1.018  0.0639  0.0369  0.3941
24895W        W41743  16.602  11.343   2.125  0.2184 -0.1868 -0.0743
24896W        W41744  15.078   9.447   5.483  0.2662  0.2286  0.1588
24897W        W41745   5.829  12.814   2.818 -0.2653  0.1029  0.0338
24898W        W41746   7.364   9.373   1.676  0.1317 -0.0287  0.0590
24899W        W41747  13.860   9.348  16.196 -0.0261  0.0432  0.2105
24900W        W41748  16.723   3.995   1.951  0.2988 -0.1510 -0.0759
24901W        W41749   9.373   0.790   2.402 -0.1972 -0.2412 -0.1420
24902W        W41750   0.727  12.386   4.759 -0.5077  0.1222  0.3447
24903W        W41751   8.968  10.991   4.325 -0.0897  0.0966 -0.0126
24904W        W41752   2.894  11.657   3.419 -0.0659 -0.1712  0.0790
24905W        W41753  11.879   4.030   4.876  0.2913  0.0419 -0.0712
24906W        W41754   4.386  16.291  16.053  0.2170  0.1989  0.1526
24907W        W41755  14.513  11.405  17.522  0.1566 -0.0312 -0.0208
24908W        W41756   0.009  16.025  12.609 -0.3105 -0.2277  0.1771
24909W        W41757   2.038   4.488   0.817 -0.2399 -0.5615  0.2224
24910W        W41758   0.809  14.301  12.428 -0.1192 -0.1835 -0.2370
24911W        W41759   5.606   8.134   0.181  0.4121 -0.0474  0.1600
24912W        W41760   9.269   1.500  14.206  0.0271  0.3045  0.1314
24913W        W41761   9.734  14.685   5.751  0.0216 -0.2792  0.1017
24914W        W41762   3.750   5.406   1.398 -0.1323 -0.1009 -0.1780
24915W        W41763  16.899   7.477  15.153  0.1487  0.1091 -0.2962
24916W        W41764  10.728   7.275  13.111 -0.0036  0.1169 -0.4004
24917W        W41765   9.977   7.030  13.964  0.1369  0.0132  0.0583
24918W        W41766  10.180   8.034  11.445 -0.1997  0.2621  0.2696
24919W        W41767   1.895  12.053   5.060  0.0723  0.1771  0.3705
24920W        W41768  10.991   9.847  15.677  0.2073 -0.1507 -0.0816
24921W        W41769   4.322   9.724  15.273  0.0676  0.3822  0.2790
24922W        W41770   8.716   1.737  13.403 -0.1115  0.0074  0.0070
24923W        W41771   8.755  10.769  15.631  0.0636  0.0557  0.3168
24924W        W41772   2.708  11.888   0.720 -0.0849  0.0033 -0.0478
24925W        W41773   1.556   1.988   0.977  0.2906  0.2554 -0.2290
24926W        W41774  10.736   7.961   5.040  0.1764  0.2130  0.3836
24927W        W41775   9.652  14.965   4.555  0.0985  0.1777  0.0251
24928W        W41776  16.085  15.587   5.861 -0.0114 -0.1634 -0.0424
24929W        W41777  11.097   9.095  13.095 -0.1751  0.0226  0.1548
24930W        W41778   7.923   6.087   1.676  0.1888  0.1150  0.0476
24931W        W41779  14.415  13.688  17.747  0.0467 -0.1580 -0.0245
24932W        W41780   1.869  13.695   5.622  0.0387  0.1257  0.2429
24933W        W41781   4.483  13.801   2.373 -0.1394 -0.2919 -0.3164
24934W        W41782  15.497   6.110  15.871  0.1301  0.2443  0.0418
24935W        W41783   6.788   0.016   1.748  0.0427  0.0751  0.0027
24936W        W41784   3.709   4.987  16.835  0.1549  0.1149 -0.4007
24937W        W41785   3.838   8.605   3.689 -0.1320  0.0052 -0.0749
24938W        W41786  13.979   4.944  12.160  0.1711  0.2577  0.1915
24939W        W41787   8.377  13.262  14.691 -0.0024 -0.0268 -0.2021
24940W        W41788  10.901   5.397  13.161  0.1450 -0.0875  0.2179
24941W        W41789  16.256   3.847   5.362 -0.2515 -0.0038  0.1464
24942W        W41790  10.302  16.784  12.496 -0.1511 -0.0561  0.2428
24943W        W41791  10.979  10.237   2.146  0.1673 -0.1407 -0.0552
24944W        W41792   9.179   7.461   5.659  0.3738  0.1645 -0.0170
24945W        W41793   0.494   7.042   1.786  0.0589 -0.0461 -0.0798
24946W        W41794  11.041   0.288  16.611  0.1714  0.2445 -0.1133
24947W        W41795  16.065  13.993   1.059 -0.0558  0.2301  0.0489
24948W        W41796   8.309   0.254  12.697 -0.0193  0.2583 -0.1144
24949W        W41797  15.812   1.045   1.741 -0.1793 -0.0711  0.2118
24950W        W41798  13.354   6.455   4.668 -0.0006  0.1630  0.1114
24951W        W41799  12.398   8.604  12.934 -0.0204  0.1027 -0.0234
24952W        W41800  16.404   1.098   0.215 -0.0564  0.2396  0.1374
24953W        W41801  16.040   1.020  15.820 -0.0876 -0.3097  0.1313
24954W        W41802   5.232  15.516   2.388 -0.1629 -0.0557  0.1048
24955W        W41803  14.226   3.408   3.751  0.1042 -0.1994  0.2752
24956W        W41804  16.053   5.229  15.938  0.0294  0.0601 -0.1717
24957W        W41805  12.442  10.575  12.549 -0.0415 -0.4094  0.1534
24958W        W41806   2.452   4.787   1.040  0.0848 -0.0442 -0.1120
24959W        W41807   6.470   1.199   3.101  0.0420  0.1921  0.2145
24960W        W41808  11.479   1.036  14.541  0.0582  0.2301  0.3758
24961W        W41809  14.098  12.323  13.690 -0.4011  0.2204  0.0146
24962W        W41810   4.494   6.306  16.877  0.1332  0.0367  0.2584
24963W        W41811  12.523  15.479  12.529  0.1098 -0.1778  0.0440
24964W        W41812   8.053  16.185   3.211  0.1770  0.1690  0.0202
24965W        W41813  13.573   3.146  14.261  0.0342 -0.0014  0.0342
24966W        W41814   8.290   5.160  12.111  0.0120 -0.3160 -0.0117
24967W        W41815  11.535   8.812  16.542  0.0665  0.0478  0.0176
24968W        W41816  10.681  12.458  12.785 -0.1118  0.4269  0.0002
24969W        W41817  15.439  16.169  13.682 -0.0659  0.0416 -0.2516
24970W        W41818   7.695  14.440   6.007 -0.0736 -0.0755 -0.0861
24971W        W41819   1.666   1.458   4.567 -0.0590  0.3113 -0.0678
24972W        W41820   0.281   8.899   2.625 -0.1191  0.0197  0.0374
24973W        W41821  12.160  14.676   2.464  0.2264  0.0651 -0.0501
24974W        W41822  10.669  15.133  12.955  0.0900  0.1124  0.3822
24975W        W41823  11.794  16.642  16.987 -0.1987 -0.1241 -0.0284
24976W        W41824  10.526   4.958  15.365  0.0608 -0.1307  0.0256
24977W        W41825  10.303  15.401  12.614 -0.1672  0.0734  0.0148
24978W        W41826   8.088   7.777   4.350  0.0695 -0.1080 -0.1684
24979W        W41827   9.358  16.541   4.268  0.0252 -0.0529  0.4439
24980W        W41828   3.339   7.903   3.069  0.2412  0.0506 -0.0177
24981W        W41829  11.531   2.189  16.883  0.0503  0.4890 -0.0504
24982W        W41830   5.610   1.342   3.564 -0.3557  0.3019  0.0296
24983W        W41831  10.185   9.087  17.288  0.2428  0.0736  0.0394
24984W        W41832   2.896   5.723   5.234  0.0558 -0.0177  0.1485
24985W        W41833  10.024  10.757  13.916  0.0317 -0.2533 -0.2207
24986W        W41834  16.573   0.968   3.527 -0.0412 -0.1329 -0.0635
24987W        W41835  11.089   4.220  15.682 -0.0533 -0.3810 -0.1072
24988W        W41836   8.502   4.694  16.356  0.0764  0.0839  0.1117
24989W        W41837   7.901   1.851   3.910  0.1462 -0.1365 -0.0898
24990W        W41838  11.226   4.070   0.621 -0.0266 -0.1965  0.2445
24991W        W41839  16.854  13.859   4.309 -0.2799  0.1496 -0.1951
24992W        W41840   3.574  13.404   4.772  0.0448  0.1129 -0.0693
24993W        W41841   4.613  11.338  12.880  0.1798 -0.0024  0.0719
24994W        W41842  12.416  12.454  15.513  0.0359  0.0367 -0.1852
24995W        W41843   9.939  11.566  17.647  0.3005  0.1044 -0.1710
24996W        W41844  14.903   2.160  12.609 -0.1879 -0.1606  0.3367
24997W        W41845   0.861  16.923   2.095 -0.1994 -0.1842  0.2449
24998W        W41846  12.830   4.605  12.997 -0.1235 -0.0098 -0.0359
24999W        W41847   7.986  10.205   1.207 -0.0817  0.3505  0.2186
25000W        W41848   2.946   7.332   3.389 -0.1472  0.0755  0.0170
25001W        W41849   6.393  14.937   2.937  0.4026  0.1719  0.0298
25002W        W41850  13.740   6.740  14.414 -0.0755  0.1559 -0.1060
25003W        W41851   4.866   1.241  16.844  0.0647 -0.0169 -0.0875
25004W        W41852   6.334   2.704  15.764  0.0311 -0.3128  0.0293
25005W        W41853  10.643   8.872   1.622 -0.1648  0.0988  0.1227
25006W        W41854  11.718  10.118  17.279 -0.1456  0.0155 -0.0448
25007W        W41855   1.698  16.034   3.599 -0.1573 -0.0498 -0.1579
25008W        W41856   6.915   2.561  12.351 -0.2942  0.1372 -0.0642
25009W        W41857  10.841   7.521  11.823 -0.2191  0.1003  0.0474
25010W        W41858   5.997   5.288   2.594  0.1385  0.0043 -0.1237
25011W        W41859  14.302   9.489  13.884 -0.1156  0.3800  0.0369
25012W        W41860   6.251   2.218  15.766 -0.2211  0.1196  0.0008
25013W        W41861   7.045  16.423  13.347  0.0093 -0.2375  0.2069
25014W        W41862  15.636  12.024  14.457 -0.1550 -0.0418 -0.1604
25015W        W41863   6.850  10.858  13.270  0.2114  0.0663  0.0745
25016W        W41864  15.267   5.112   4.026 -0.1277  0.1626  0.0342
25017W        W41865   3.497  16.973  14.811 -0.1112 -0.0023  0.0434
25018W        W41866  11.190  11.555  13.810  0.2203 -0.0234 -0.3332
25019W        W41867  16.073   2.012  13.205 -0.3829 -0.0793  0.0697
25020W        W41868   0.523   7.497  12.527  0.0210 -0.0550  0.1437
25021W        W41869   7.532   8.817   0.046  0.1939 -0.1917  0.2511
25022W        W41870  11.013   7.448  16.323  0.1303 -0.0104  0.2895
25023W        W41871  13.543   5.174  12.978  0.0613 -0.2219 -0.1463
25024W        W41872  14.886   1.577  15.640 -0.2556 -0.3108 -0.0641
25025W        W41873   9.747  14.094   1.535  0.0557  0.0571 -0.0008
25026W        W41874   7.599  12.614  13.139  0.3544 -0.3119 -0.1020
25027W        W41875   6.961   1.507  12.861 -0.2161 -0.1066  0.3403
25028W        W41876  14.779   2.125   3.898 -0.1455  0.3332 -0.3055
25029W        W41877  10.452   8.072   1.287 -0.2304  0.2490 -0.0414
25030W        W41878  13.915   5.765   3.484 -0.1733  0.3000 -0.0502
25031W        W41879  10.183   7.485  17.001 -0.1075  0.4631 -0.1842
25032W        W41880   6.035   0.293  12.575 -0.0245 -0.0012  0.1708
25033W        W41881  16.465   4.417   5.768  0.3506 -0.0178  0.3113
25034W        W41882   3.510   9.522   5.951  0.0731  0.0245 -0.1983
25035W        W41883   5.805   6.909   2.342  0.1451  0.1167  0.3166
25036W        W41884   0.726   7.264   0.513  0.2190  0.1196  0.0184
25037W        W41885   8.035   6.116  12.197 -0.2203 -0.1914  0.0856
25038W        W41886  16.857   4.213  16.469  0.0591 -0.2385 -0.2388
25039W        W41887  12.357   8.465  16.292  0.0563  0.1681 -0.4712
25040W        W41888   9.316  10.490  14.127 -0.0190 -0.0118  0.1544
25041W        W41889  15.003   1.819  15.126 -0.1160 -0.0960 -0.1288
25042W        W41890  11.695   3.533  12.933  0.0473  0.0874  0.2037
25043W        W41891  10.622  12.414  13.772 -0.0336 -0.1574 -0.0970
25044W        W41892   3.029   2.482  17.001  0.0363 -0.2340  0.0945
25045W        W41893   5.937   8.248  17.630  0.1788  0.1031 -0.2584
25046W        W41894   2.320   4.393   0.261 -0.0716  0.0791  0.1596
25047W        W41895   7.567   6.312  14.651  0.1374  0.2229  0.0280
25048W        W41896   2.481   5.221   4.159 -0.0030  0.1604  0.1282
25049W        W41897  15.544  13.362  17.350  0.2146 -0.2614  0.1661
25050W        W41898   9.722   8.292   5.505  0.1256 -0.0796 -0.1486
25051W        W41899   0.643   5.976   5.245 -0.1858  0.0807 -0.1760
25052W        W41900   4.630   3.581   5.008 -0.1651 -0.1011  0.0767
25053W        W41901   9.203   7.081   1.153  0.0966 -0.3302  0.3367
25054W        W41902  12.122   2.055  12.055  0.2525 -0.2497 -0.1686
25055W        W41903   3.539   9.040  13.626 -0.0996  0.1104 -0.1961
25056W        W41904  11.697  16.354  16.594  0.1384  0.1083  0.0485
25057W        W41905   6.783  10.547   5.273 -0.1849  0.0708  0.1256
25058W        W41906  13.593   2.751   0.026  0.2166  0.0005  0.3755
25059W        W41907   1.317   7.552  16.612  0.1013  0.1222  0.2837
25060W        W41908  14.539   7.698  12.126  0.3038  0.0257  0.0557
25061W        W41909   6.765   7.064  16.162  0.3358  0.3389 -0.1758
25062W        W41910   7.610   3.057   3.402  0.0104 -0.3120 -0.5049
25063W        W41911   4.263   4.055   3.734  0.4210  0.2340 -0.0004
25064W        W41912   6.518  13.996   1.523  0.1232 -0.0283  0.0654
25065W        W41913   4.797   5.353  13.155  0.0505 -0.0099  0.1624
25066W        W41914   5.492  15.047   3.161 -0.0907  0.2321  0.0518
25067W        W41915   0.090   2.556   1.218 -0.1821  0.1064 -0.2382
25068W        W41916   2.258   0.636  17.744 -0.0662 -0.0369 -0.1897
25069W        W41917   7.023   6.088   3.830 -0.2409 -0.1711  0.1684
25070W        W41918   9.633  16.813  13.205  0.1021  0.2075 -0.1896
25071W        W41919  10.157  15.727  13.694 -0.0324 -0.1180  0.0242
25072W        W41920   3.714   7.686   1.343 -0.2749  0.2771 -0.1533
25073W        W41921   3.357   4.064   0.451 -0.0711 -0.0774 -0.1378
25074W        W41922  16.439   9.649  12.251  0.2203 -0.1683  0.2143
25075W        W41923  15.460   7.397   2.976  0.2979 -0.0461  0.2217
25076W        W41924  13.960   5.762  17.242  0.2173  0.3201  0.1354
25077W        W41925   1.721   7.142  12.613  0.0461 -0.3716  0.1128
25078W        W41926   2.671  15.786   3.742  0.0159 -0.1372  0.4660
25079W        W41927  16.753   1.446  15.606 -0.1980 -0.0596  0.0359
25080W        W41928   1.245   4.160   3.758  0.0450 -0.1226  0.1554
25081W        W41929  11.548   8.868   5.557  0.0175  0.1068  0.0286
25082W        W41930   4.441   4.835   5.721 -0.2316  0.0873 -0.0324
25083W        W41931  16.733  12.703  15.770  0.0067 -0.3998  0.1665
25084W        W41932   0.879   6.904  12.937 -0.0109 -0.3722 -0.3033
25085W        W41933   0.555   2.086   3.415  0.0532  0.1043 -0.1349
25086W        W41934   2.509  12.533  16.818 -0.0145  0.1564 -0.1375
25087W        W41935   7.356   5.556  11.673 -0.2867 -0.0098 -0.0167
25088W        W41936   9.621   1.648   0.136  0.0158  0.1613  0.1804
25089W        W41937  17.101   6.112   4.685  0.1653 -0.1438 -0.0320
25090W        W41938  12.292   4.966  13.822 -0.0019 -0.0203  0.0170
25091W        W41939  10.205   5.456   4.411  0.0275 -0.0352 -0.0264
25092W        W41940   8.711   1.249  15.857 -0.0910  0.4077  0.2399
25093W        W41941   0.024  11.392   3.907  0.0575 -0.0423 -0.0771
25094W        W41942   0.233   6.977  14.598 -0.2759  0.1372 -0.1903
25095W        W41943  15.757   7.739  12.435 -0.0829  0.0215  0.0348
25096W        W41944  14.763  17.084   2.553  0.1552  0.2305 -0.1709
25097W        W41945  13.209  11.475   3.757 -0.2263  0.1086  0.1429
25098W        W41946   6.605  12.493  14.706  0.2076  0.1173  0.0030
25099W        W41947   4.698  16.360  16.614 -0.0220  0.0947  0.0563
25100W        W41948  13.439  14.869   2.891 -0.4152 -0.1190  0.1004
25101W        W41949   5.960   9.831   1.354 -0.1863  0.1459 -0.2505
25102W        W41950  13.500  14.057   4.419 -0.2934 -0.2301 -0.1126
25103W        W41951   0.585   4.858  16.934  0.1426  0.1429  0.1063
25104W        W41952  15.187  13.339  12.299 -0.0774 -0.0516 -0.0850
25105W        W41953  16.850  15.565  15.992 -0.1424 -0.0611 -0.1022
25106W        W41954   5.834   0.321  17.740 -0.2292  0.3400 -0.1191
25107W        W41955   7.636  10.165   0.837  0.1008  0.0989  0.0893
25108W        W41956  13.119   5.008   4.721  0.1464 -0.3143  0.1340
25109W        W41957  16.129  12.437  15.040 -0.0455 -0.2597 -0.1981
25110W        W41958  11.958   5.474   1.377  0.2400  0.2326  0.2431
25111W        W41959   3.776   9.031  15.567 -0.1134 -0.1940 -0.1667
25112W        W41960  14.802  13.855   0.175  0.3516 -0.0269 -0.0739
25113W        W41961   6.565   8.029  12.807  0.1437  0.1131  0.1231
25114W        W41962   0.636  16.901   6.093  0.3461 -0.2306  0.0628
25115W        W41963   3.538   1.211   5.666 -0.1989 -0.1763  0.0397
25116W        W41964   5.344  16.593   1.032 -0.2951  0.1159 -0.0071
25117W        W41965   8.124   9.097  12.539  0.1812  0.1591  0.1868
25118W        W41966   9.605   6.260   3.127  0.2052 -0.1577 -0.2270
25119W        W41967   9.899   2.153   2.914  0.1367  0.1613  0.1391
25120W        W41968  13.160   7.413   2.653 -0.1302  0.2264 -0.0010
25121W        W41969   1.980   7.805  14.743  0.0356 -0.1663  0.0088
25122W        W41970  12.320   7.476  12.178 -0.2833 -0.2409  0.0561
25123W        W41971  12.147  13.017   4.635 -0.0885 -0.1275  0.0791
25124W        W41972  17.047  14.157  17.528  0.0243  0.3392  0.2058
25125W        W41973  10.831   1.229  13.803  0.2568 -0.0689  0.0728
25126W        W41974   1.339  15.462  16.121  0.0707  0.1617 -0.1539
25127W        W41975  14.647   0.082   0.914  0.1456 -0.0887  0.1468
25128W        W41976   3.935  16.749   1.171 -0.2643 -0.2763  0.2046
25129W        W41977   2.843  12.006  14.164 -0.2187  0.1376  0.3557
25130W        W41978  10.645  14.350   2.873  0.2766  0.4060  0.2228
25131W        W41979   2.486   8.875  12.572  0.1495 -0.0907  0.1062
25132W        W41980   5.593   8.744  11.952  0.1369  0.1195  0.1620
25133W        W41981  15.128   5.160  14.713 -0.1607  0.0389 -0.0263
25134W        W41982   1.177  16.067  14.606  0.0770 -0.1764 -0.1864
25135W        W41983   8.646   5.209   0.222  0.1090  0.0168  0.0129
25136W        W41984   0.828  13.994  16.930 -0.3687 -0.0196 -0.0112
25137W        W41985  17.039   4.036  13.914 -0.0012 -0.3195 -0.0302
25138W        W41986   6.750  11.495  14.931 -0.0472 -0.1099 -0.1479
25139W        W41987   5.487   0.614   5.367 -0.0041  0.1712 -0.1618
25140W        W41988  13.865   1.729   0.040  0.1348 -0.2998  0.3107
25141W        W41989   3.769   6.755  13.347 -0.2785 -0.1868  0.0937
25142W        W41990   0.244   5.124   1.374  0.2098 -0.3949 -0.2396
25143W        W41991   7.404   5.719  13.504 -0.1381 -0.0316  0.0218
25144W        W41992   2.340  11.289  16.251 -0.2683 -0.0700  0.0093
25145W        W41993  10.221   3.179  13.342 -0.3149  0.0686  0.1171
25146W        W41994   0.664   0.186   5.277  0.0928 -0.0327 -0.0778
25147W        W41995  12.894   8.341   3.484  0.3335  0.2163 -0.0967
25148W        W41996  11.779  15.530   3.491 -0.2167 -0.0178 -0.6501
25149W        W41997  11.371  16.837   4.104  0.2171  0.0156  0.2180
25150W        W41998  11.475  11.525  15.367  0.1021 -0.2177 -0.1526
25151W        W41999  16.672   8.650   0.629 -0.1242  0.0148  0.3097
25152W        W42000  12.384   0.458  15.518  0.3266 -0.0227 -0.2617
25153W        W42001   0.497   7.314  17.763  0.4816 -0.1019 -0.0437
25154W        W42002  12.231  16.593  14.753 -0.1485  0.1963 -0.2915
25155W        W42003   3.430  10.354  12.888 -0.0946  0.1267  0.1380
25156W        W42004   0.685  16.664   1.305  0.0714 -0.2041 -0.2276
25157W        W42005   7.579  15.401  16.254 -0.1598  0.4888 -0.3371
25158W        W42006  12.995   3.618   1.091 -0.0842  0.2556  0.1232
25159W        W42007   3.520  16.563  13.899 -0.0835 -0.1101  0.0274
25160W        W42008   0.451   1.816   2.409  0.2545 -0.0527  0.0032
25161W        W42009  14.537  12.401   1.820  0.0214  0.0300  0.0425
25162W        W42010  14.403  15.791   2.214  0.1412 -0.0511  0.1290
25163W        W42011  10.997  17.035  14.117  0.0678  0.0870 -0.3269
25164W        W42012   4.984   7.437  13.207  0.0468  0.1709  0.1219
25165W        W42013  12.092   6.827  17.588 -0.0284 -0.0533  0.0865
25166W        W42014   9.940   3.545  14.322 -0.2993 -0.3058  0.0197
25167W        W42015  14.634  11.130  16.363 -0.0408  0.1593  0.0533
25168W        W42016   5.581   4.925  15.685  0.3210 -0.1565 -0.1468
25169W        W42017  13.077  10.944   0.029 -0.1753 -0.0773  0.0792
25170W        W42018   4.382  17.012  14.632  0.1606  0.0641  0.1353
25171W        W42019   8.794  10.132  15.501 -0.3678  0.1739  0.1128
25172W        W42020  11.802   4.372  11.261 -0.0343  0.1222  0.0670
25173W        W42021  13.439  13.310   3.788 -0.1341  0.0618 -0.0881
25174W        W42022  16.834   9.921  13.797  0.1604  0.1857 -0.3378
25175W        W42023   8.777   4.295   2.984 -0.3080  0.0153  0.1009
25176W        W42024  10.532  17.036  17.620 -0.1016 -0.0286  0.0515
25177W        W42025   8.514   2.042  13.732 -0.3277  0.3198 -0.0147
25178W        W42026  12.525   5.184   4.022  0.0229  0.0496 -0.1333
25179W        W42027   0.496   3.214  13.163 -0.0360 -0.4614  0.0029
25180W        W42028  15.249   6.115  13.493 -0.1075 -0.0845 -0.2449
25181W        W42029  12.593   0.397  11.415 -0.0088  0.0890  0.0459
25182W        W42030   5.917  14.913   5.632  0.0802 -0.4219 -0.1115
25183W        W42031   2.277   9.683  17.012  0.1210  0.2001 -0.0158
25184W        W42032  15.301   2.350  16.375  0.1763 -0.1540  0.2955
25185W        W42033   7.020   6.583  17.691 -0.2115 -0.3063 -0.0221
25186W        W42034  13.870   9.161   5.648 -0.2510 -0.0936  0.0664
25187W        W42035   0.202  16.789   1.125  0.1828 -0.0264  0.1489
25188W        W42036   3.364  10.464   6.007  0.3298  0.0762 -0.0893
25189W        W42037  15.386  10.335   4.236  0.2262 -0.2516  0.0038
25190W        W42038   8.536   0.011  17.680  0.1177  0.2155 -0.2539
25191W        W42039   3.825  11.797   4.947  0.0629 -0.0097  0.0373
25192W        W42040  12.280  16.971  16.784 -0.0347 -0.3529 -0.0819
25193W        W42041   4.437   5.859  14.775 -0.0508 -0.2941 -0.1257
25194W        W42042   9.826   9.419   2.010  0.3247  0.1111 -0.0033
25195W        W42043   5.885  13.212   6.165 -0.0245  0.3671 -0.0276
25196W        W42044   7.032   6.108  16.833 -0.0227 -0.1843  0.0626
25197W        W42045   1.925  13.254  13.780 -0.0396 -0.5039  0.1208
25198W        W42046  17.056  11.321   5.867  0.1239  0.1187  0.0578
25199W        W42047  12.082   5.747  14.501 -0.0432 -0.0850  0.2449
25200W        W42048  16.875   4.784  15.293 -0.1488 -0.0896 -0.0442
25201W        W42049  10.858   4.258   1.566 -0.1580  0.2624  0.4817
25202W        W42050   9.069  16.181  11.197 -0.2313 -0.0855 -0.3537
25203W        W42051  11.862   2.119   5.139 -0.0506  0.2596 -0.0391
25204W        W42052   6.376   9.558   4.338  0.0443 -0.3287  0.1335
25205W        W42053  16.679   0.603  16.917  0.3703 -0.0740  0.1782
25206W        W42054   5.494  12.643   1.250 -0.0567  0.0910  0.2529
25207W        W42055  15.046   7.244  15.020  0.1804  0.4348 -0.0784
25208W        W42056  11.010   6.181  12.895  0.0343 -0.1932  0.3772
25209W        W42057   9.685  12.943  14.556  0.0211 -0.3619  0.1492
25210W        W42058   6.539   7.474  12.785 -0.1629 -0.0272 -0.2189
25211W        W42059   0.189   0.587  15.336 -0.0150  0.0458  0.1895
25212W        W42060  15.721  10.936  13.224  0.2800 -0.0069  0.1278
25213W        W42061   3.764   6.199  15.208  0.2025 -0.0696  0.0046
25214W        W42062  11.620   3.768  15.772  0.0550  0.1128 -0.2081
25215W        W42063   3.150  13.997   3.484 -0.0259 -0.3572  0.2287
25216W        W42064   6.936   5.239  15.092  0.1947  0.1591  0.2079
25217W        W42065  12.474   6.572   0.040 -0.2237  0.1981 -0.1334
25218W        W42066   0.941   6.381   3.602  0.0713 -0.0210 -0.2243
25219W        W42067  13.758   4.076  16.001 -0.2318 -0.0486 -0.1221
25220W        W42068   8.010   5.988   3.300  0.0105  0.1546  0.2903
25221W        W42069  15.360  15.889   0.836 -0.0067 -0.2660  0.3124
25222W        W42070  16.019  11.877   4.521 -0.2212 -0.1246 -0.1305
25223W        W42071  15.312  12.014   1.874  0.0004  0.0768 -0.2329
25224W        W42072   7.506  11.877  17.124 -0.2547  0.0838  0.1344
25225W        W42073   0.106   8.040   2.727 -0.0415  0.1671 -0.0766
25226W        W42074  15.385  15.522  14.910  0.0091  0.0005  0.3193
25227W        W42075   9.978  13.097   3.898  0.1420 -0.0117 -0.1897
25228W        W42076  14.983   5.461   1.705 -0.0260 -0.0890  0.1054
25229W        W42077  14.093   0.609   5.270 -0.2860  0.1579  0.2519
25230W        W42078   4.396  16.012  15.112  0.0382  0.0229  0.0242
25231W        W42079  13.568   4.394  16.353  0.1684  0.1489  0.1346
25232W        W42080  14.497   6.780  12.806 -0.0056  0.1113  0.1329
25233W        W42081  16.892  13.902   1.315 -0.1459  0.1671 -0.0348
25234W        W42082  13.077   4.165   0.601  0.2490  0.1625 -0.1793
25235W        W42083  13.938   2.773  12.322  0.0726 -0.2031  0.1169
25236W        W42084   6.000  14.227  15.341  0.1103 -0.1661 -0.1417
25237W        W42085   8.013   2.654  15.615  0.0495  0.3044 -0.0543
25238W        W42086  11.552  10.589  17.111  0.2233  0.0455  0.2551
25239W        W42087   6.586  16.311   4.688 -0.0797  0.1027  0.3000
25240W        W42088  12.799   7.945  15.167 -0.3885 -0.1918 -0.1759
25241W        W42089   5.461   9.970  14.747  0.0325 -0.0077  0.0301
25242W        W42090   3.971   5.559   4.391 -0.1711  0.2768  0.0090
25243W        W42091  11.929  15.792   4.865  0.0230 -0.2193  0.0804
25244W        W42092   9.165  15.767   4.879 -0.2462  0.0010 -0.0071
25245W        W42093  12.555  11.822   2.942  0.0213  0.3867  0.1732
25246W        W42094   5.544   4.620  15.066 -0.0587  0.1084  0.0718
25247W        W42095  13.539   6.904   0.770  0.1209 -0.1046  0.3788
25248W        W42096   1.343  12.334  12.908 -0.1147 -0.0278 -0.1548
25249W        W42097  14.173   6.677   4.945 -0.1925 -0.0825  0.1268
25250W        W42098  10.603   9.970   3.545  0.0663  0.1453 -0.2412
25251W        W42099   4.679   8.725  17.736  0.2818  0.0312  0.0721
25252W        W42100  16.867   0.269  13.839  0.1872  0.1490  0.1189
25253W        W42101  10.932  10.874   1.462  0.0846 -0.2842  0.0128
25254W        W42102   2.604   2.043   6.927 -0.0416 -0.2788  0.2054
25255W        W42103  10.953   3.287  12.620 -0.3879  0.0861  0.1297
25256W        W42104   2.573   1.650  17.076  0.2103 -0.0948 -0.3801
25257W        W42105  11.764  15.290  12.021  0.0753 -0.1693 -0.1216
25258W        W42106   6.585  12.708   2.258  0.0244  0.2570  0.0050
25259W        W42107   1.789   8.385   2.838 -0.0638  0.0728 -0.1804
25260W        W42108   5.688  10.030  13.039 -0.0355  0.2209  0.2484
25261W        W42109   7.146  14.712  17.253 -0.1411 -0.1531 -0.0397
25262W        W42110   8.028  15.985  13.488 -0.1710 -0.1788 -0.0191
25263W        W42111   8.751   7.726   0.022  0.0865  0.1450 -0.0287
25264W        W42112   6.927  15.580   4.338  0.0627  0.0241 -0.2944
25265W        W42113  15.444  13.017  13.204 -0.0226  0.2710 -0.3824
25266W        W42114   4.593  13.326  16.130  0.1385 -0.1628  0.1085
25267W        W42115  17.022  10.062  17.576  0.0567  0.2397 -0.2350
25268W        W42116  14.980   7.093  14.460 -0.1689  0.1788  0.1537
25269W        W42117   7.151  15.986  15.814  0.0969  0.0025 -0.0864
25270W        W42118  10.457  11.983   4.664  0.1065  0.1451 -0.0017
25271W        W42119   2.680   7.045   0.624 -0.0943 -0.0270 -0.2460
25272W        W42120   3.554   8.076  16.949 -0.0124 -0.0733 -0.0459
25273W        W42121  15.514   0.148  15.148  0.0443  0.1364  0.1365
25274W        W42122   8.127   5.072   1.105  0.1554  0.2928  0.0755
25275W        W42123  14.124  15.602  13.499 -0.0381  0.1117  0.0541
25276W        W42124   9.032  14.525  16.381  0.1752 -0.0688  0.0051
25277W        W42125   9.677  15.863  17.232  0.4019 -0.1477  0.3747
25278W        W42126   2.543  14.504   1.730  0.0841 -0.3289 -0.1781
25279W        W42127   4.069   1.987   0.538 -0.0450 -0.1827 -0.0492
25280W        W42128  13.757  14.073   1.392  0.0916  0.4835  0.0255
25281W        W42129  13.831  14.874   0.197  0.1287  0.1414 -0.1511
25282W        W42130  11.633  17.019  12.413 -0.2638  0.2120  0.1443
25283W        W42131  12.326  16.239  15.848 -0.0200  0.0802  0.0431
25284W        W42132  14.883  13.758   4.370  0.0175 -0.1517  0.0846
25285W        W42133   1.179  16.763   4.326 -0.3192 -0.1004  0.0162
25286W        W42134  15.168  12.032   2.879 -0.3765 -0.0509 -0.0813
25287W        W42135  16.415   8.202   2.599  0.2584  0.0828 -0.0998
25288W        W42136   5.274  16.579  17.030 -0.0043  0.1120 -0.1398
25289W        W42137   5.492   2.987   4.906 -0.0614  0.4258  0.0015
25290W        W42138   0.678   6.138  13.280  0.1752 -0.0620  0.0842
25291W        W42139  14.476  16.032  12.438  0.0187 -0.0697 -0.2219
25292W        W42140   4.386  17.160  13.684 -0.1075  0.0656  0.1014
25293W        W42141   2.143   3.979   1.646  0.1478  0.2180  0.0016
25294W        W42142   6.575   5.180  15.978 -0.2211 -0.2050  0.3665
25295W        W42143   2.495  16.900  17.679  0.0243 -0.0585  0.0692
25296W        W42144  13.681   9.170   2.733 -0.1189  0.1091 -0.1146
25297W        W42145   2.813  10.173  17.567 -0.1577 -0.0921  0.2013
25298W        W42146  13.442  10.064   3.246  0.3231 -0.1727 -0.0895
25299W        W42147   8.101   9.210   2.557  0.1083  0.1722  0.0272
25300W        W42148  14.267   8.539  12.269  0.0279 -0.1135  0.1353
25301W        W42149   7.943   7.471  17.080  0.0660 -0.1399  0.0727
25302W        W42150  15.698   2.656  13.560 -0.0598 -0.0749  0.1251
25303W        W42151   0.223  11.781   0.250 -0.0461  0.1343 -0.1462
25304W        W42152   0.937  13.294  13.982  0.2326  0.2826  0.1625
25305W        W42153   4.702  15.618   5.537 -0.0505 -0.0144 -0.3961
25306W        W42154  11.422  11.865   4.528 -0.3202 -0.1048  0.1070
25307W        W42155   8.795  16.536  13.637 -0.1767  0.1390  0.0325
25308W        W42156   6.336   0.111   3.926 -0.0645  0.0829 -0.0225
25309W        W42157   8.376   7.270  14.050  0.0265 -0.2157  0.1338
25310W        W42158   3.878  14.520   0.584 -0.2394  0.2845 -0.0039
25311W        W42159   6.277   6.181  14.047  0.1605  0.1758  0.0134
25312W        W42160  10.691  10.972   5.317 -0.0472  0.1099 -0.0925
25313W        W42161   7.673   9.743   1.687  0.1146 -0.0480  0.0331
25314W        W42162  14.420  11.709   2.059  0.0781  0.1027  0.1147
25315W        W42163  15.008   0.893  15.509 -0.0876  0.0293  0.0073
25316W        W42164   7.955  10.812   5.090  0.1994  0.0746  0.3329
25317W        W42165   9.028  17.064   2.311 -0.2580 -0.0506 -0.0593
25318W        W42166  12.494  16.882  15.087  0.4221  0.1495  0.0037
25319W        W42167  13.839   2.978  15.397  0.0302 -0.0935  0.1642
25320W        W42168  14.136   9.630   1.283 -0.0725  0.2831  0.0234
25321W        W42169   1.737   1.608  15.435 -0.1160 -0.1481  0.2475
25322W        W42170   2.541  13.765  15.283  0.2188 -0.0723 -0.4314
25323W        W42171   0.609   5.724   1.803 -0.1270  0.1507  0.1381
25324W        W42172  16.996   2.592  17.603 -0.1196 -0.0642  0.0198
25325W        W42173  16.174   8.776   0.681 -0.2441  0.2392 -0.0965
25326W        W42174   6.084   9.587  15.159 -0.1239 -0.3794  0.0693
25327W        W42175   4.218  10.672   1.522  0.0336 -0.2159 -0.2001
25328W        W42176   6.183  14.300   3.923 -0.3368  0.0513  0.0100
25329W        W42177   7.920   2.571  16.877  0.0886  0.0931 -0.2215
25330W        W42178   8.826  11.388   0.946 -0.3162 -0.1626 -0.2259
25331W        W42179   1.440   8.803   3.960 -0.2719  0.0291 -0.1185
25332W        W42180  10.298   6.759  16.489  0.3916 -0.1713  0.1033
25333W        W42181   6.642  16.311  13.648 -0.2017  0.1758 -0.0485
25334W        W42182   2.716   0.848   1.889  0.3885 -0.2576 -0.0068
25335W        W42183   0.083  14.612   1.689  0.0623 -0.2212  0.0464
25336W        W42184   5.399  15.835  17.438  0.0426 -0.1984 -0.0690
25337W        W42185   8.063   7.146   0.496 -0.1664 -0.2412 -0.1648
25338W        W42186  13.257  12.963   2.889 -0.0152 -0.2169 -0.2536
25339W        W42187   0.259   3.500  16.931  0.0009 -0.2741 -0.1029
25340W        W42188   7.556   7.269  15.669 -0.2449  0.0003 -0.1229
25341W        W42189   3.460   1.118   2.234 -0.2907 -0.1539  0.0258
25342W        W42190   4.802  16.984   3.965 -0.0427  0.0825  0.2112
25343W        W42191   0.693  14.446  14.670  0.1455 -0.0286  0.2185
25344W        W42192   3.608   5.995   4.513 -0.2203  0.2300 -0.1087
25345W        W42193  12.255   2.551  12.436  0.0899  0.0242  0.1483
25346W        W42194  16.402  16.639  17.007 -0.1688  0.0187 -0.2625
25347W        W42195  16.537   2.240   4.542 -0.0465  0.1033 -0.0960
25348W        W42196   7.702  13.546   1.457 -0.0871  0.0535  0.0432
25349W        W42197   0.177  11.370  12.469  0.2008 -0.1249  0.1579
25350W        W42198   4.019  12.067  14.672 -0.1740  0.1968  0.1528
25351W        W42199  16.276   2.757   2.489 -0.1833 -0.1997 -0.1792
25352W        W42200  16.310  16.006   3.400  0.0273 -0.2407  0.0404
25353W        W42201  15.690  14.333  15.639  0.3103 -0.1681 -0.0398
25354W        W42202  12.455  10.668  17.158 -0.1369  0.0884 -0.1017
25355W        W42203   9.152   9.783  13.470  0.0939  0.2597  0.3417
25356W        W42204   8.915  15.559  12.751 -0.0513  0.0494  0.1903
25357W        W42205   0.450   1.590  16.846  0.0751  0.1152  0.0845
25358W        W42206  12.666  12.614  14.492  0.0875  0.0838  0.1768
25359W        W42207   8.164   5.340  17.456  0.0016 -0.2929 -0.2623
25360W        W42208  10.663   8.724   0.367 -0.0455 -0.0101  0.1618
25361W        W42209   3.053  13.064   3.877  0.0055  0.0175 -0.1260
25362W        W42210   5.680   7.080   3.277  0.0587  0.1664  0.0648
25363W        W42211   8.445   5.899   6.091 -0.1093 -0.2351 -0.1542
25364W        W42212   9.998   6.286  13.243  0.0823  0.0281  0.1886
25365W        W42213   9.694   8.283  16.813  0.2758 -0.1066  0.1029
25366W        W42214   9.986   5.365   3.986 -0.0451  0.4679 -0.0744
25367W        W42215   4.897  12.989   2.687 -0.0055 -0.0421 -0.1644
25368W        W42216   3.299   5.051  15.071 -0.0425 -0.1080 -0.0423
25369W        W42217   3.444  12.144  16.681 -0.0814  0.0189  0.2810
25370W        W42218   4.039  14.917  15.438  0.3172 -0.0119  0.1080
25371W        W42219   0.670  16.625  16.170  0.3014 -0.1481 -0.2024
25372W        W42220  16.630  13.546  15.932  0.1533 -0.1390  0.0462
25373W        W42221  14.246   5.008   1.091  0.1664  0.2580  0.0822
25374W        W42222  13.173   6.338  17.012 -0.4676  0.0039  0.0816
25375W        W42223  14.139  15.083  16.414  0.1932  0.1319  0.2998
25376W        W42224   9.920  16.896   4.291 -0.0632  0.2418  0.1366
25377W        W42225  11.574   2.783  16.786 -0.2361 -0.3391 -0.0461
25378W        W42226  13.108  10.283   2.825  0.1968  0.0334  0.2139
25379W        W42227  16.070   1.448   4.744  0.0634  0.0742 -0.0808
25380W        W42228   8.388   6.807   4.767 -0.1866 -0.2325  0.1195
25381W        W42229   8.315   8.173   5.090 -0.2009  0.0978 -0.0829
25382W        W42230  12.860   1.747   1.952  0.1091 -0.0077  0.0653
25383W        W42231   9.159  12.246  14.928  0.0505  0.2758 -0.1210
25384W        W42232   1.116   5.548   4.304 -0.1668  0.0319 -0.2149
25385W        W42233  10.785   6.818   1.069  0.0505 -0.0900  0.0746
25386W        W42234   0.277   6.331  16.734 -0.0454 -0.0388  0.0244
25387W        W42235   1.541   7.444  17.153  0.0027 -0.0953  0.1492
25388W        W42236  14.634  16.103   4.118 -0.2964  0.1420  0.1267
25389W        W42237   0.399   3.379  11.553  0.1307 -0.0042  0.1764
25390W        W42238   6.626   4.388  13.955 -0.1297 -0.0323  0.2145
25391W        W42239   6.367   5.754  14.361 -0.1504  0.1437 -0.1014
25392W        W42240   1.408  13.988   4.835  0.0161  0.1191  0.3330
25393W        W42241  15.896   0.132   3.407 -0.0821 -0.2614  0.0776
25394W        W42242  10.261  11.402   0.190 -0.4576 -0.1460  0.0350
25395W        W42243  16.252  14.063  13.870 -0.2762  0.3267 -0.1306
25396W        W42244   8.016   4.053  15.678 -0.1048 -0.1139  0.1535
25397W        W42245   1.897   6.393  15.384  0.1170  0.3173  0.0841
25398W        W42246  16.548   9.161   0.827  0.1646  0.1458  0.2158
25399W        W42247   7.996   6.477  16.114  0.0647 -0.2020 -0.0285
25400W        W42248  14.705  15.865   0.999 -0.0587 -0.1862 -0.0255
25401W        W42249  11.170  14.325   2.029  0.1750 -0.1417  0.0604
25402W        W42250   3.732   6.460   3.490 -0.3708  0.3415 -0.0657
25403W        W42251   3.379   0.265  14.726 -0.0222 -0.0820 -0.2151
25404W        W42252  16.684   1.916   0.535 -0.0473 -0.0568 -0.1217
25405W        W42253  14.512  12.414  13.960 -0.0280 -0.0770 -0.0172
25406W        W42254   1.567   3.682   5.489  0.2633 -0.4155 -0.1311
25407W        W42255   3.081   3.422  13.189  0.1812  0.0771 -0.1381
25408W        W42256   8.846   7.228   2.050 -0.1016  0.1597  0.1655
25409W        W42257   0.295  10.367  15.140  0.2942  0.1309  0.2981
25410W        W42258  10.590   1.699   3.414 -0.3599 -0.4365  0.1692
25411W        W42259   7.765  13.079   5.023 -0.1590  0.0910 -0.1742
25412W        W42260   4.810   2.963  16.327  0.3186  0.1410 -0.2836
25413W        W42261   1.081  15.178   2.216 -0.2559 -0.0933  0.1884
25414W        W42262  10.078   5.672  17.558 -0.1303 -0.1433  0.0254
25415W        W42263   6.051   2.281   5.226 -0.1995 -0.2177 -0.5033
25416W        W42264   4.896   3.327   3.309 -0.0701  0.0884  0.0065
25417W        W42265   1.901   8.503  11.446  0.4176 -0.0021 -0.1466
25418W        W42266   9.019  12.478   4.540  0.3149  0.1236 -0.0128
25419W        W42267   9.199  17.124   3.632  0.1348 -0.0185 -0.1061
25420W        W42268   5.999  11.301   1.781 -0.0038 -0.0781  0.3720
25421W        W42269  13.234   8.717   5.007 -0.2448 -0.2864 -0.4535
25422W        W42270   8.927   5.914  17.319  0.1067  0.1600  0.1032
25423W        W42271  11.863  13.410   0.044 -0.0253  0.3193  0.0228
25424W        W42272  16.190  11.730   1.209 -0.1113  0.1209  0.2584
25425W        W42273   6.268  15.939   4.423  0.3351 -0.1690  0.1288
25426W        W42274  10.338  13.226  17.215 -0.1762 -0.1078  0.2987
25427W        W42275  16.517   2.784   3.688  0.1614 -0.1072  0.0734
25428W        W42276   8.647   9.608   5.195 -0.1180 -0.2436 -0.2448
25429W        W42277  13.137  14.316  12.795  0.1556 -0.0668 -0.2197
25430W        W42278  10.957   3.028   5.028 -0.0271 -0.0727 -0.0229
25431W        W42279   7.904  11.218   1.034  0.1471  0.2130  0.0964
25432W        W42280  15.203  12.998   4.304  0.1997 -0.0122  0.2456
25433W        W42281   0.120   0.701   1.549  0.1141  0.0806  0.1939
25434W        W42282   7.769  14.394   5.074  0.0512  0.0675  0.1489
25435W        W42283   9.784   5.835   4.034 -0.2040  0.1213 -0.3425
25436W        W42284  13.294   3.890   4.716 -0.0976  0.3170  0.3220
25437W        W42285   2.924   3.427   6.674 -0.0570 -0.1303 -0.2452
25438W        W42286   2.567  16.630  13.837 -0.0239  0.1904  0.0358
25439W        W42287   4.785   6.723   1.415 -0.0974 -0.1809  0.2127
25440W        W42288   4.273   8.382  12.648 -0.1600  0.0329  0.1036
25441W        W42289  17.060  16.239   3.822 -0.2254  0.1653  0.0015
25442W        W42290   9.622  11.434   1.185  0.2726  0.0615  0.3516
25443W        W42291  17.112   9.781  11.802 -0.0857  0.3584 -0.0336
25444W        W42292   7.372   6.720   0.164  0.1763 -0.2036 -0.3539
25445W        W42293   5.392   9.598   2.921  0.2939 -0.0561 -0.2207
25446W        W42294  15.780  15.792  16.306 -0.1489  0.0363 -0.3183
25447W        W42295   6.817  11.311   4.707 -0.2786  0.2346  0.2541
25448W        W42296   6.488   5.171   1.574  0.1436  0.0428  0.2933
25449W        W42297   0.377   5.895  15.713 -0.0949  0.3666 -0.2216
25450W        W42298   6.019  14.777  12.237 -0.0841  0.0422  0.2863
25451W        W42299   7.507   6.134   1.236 -0.4978  0.0472 -0.2486
25452W        W42300   0.432   6.834  14.174  0.0034  0.0629 -0.0359
25453W        W42301   8.379   2.480   5.285  0.1230 -0.1137 -0.0622
25454W        W42302   2.052   8.407   6.164  0.1149 -0.3151  0.2350
25455W        W42303  14.720   6.666  14.389 -0.0759 -0.1303  0.1203
25456W        W42304   3.192   7.755  14.374  0.1996  0.2472  0.3659
25457W        W42305   9.733   2.145   3.432 -0.1606 -0.0171  0.2721
25458W        W42306   7.809   8.917  14.219 -0.0318  0.1155 -0.1600
25459W        W42307  12.021   7.889  12.290 -0.2876  0.2337 -0.1470
25460W        W42308  14.594   7.652   5.110  0.1651  0.0713 -0.0750
25461W        W42309   5.946   2.605   5.893  0.0534 -0.2289 -0.4183
25462W        W42310   2.414   7.507  16.303  0.0010 -0.1059 -0.0841
25463W        W42311   8.213   9.557  13.448  0.1476 -0.0596 -0.2735
25464W        W42312  15.703  16.611  14.644  0.0789 -0.2195  0.0408
25465W        W42313   1.361   3.139  11.281 -0.0810 -0.1060 -0.0233
25466W        W42314   2.614   1.093  15.406 -0.0610 -0.0553 -0.1392
25467W        W42315   5.027   8.555   3.894  0.0914 -0.1406  0.4989
25468W        W42316   6.754  16.679   3.220  0.3971 -0.0166  0.0184
25469W        W42317   2.437  13.295   1.049 -0.1324  0.3316  0.0096
25470W        W42318   4.444   4.168   6.023 -0.1933  0.1899  0.0308
25471W        W42319   6.814  13.523  12.412  0.0318 -0.0737  0.0798
25472W        W42320   4.596  13.379  13.893  0.3657  0.0450 -0.1143
25473W        W42321  14.505  10.695   2.035 -0.3469 -0.1108 -0.1691
25474W        W42322  11.438   5.035   4.724  0.3376 -0.1171  0.2052
25475W        W42323   2.832  15.039  14.226 -0.1291 -0.1312 -0.1632
25476W        W42324   8.649   8.927  14.453  0.0741  0.0294  0.3184
25477W        W42325  12.129   8.029  14.389 -0.1335  0.0675  0.1230
25478W        W42326  15.527  11.516  16.490  0.1157 -0.2126  0.1523
25479W        W42327   7.886  14.655   2.271 -0.1310  0.3398 -0.3892
25480W        W42328  10.860  12.296  12.163 -0.2888 -0.1429 -0.1805
25481W        W42329   3.830  15.980   0.520 -0.1932 -0.1113  0.0940
25482W        W42330  15.614   9.670  13.443 -0.0017  0.0131  0.1703
25483W        W42331  15.784   4.174  13.214  0.2233 -0.2255  0.0251
25484W        W42332   5.923   3.703  12.485  0.1823 -0.3442 -0.1319
25485W        W42333  13.216  10.127  13.979  0.1224  0.2378 -0.1685
25486W        W42334  13.657  16.802   3.591 -0.2473 -0.0274 -0.0071
25487W        W42335   8.002   2.725   0.949  0.1667  0.0660  0.5560
25488W        W42336  12.244  11.563   4.619  0.1837  0.2686  0.0049
25489W        W42337  10.233   5.727   1.006 -0.2191 -0.0212  0.0660
25490W        W42338   4.379  10.167  15.560 -0.0450 -0.0282 -0.0160
25491W        W42339   5.687   1.493  16.364 -0.0868  0.0807  0.3403
25492W        W42340  14.813   2.612   2.719 -0.3329  0.0971  0.0167
25493W        W42341  12.313  13.375  17.253 -0.1627  0.0070 -0.2926
25494W        W42342  12.968  15.938   1.678  0.0728 -0.2748 -0.0900
25495W        W42343   6.559   1.914   1.843 -0.1128 -0.3581  0.1039
25496W        W42344   5.922  12.299  12.683  0.0356  0.2385  0.3428
25497W        W42345   5.265   7.902  12.184 -0.0795  0.0040  0.0137
25498W        W42346   8.688  12.061  17.332  0.0286  0.0317 -0.0871
25499W        W42347   7.791  14.128  15.862 -0.1012  0.0929  0.0575
25500W        W42348  16.682   9.765  12.775 -0.0057  0.1683  0.1096
25501W        W42349   7.048   9.676  13.992 -0.2746  0.0272  0.0652
25502W        W42350   4.709   4.011   3.401 -0.3008  0.1162  0.2895
25503W        W42351  12.232  14.049  17.783 -0.1426 -0.2579  0.0857
25504W        W42352   1.429  12.495   2.099 -0.0388 -0.0030 -0.1329
25505W        W42353  11.323  13.015   0.410 -0.0794  0.1823 -0.2729
25506W        W42354   7.082   6.577   3.935 -0.2731  0.0142 -0.0430
25507W        W42355   0.140  13.171  17.723 -0.0318  0.1730 -0.3219
25508W        W42356   4.875  13.238   1.355 -0.1046  0.1382  0.2133
25509W        W42357   6.707   1.622   1.438  0.1288  0.2349  0.1970
25510W        W42358   7.281   7.794   3.015 -0.1429  0.0530  0.2639
25511W        W42359   5.452   0.419   6.826 -0.3698  0.0873  0.1597
25512W        W42360   6.914  16.443   4.031  0.1089 -0.0304  0.0285
25513W        W42361   1.551  10.072  13.923 -0.1627  0.1202  0.2134
25514W        W42362   3.642  11.856  14.311  0.1116  0.0602 -0.0023
25515W        W42363  16.179   7.102  15.828 -0.0345  0.1963  0.2560
25516W        W42364  16.745  13.691  15.125  0.2390  0.0494 -0.0725
25517W        W42365  12.789   7.982  13.405  0.0915 -0.0205  0.0690
25518W        W42366  11.233  12.313  13.537 -0.0076 -0.1464  0.3685
25519W        W42367   5.395  16.129  15.833  0.0384  0.0551 -0.0335
25520W        W42368  14.647   1.994  17.481 -0.0956  0.5236 -0.0564
25521W        W42369  13.895   4.663   0.902 -0.1026 -0.2569  0.1372
25522W        W42370  10.608  15.746   3.368  0.2353 -0.1634 -0.2771
25523W        W42371   3.239  16.518  14.631 -0.2043  0.0045  0.3180
25524W        W42372  12.816   3.925   3.930 -0.0069  0.0425 -0.0602
25525W        W42373  14.321   4.350  11.872  0.0531  0.0977 -0.1674
25526W        W42374   7.976  10.194   0.059  0.5501 -0.1161 -0.1324
25527W        W42375  11.667   5.885  15.074 -0.0126  0.1096 -0.1329
25528W        W42376   4.299   4.238  16.140 -0.4392  0.2219 -0.1661
25529W        W42377   3.914  13.837   3.187  0.1670  0.0168 -0.0547
25530W        W42378   6.607  15.314   6.095  0.0981  0.2362 -0.0153
25531W        W42379  10.100  10.246  12.590  0.2016  0.0465 -0.3489
25532W        W42380   4.174  12.984   0.855  0.1545 -0.0991  0.0167
25533W        W42381   7.927  10.347   4.866 -0.2184  0.2436  0.3304
25534W        W42382   7.423   7.563  12.610  0.0545 -0.3036 -0.0214
25535W        W42383   4.069  10.711   3.357  0.2833 -0.0133  0.0262
25536W        W42384  12.960  16.276   0.030  0.0103  0.1197 -0.0066
25537W        W42385  10.392   1.607  11.833 -0.1458  0.0418 -0.2570
25538W        W42386   0.083   0.918  12.982 -0.3345  0.3411 -0.0869
25539W        W42387   5.192   3.101   5.562 -0.1481  0.0396  0.1046
25540W        W42388  12.589   8.703   4.823 -0.1446 -0.0359  0.0009
25541W        W42389   4.424  10.423  16.610  0.1295 -0.1262 -0.0449
25542W        W42390  15.391   7.243  12.383 -0.0445  0.0968 -0.2155
25543W        W42391   4.703   3.195   4.690  0.4958  0.1480  0.1335
25544W        W42392  11.745   7.153   1.900 -0.1877 -0.0409 -0.3515
25545W        W42393   1.782  16.662  12.656  0.0707  0.0085 -0.0376
25546W        W42394  10.330   5.820  15.705 -0.1530  0.0022  0.0499
25547W        W42395   7.429   2.923   0.185 -0.0354 -0.1256  0.2506
25548W        W42396  10.159  13.542  15.196  0.1359  0.0014  0.0411
25549W        W42397  15.391  15.608   3.056 -0.2995  0.1112 -0.2764
25550W        W42398  15.002   5.948   3.414  0.2595  0.5677 -0.0781
25551W        W42399   6.090   3.295   2.226 -0.1277  0.0149 -0.1669
25552W        W42400   1.495   5.504   0.655  0.1762  0.1098 -0.1780
25553W        W42401   4.152   7.510   0.755  0.1596 -0.1268 -0.0872
25554W        W42402   4.463   5.494  12.411 -0.1592  0.1241  0.1009
25555W        W42403  13.832   5.080  14.836  0.0135  0.0285  0.2050
25556W        W42404   2.655   1.025  13.903  0.2148 -0.2907 -0.1124
25557W        W42405   3.054  16.706  17.452 -0.3316  0.1047  0.0881
25558W        W42406  16.077  17.039  13.052 -0.1445 -0.0990 -0.2287
25559W        W42407  10.204   0.994  15.396  0.0432  0.1658  0.0579
25560W        W42408  13.994   1.180   5.819  0.1187  0.4973 -0.0012
25561W        W42409  11.833   8.384  14.253  0.0783  0.1908  0.1604
25562W        W42410  16.369   1.782  13.994  0.1527  0.3247 -0.0542
25563W        W42411   8.816  11.223  13.627  0.1387 -0.0512  0.2052
25564W        W42412   4.026   3.851   0.910  0.0863  0.4758  0.1400
25565W        W42413  13.460   6.315   2.828 -0.0801 -0.1760  0.0650
25566W        W42414  16.573   4.855  17.118  0.0597  0.2219 -0.1530
25567W        W42415   8.609   2.308   0.821 -0.1678 -0.4223 -0.0482
25568W        W42416   0.188   4.170  16.485 -0.3679 -0.1950 -0.0127
25569W        W42417  11.296  12.923   1.551  0.0634  0.0120 -0.0681
25570W        W42418  15.995   4.985  16.717  0.2324  0.0083 -0.1656
25571W        W42419  12.442   1.493   5.173  0.0890  0.0952 -0.2855
25572W        W42420  11.900   5.143   3.111  0.2061 -0.2584  0.0219
25573W        W42421  14.105  16.380  14.699 -0.1967 -0.1256  0.0872
25574W        W42422  13.100  16.345  16.815 -0.2224  0.1858  0.1793
25575W        W42423   7.986  10.174   4.020 -0.1790 -0.2162 -0.1707
25576W        W42424  16.053   0.349  13.284 -0.2529 -0.0703 -0.1563
25577W        W42425  11.334  13.548   4.949 -0.3115  0.1786  0.3803
25578W        W42426   3.890   4.704   2.134 -0.1400 -0.5824 -0.0509
25579W        W42427   7.495  13.403   4.146  0.0088 -0.1503  0.1546
25580W        W42428   5.029   9.060  17.544  0.0917  0.1624  0.0906
25581W        W42429   4.876   0.148  13.720  0.1947  0.1913  0.0041
25582W        W42430  12.341   7.636  13.923  0.2534  0.3134  0.0632
25583W        W42431   2.360   0.062  13.620 -0.0557 -0.0753 -0.2345
25584W        W42432  16.184  15.521  13.634  0.0851  0.0311 -0.0392
25585W        W42433  12.034   7.671   4.646 -0.2540  0.1410 -0.2679
25586W        W42434  16.963  14.786  16.347 -0.1438  0.1126  0.1498
25587W        W42435   9.615   2.210   1.913  0.2976 -0.0005 -0.0507
25588W        W42436  16.008  12.715   6.041  0.2272 -0.0003  0.2737
25589W        W42437   8.811  17.133  15.709  0.2250 -0.1898 -0.1922
25590W        W42438  15.208   6.350   3.240  0.0092  0.0265  0.0106
25591W        W42439   9.718   6.699  13.252 -0.0373 -0.1885  0.1001
25592W        W42440   6.352   1.326   4.680 -0.0281 -0.1067 -0.0089
25593W        W42441  12.228  13.076  13.311  0.0636 -0.3521  0.0015
25594W        W42442  10.885  11.662   4.322 -0.3210  0.2314 -0.0637
25595W        W42443   7.213   0.938   1.536  0.1429 -0.0490  0.1563
25596W        W42444   8.685   8.435  14.758 -0.2355  0.0046 -0.0436
25597W        W42445   1.705  16.640  13.465 -0.1454  0.0551 -0.0624
25598W        W42446   5.260   9.536   2.009  0.0276 -0.1571  0.1241
25599W        W42447  13.015   0.910   5.233  0.1760 -0.1673  0.2766
25600W        W42448   7.789   9.899  15.517 -0.0891 -0.0123 -0.1719
25601W        W42449   8.434   9.076   4.787  0.2585  0.0859 -0.0885
25602W        W42450   9.432   5.953   4.383  0.1674  0.0269  0.0348
25603W        W42451  16.904   2.957   1.073  0.0787 -0.1741 -0.0114
25604W        W42452   1.293   4.067  12.670  0.0653 -0.3808 -0.0556
25605W        W42453  14.326   9.724   4.770 -0.2546  0.1135 -0.3292
25606W        W42454  13.326  14.075  15.319 -0.0967 -0.0966 -0.0374
25607W        W42455  12.520  14.458  12.083 -0.2803 -0.2048 -0.2634
25608W        W42456   7.045  11.888  14.821  0.0177 -0.2727 -0.2028
25609W        W42457  16.972   3.807   0.279  0.2408  0.0861  0.0735
25610W        W42458   4.940   7.718  16.386  0.1351 -0.0734  0.2289
25611W        W42459   5.012  13.722  13.870 -0.4130  0.1741 -0.0610
25612W        W42460  12.871   5.426  15.209  0.3239 -0.1853 -0.1155
25613W        W42461   7.311   7.224  12.188 -0.2204 -0.0069 -0.0742
25614W        W42462  17.120   4.243  14.400  0.0766 -0.0546  0.0309
25615W        W42463  11.115   5.731  14.567 -0.1167 -0.2728 -0.0809
25616W        W42464  12.405  16.179   3.753  0.1803  0.0455 -0.0462
25617W        W42465  16.882   0.204   3.276 -0.1639 -0.2225  0.0520
25618W        W42466   4.718   3.178  14.748 -0.0812  0.0036  0.0225
25619W        W42467  14.045   3.103   0.343  0.3298 -0.0560  0.0134
25620W        W42468   7.510   0.048   1.047 -0.1175 -0.2747  0.0864
25621W        W42469  15.116   9.862  14.419  0.0232  0.1211  0.0519
25622W        W42470   6.599   6.383  16.857 -0.1209  0.3342  0.3943
25623W        W42471  15.071  12.336  15.319 -0.1460  0.3462  0.0521
25624W        W42472  11.460   7.041   4.501  0.0096  0.2074 -0.0334
25625W        W42473   2.429  10.288   6.172  0.3427  0.0486  0.0501
25626W        W42474   4.408  16.632   5.981  0.1110 -0.2412 -0.0208
25627W        W42475  16.593  16.804   0.467 -0.1684  0.1665 -0.0074
25628W        W42476   5.440  11.522   2.986 -0.1039 -0.0479  0.0252
25629W        W42477  14.690  12.222   2.881  0.0869  0.0037 -0.1676
25630W        W42478  11.356  13.635  16.137  0.0721  0.1477  0.0690
25631W        W42479  15.696   6.254   4.433  0.1177  0.0077 -0.1464
25632W        W42480   7.562  16.798   1.364 -0.2028 -0.0461  0.1857
25633W        W42481  16.010  16.972  16.986 -0.1145  0.0026  0.0244
25634W        W42482  14.839   1.454  13.866  0.0403  0.0951 -0.1979
25635W        W42483  11.087  15.406  13.331 -0.3159 -0.1744  0.0034
25636W        W42484  14.556   0.194  15.861 -0.1515  0.0772  0.2442
25637W        W42485   8.376  16.741   4.129 -0.2832  0.2937  0.0047
25638W        W42486  14.377   0.712  15.659  0.0607 -0.0219 -0.0010
25639W        W42487  15.909  10.416   1.084  0.3446 -0.1973  0.2806
25640W        W42488   7.362  16.184  14.259  0.1022 -0.3920 -0.1208
25641W        W42489   6.776  15.273   5.623 -0.2401 -0.2037 -0.2520
25642W        W42490  15.692   8.784   5.274 -0.0836  0.1802  0.0230
25643W        W42491   5.178  16.834   4.239 -0.0227  0.2500 -0.4871
25644W        W42492  13.246   9.401  12.095 -0.2209  0.0111  0.1725
25645W        W42493   9.591  10.305  12.492  0.1289 -0.0222 -0.2938
25646W        W42494   4.099  15.954  12.909  0.2991 -0.0298 -0.0115
25647W        W42495   4.499  14.635  11.613  0.1570 -0.2009  0.3106
25648W        W42496  10.983   3.474  15.140  0.2983 -0.3401  0.1032
25649W        W42497  16.592  10.586  11.355  0.0240 -0.1048  0.0594
25650W        W42498   4.391  12.858  16.318  0.2168 -0.1010 -0.1397
25651W        W42499  12.505  13.515   3.848  0.0782  0.1454 -0.1507
25652W        W42500   0.701  12.856   1.445  0.2608  0.1272 -0.1363
25653W        W42501   0.821  16.537  12.993  0.0140 -0.2700  0.1561
25654W        W42502  15.157   8.673   0.691 -0.0394 -0.0757 -0.2240
25655W        W42503   6.162   6.095   0.821 -0.1903  0.0056  0.2243
25656W        W42504   2.613   7.509  12.217 -0.3794  0.2009 -0.1962
25657W        W42505  15.700   0.394   5.249  0.0964  0.2435  0.0634
25658W        W42506   4.106  10.400  12.797 -0.0297  0.0682 -0.0720
25659W        W42507  17.021  14.568  14.449  0.1215  0.1094  0.0867
25660W        W42508   5.752   5.430  12.075  0.1126 -0.0082 -0.3886
25661W        W42509   6.736  11.223   1.041  0.1180  0.2479  0.3620
25662W        W42510  12.218   6.263  15.869 -0.1196 -0.0020  0.2270
25663W        W42511   6.006   6.230   2.997  0.4177 -0.0091 -0.1161
25664W        W42512   0.977   8.822  14.917 -0.0116 -0.3592 -0.2348
25665W        W42513   3.415  15.147  15.100  0.2516 -0.0367 -0.0862
25666W        W42514   9.240  13.830  14.769 -0.1254  0.0207  0.0560
25667W        W42515   6.595  12.842  12.990 -0.1156  0.0333 -0.1318
25668W        W42516   1.334   7.554   5.754  0.0934 -0.3961 -0.1805
25669W        W42517   4.092  13.037   1.427 -0.0631  0.1341 -0.2859
25670W        W42518   0.754  14.867   2.351 -0.0879 -0.0945  0.0966
25671W        W42519   9.282  11.257  17.121  0.1147  0.1859  0.4261
25672W        W42520  13.467  15.503   2.270 -0.2293 -0.2288 -0.1585
25673W        W42521   0.180  11.968   3.622 -0.1857  0.0172  0.3031
25674W        W42522  16.922   7.760  13.355 -0.0531  0.0119 -0.3317
25675W        W42523   5.220   4.591   5.448 -0.0772  0.2406 -0.1841
25676W        W42524   6.602   7.042  13.803 -0.2937  0.1164  0.0889
25677W        W42525  10.437   7.018  13.795 -0.0234 -0.0029 -0.1172
25678W        W42526  13.873   5.826   1.932 -0.1870 -0.3100  0.0925
25679W        W42527   7.470   7.018  14.415 -0.0147 -0.2910 -0.3746
25680W        W42528   8.871   9.615  15.113  0.0056  0.0471 -0.2533
25681W        W42529   1.404   9.166   3.246  0.0321 -0.0360 -0.1694
25682W        W42530   9.929   7.077  13.472 -0.2027 -0.1323 -0.1060
25683W        W42531   9.527   4.802  16.118  0.1601 -0.2592 -0.2708
25684W        W42532   0.077  14.845   1.258  0.0322 -0.0668 -0.4768
25685W        W42533   5.437   2.402  14.799 -0.0107 -0.0690  0.0931
25686W        W42534   9.624   7.976  17.389  0.0666 -0.0900 -0.0157
25687W        W42535  15.958  13.844  13.014  0.2875  0.0161 -0.1392
25688W        W42536  11.855   8.332   1.772  0.3196  0.1605  0.2078
25689W        W42537  11.222  14.091   0.979 -0.1668 -0.1001  0.0995
25690W        W42538   2.138   4.126   2.299 -0.0200  0.1174 -0.1384
25691W        W42539   4.596   0.952  13.980 -0.0070 -0.2186 -0.2856
25692W        W42540  14.043  15.076  17.109  0.1940  0.0515 -0.1588
25693W        W42541   5.181   2.724   3.439  0.1105 -0.0720 -0.1134
25694W        W42542   3.528  15.894   3.354  0.1041 -0.4335  0.1884
25695W        W42543   9.145   6.289  11.423 -0.0072 -0.1550 -0.3167
25696W        W42544  16.093   1.383  12.321  0.0252 -0.2700  0.0657
25697W        W42545   7.644   1.983   4.792  0.1103  0.1077 -0.3065
25698W        W42546  10.137   9.824   4.365 -0.2337  0.1696  0.4089
25699W        W42547   5.404  13.318   4.070 -0.1249 -0.0925 -0.0775
25700W        W42548   1.272  14.132  14.074 -0.0805 -0.0587  0.0716
25701W        W42549  16.578   2.391  13.279  0.0059 -0.2596 -0.0246
25702W        W42550   5.862   1.562   6.248  0.3702  0.0393 -0.2945
25703W        W42551  15.006  12.314  13.967  0.0513 -0.0161 -0.3997
25704W        W42552   8.341   5.813   3.584  0.1113  0.1749  0.0980
25705W        W42553  16.501   4.501   1.899  0.0686  0.2516 -0.0429
25706W        W42554   2.261   3.028  14.536  0.3323  0.1675  0.0263
25707W        W42555  15.244  16.014  14.210  0.0502  0.3752  0.0341
25708W        W42556   1.032  15.810   1.097 -0.3221  0.0069  0.2678
25709W        W42557  16.703  13.492  16.484 -0.0805 -0.2536 -0.1173
25710W        W42558  10.968  13.175   4.103  0.1396  0.0028  0.0075
25711W        W42559   6.639   7.457   4.808 -0.0591 -0.2419  0.0045
25712W        W42560   8.216  13.756   4.809 -0.2501 -0.0056  0.0194
25713W        W42561   9.334   2.418  13.898 -0.0327  0.0123 -0.0677
25714W        W42562  15.306   4.666   3.371  0.2156 -0.2718 -0.1174
25715W        W42563   2.556  14.213   5.520  0.2575 -0.4266  0.0781
25716W        W42564   7.083   6.192  13.414 -0.1596 -0.1659  0.2417
25717W        W42565   8.610  14.800  15.605 -0.1325 -0.0531  0.0498
25718W        W42566  13.445   2.644   5.181  0.1799  0.0553 -0.2056
25719W        W42567  11.857  11.794   2.152 -0.2639  0.0603 -0.1324
25720W        W42568  14.982   3.407   3.100  0.0698 -0.2244  0.0633
25721W        W42569   2.352  12.863   5.551  0.3114 -0.3707 -0.1128
25722W        W42570  11.631   1.193  15.470  0.1533 -0.1649  0.2710
25723W        W42571   5.600  16.918  16.698 -0.0332 -0.1495 -0.3739
25724W        W42572   6.402   6.397  14.945 -0.1698 -0.1470  0.0628
25725W        W42573   7.134  14.848  14.585  0.0098  0.1148  0.0815
25726W        W42574   9.859   7.833  12.891 -0.0551  0.1203 -0.0384
25727W        W42575   9.260  15.299   1.448 -0.1086 -0.0281  0.0398
25728W        W42576   5.697  10.899  12.744 -0.1851  0.1197 -0.0432
25729W        W42577   5.413  15.832   1.908  0.2695  0.2768  0.0216
25730W        W42578   6.022   3.347   1.405  0.0751 -0.1016  0.1934
25731W        W42579  15.597   5.654   4.831  0.0206 -0.1042 -0.0029
25732W        W42580   1.186  16.223   1.885  0.1328  0.3314 -0.1643
25733W        W42581   7.003  15.198   2.304 -0.2951 -0.3135  0.1547
25734W        W42582  10.100   1.807   3.166  0.2152  0.3392  0.0760
25735W        W42583  10.582   2.927   2.877 -0.2453 -0.1779  0.1059
25736W        W42584   8.291   3.226   0.687  0.4006 -0.0951  0.0851
25737W        W42585  13.215   4.930   1.146  0.0950  0.2510  0.1634
25738W        W42586   4.221   3.696  16.254 -0.0057  0.3307 -0.1941
25739W        W42587  12.356  13.224  15.257  0.3321  0.3085 -0.0968
25740W        W42588   6.346   1.489   5.164  0.0268 -0.2862  0.0313
25741W        W42589  13.776   5.983  16.360 -0.0994  0.0030  0.0051
25742W        W42590   7.526   8.137  14.334 -0.2216 -0.1193  0.3801
25743W        W42591  14.058   3.719  13.347  0.5312  0.1145 -0.3183
25744W        W42592   4.587  15.168   1.960  0.0353  0.1599  0.0706
25745W        W42593   7.255  17.155  13.981 -0.1112 -0.0281  0.0496
25746W        W42594  15.615  10.488  14.021  0.1078  0.3108 -0.1171
25747W        W42595   6.398   9.151   1.505  0.3462  0.0091 -0.3066
25748W        W42596   6.820   8.784   3.934 -0.2015 -0.0847 -0.1058
25749W        W42597  13.162   4.037  17.701  0.0668  0.2031  0.2316
25750W        W42598  13.858  10.810   3.338 -0.0992  0.0836  0.1807
25751W        W42599   0.635  15.757   6.764  0.1958  0.1183 -0.1096
25752W        W42600   5.661   7.709   0.626  0.5268  0.2585  0.1343
25753W        W42601   3.114   0.668  16.625  0.1142  0.0042  0.2394
25754W        W42602  14.918   3.190   2.541  0.0175  0.1564  0.0995
25755W        W42603   9.117   6.687   5.415 -0.3184  0.0563  0.2565
25756W        W42604   2.828   3.765  13.457 -0.1805  0.0708 -0.1180
25757W        W42605   8.288  13.034   2.959 -0.2877  0.0369 -0.1125
25758W        W42606  12.674  13.503  13.199  0.2574 -0.1992 -0.1504
25759W        W42607   3.779  15.451   4.344  0.1578 -0.0744 -0.1002
25760W        W42608   5.823  15.671  12.328 -0.1086  0.0265  0.2146
25761W        W42609  10.511   4.792   2.310 -0.0308  0.1199  0.1738
25762W        W42610   8.052  15.709   1.981 -0.1102  0.1931  0.2356
25763W        W42611  12.003   2.933   0.793 -0.0960  0.0383  0.0370
25764W        W42612   8.180   0.362  11.811  0.0871 -0.3149 -0.1534
25765W        W42613   8.268   7.041  14.481  0.1421  0.0210 -0.2374
25766W        W42614  13.797   5.425  16.321  0.2003  0.0267  0.2836
25767W        W42615   9.102  13.492   1.086  0.1726  0.2839 -0.2057
25768W        W42616   0.949   3.080   1.674  0.0401 -0.1603 -0.1595
25769W        W42617  15.071  16.158   1.716 -0.0885 -0.0523  0.0744
25770W        W42618  10.406  13.938  14.924  0.0330 -0.0258 -0.1885
25771W        W42619   9.023   9.181  15.288  0.1206 -0.0536 -0.0428
25772W        W42620   6.444  11.823   4.179  0.2254 -0.0507 -0.1396
25773W        W42621   7.552  12.681  17.566 -0.0968 -0.0270 -0.1343
25774W        W42622  14.884   3.995  14.391 -0.3400 -0.2040  0.0387
25775W        W42623  10.138   0.842   0.978  0.0854 -0.3242  0.0919
25776W        W42624   4.480   2.120  13.210 -0.1374 -0.1793 -0.1836
25777W        W42625  12.192  15.328  17.131  0.0170 -0.3302  0.2381
25778W        W42626  13.709   3.604  14.730  0.1122  0.2350 -0.1290
25779W        W42627   6.897   7.510  14.948  0.0764 -0.1239 -0.1856
25780W        W42628   6.190  12.828   1.906 -0.0241 -0.0989  0.3437
25781W        W42629   0.392   2.433   5.835 -0.0023 -0.0092 -0.1810
25782W        W42630   5.866   2.778   5.179 -0.0407  0.0053 -0.3273
25783W        W42631   3.725  14.810  12.647 -0.3069  0.2230  0.0432
25784W        W42632  10.755  15.269  12.409  0.1306  0.0377  0.0119
25785W        W42633   9.163  14.120   3.560  0.2647 -0.0775  0.3302
25786W        W42634   2.059  14.239   0.271  0.0848 -0.1910  0.3146
25787W        W42635  12.687   3.621   4.362  0.2912 -0.2921  0.1247
25788W        W42636   3.956  10.261  13.997 -0.1875  0.0407  0.2687
25789W        W42637   0.905  12.137   2.084  0.0738 -0.1845  0.1148
25790W        W42638  12.225   3.057  13.236 -0.1108 -0.0840  0.3356
25791W        W42639  15.161   9.337  15.882  0.6356  0.0880 -0.2780
25792W        W42640  10.809  12.319  13.307  0.1621 -0.1451  0.1398
25793W        W42641   7.762   0.311  14.612  0.0424  0.0911  0.1796
25794W        W42642   0.913  16.712  13.912 -0.0364 -0.0056 -0.0770
25795W        W42643  14.585  10.164  16.608 -0.0376 -0.2358  0.0403
25796W        W42644   1.924   4.598  13.577  0.0568 -0.1028  0.2755
25797W        W42645  11.616   8.418  12.812 -0.1183 -0.2903  0.1295
25798W        W42646  11.198  13.640   0.555  0.1348  0.3338 -0.1401
25799W        W42647   4.976   2.891   2.385  0.0320  0.3360 -0.0226
25800W        W42648  16.791   2.586  15.171 -0.0551  0.0445 -0.0626
25801W        W42649  13.293  16.450   3.814  0.3333  0.0097 -0.2241
25802W        W42650   0.898   6.388   5.519 -0.0165  0.2378 -0.0655
25803W        W42651  14.195   3.515  16.619 -0.2418 -0.2153 -0.0577
25804W        W42652  13.298  10.724   5.934  0.3811  0.3367 -0.0361
25805W        W42653   4.750   8.807  12.484  0.0174  0.1947  0.0391
25806W        W42654   6.318   4.440   2.218 -0.2181 -0.2058 -0.3247
25807W        W42655   8.782  11.847   3.059 -0.0087  0.1118  0.2544
25808W        W42656  10.877  12.926  12.129  0.1243 -0.0301  0.1704
25809W        W42657   5.074  15.747   5.241 -0.3703 -0.1370 -0.3496
25810W        W42658   3.935  13.294   5.321 -0.2203 -0.0629 -0.1632
25811W        W42659   2.001   3.900  12.028 -0.1393  0.0364  0.0421
25812W        W42660   0.560   8.876  17.501 -0.0562  0.2107 -0.1409
25813W        W42661  10.515  15.790   5.604  0.2196  0.4101 -0.2916
25814W        W42662  14.490   7.830   2.910  0.0649  0.1092  0.0435
25815W        W42663   5.220   3.724  17.693  0.0108 -0.0249  0.0005
25816W        W42664   7.698   6.815   0.592 -0.4162  0.1853 -0.2098
25817W        W42665   5.519   9.837   1.648  0.0572 -0.0659 -0.0597
25818W        W42666  16.015   5.543   1.030 -0.0607 -0.0101 -0.1511
25819W        W42667  13.571   5.729  15.959  0.0505 -0.1555 -0.4807
25820W        W42668  11.692   9.336   3.716  0.0677 -0.0767  0.2260
25821W        W42669   2.974   4.780   3.041 -0.0514  0.0494 -0.1520
25822W        W42670   7.612  12.209   0.801 -0.1469 -0.2871 -0.1330
25823W        W42671  14.210  10.539  12.701  0.0918  0.0269  0.0047
25824W        W42672   6.111  13.009  14.902  0.0347  0.0156 -0.1806
25825W        W42673   5.383   0.148  13.579  0.4102 -0.0987  0.0385
25826W        W42674   8.350   4.005   0.194 -0.2290 -0.0720  0.4025
25827W        W42675  10.312  11.015   4.426  0.1482  0.0029 -0.0143
25828W        W42676  15.032   6.597   5.425 -0.0243  0.0735 -0.0981
25829W        W42677   3.745   4.228  12.419 -0.2582  0.0565 -0.2863
25830W        W42678   7.950   4.256  12.257  0.4214 -0.0880  0.3347
25831W        W42679  14.978  10.079   1.551  0.1523 -0.3496  0.0149
25832W        W42680  12.450   5.682   2.199  0.0585  0.0012 -0.0886
25833W        W42681   9.596  14.808  16.000  0.2136  0.0758 -0.0913
25834W        W42682  12.485   0.065  11.789 -0.1627  0.2048  0.3239
25835W        W42683   1.728   3.672   2.538  0.4128 -0.2853  0.3455
25836W        W42684   6.677  14.961  14.295 -0.3479 -0.1952  0.3758
25837W        W42685   0.126   2.582  15.292 -0.1576 -0.1797  0.1872
25838W        W42686   1.456   7.747  15.912  0.0310 -0.0471  0.0257
25839W        W42687  14.541   4.882   6.111 -0.0086 -0.0096  0.2987
25840W        W42688   4.565   1.223   3.434  0.0066  0.0860  0.0841
25841W        W42689   4.123   1.749   5.961  0.1671  0.0417 -0.1366
25842W        W42690   9.840  10.105  16.880 -0.2172  0.3659 -0.2032
25843W        W42691   9.439  10.082   1.241  0.3393 -0.1204  0.0279
25844W        W42692   6.489  10.395   3.086 -0.1064 -0.1279 -0.0676
25845W        W42693   5.172   3.255  12.719  0.2904  0.2173 -0.2292
25846W        W42694  12.718   4.877  13.390  0.1174  0.0096 -0.1063
25847W        W42695  13.825  14.983   2.583  0.4569 -0.0846 -0.0116
25848W        W42696   0.466  12.434   4.282  0.0325 -0.0858 -0.0026
25849W        W42697  13.653  12.334   3.971 -0.0974  0.1110 -0.2217
25850W        W42698   8.134   8.164   3.970 -0.0443  0.1384  0.0664
25851W        W42699  16.284   4.062  17.557  0.0552 -0.2110  0.3005
25852W        W42700   6.824   0.086  17.640 -0.3586  0.0967 -0.1152
25853W        W42701  17.055   5.975   2.252 -0.0313  0.0496 -0.0185
25854W        W42702  17.133   0.654   0.956 -0.2366 -0.1146 -0.1481
25855W        W42703   0.568   8.110   4.481 -0.1652  0.1487  0.0497
25856W        W42704   4.386  12.470   4.715 -0.1061 -0.0411  0.1614
25857W        W42705   3.665  11.212  14.176 -0.2551 -0.4908  0.1574
25858W        W42706   2.487   3.597  17.035 -0.5398  0.0826 -0.3689
25859W        W42707  15.249   0.177  16.486  0.1034 -0.4821  0.0381
25860W        W42708  15.175   9.964  15.349  0.0053 -0.1288  0.2349
25861W        W42709   0.608   9.515   3.123  0.0639  0.0365  0.2729
25862W        W42710   0.876  14.058   3.227  0.2439 -0.2176  0.0073
25863W        W42711  15.440   2.554   4.476 -0.0725 -0.1569 -0.0841
25864W        W42712   6.321  11.621  15.160  0.1817  0.1603 -0.1786
25865W        W42713   2.284   6.513  13.381  0.0997 -0.0194 -0.3065
25866W        W42714   8.239   8.895   2.971 -0.1630 -0.2364 -0.0893
25867W        W42715   3.177   8.261   2.737  0.0519 -0.1070  0.0265
25868W        W42716  15.694  15.304   5.995  0.0036  0.5149 -0.1425
25869W        W42717  12.967  11.587  16.891 -0.1063 -0.1182 -0.1507
25870W        W42718   3.565  15.366   0.152 -0.4582  0.0974 -0.0158
25871W        W42719  12.613  14.128  15.248 -0.4353 -0.1793  0.3154
25872W        W42720  13.624   7.629  17.020  0.0952 -0.0951  0.2307
25873W        W42721  10.866   0.180  15.940  0.0143  0.1106 -0.0450
25874W        W42722   7.372   3.628  17.289  0.0332  0.1099  0.2982
25875W        W42723   4.094   0.417   0.303  0.1146 -0.0597  0.2995
25876W        W42724  14.216   4.346  16.180 -0.1445 -0.1491  0.1557
25877W        W42725  10.811   9.743  17.609 -0.1054  0.0283 -0.0576
25878W        W42726   7.570   0.306   2.088  0.2210 -0.0011 -0.1005
25879W        W42727   7.299   2.690   1.110  0.0888  0.0823 -0.0350
25880W        W42728   9.644   4.403  13.320  0.3134 -0.0894 -0.2157
25881W        W42729  11.365   2.425  12.443  0.1656 -0.0809  0.3032
25882W        W42730  16.602   5.692  13.874  0.1290 -0.2145  0.1804
25883W        W42731  17.013   6.056   0.225 -0.2086  0.0375  0.2701
25884W        W42732   2.987  17.013  14.733  0.1563  0.1704 -0.0666
25885W        W42733   4.233   8.374   1.187  0.0404 -0.2423  0.0450
25886W        W42734  13.792  15.801   3.404  0.0216 -0.3287 -0.2555
25887W        W42735   5.707  12.285  14.505  0.1744  0.2814 -0.0988
25888W        W42736   9.718   7.497  15.946 -0.0634  0.0440  0.1752
25889W        W42737   8.316   8.075  12.717 -0.2115  0.0551  0.4303
25890W        W42738  16.247  11.385  17.197  0.0251 -0.0287 -0.2015
25891W        W42739  15.130  16.596   1.906  0.2568  0.1851 -0.0125
25892W        W42740   2.115  16.634  12.294 -0.0097  0.0970  0.0861
25893W        W42741   4.953  14.485  13.897 -0.1462  0.1162  0.2365
25894W        W42742   5.774   2.572  13.167  0.0808  0.5366  0.3304
25895W        W42743  13.298  17.144  10.897 -0.1526  0.0628  0.1987
25896W        W42744  13.992  12.112  14.619 -0.0686 -0.2452 -0.1795
25897W        W42745  13.870   8.971   0.762 -0.6208  0.0682  0.0126
25898W        W42746   9.390  13.008  16.572 -0.1174 -0.0769 -0.1902
25899W        W42747   6.966   4.883  13.469  0.1278  0.1383 -0.0923
25900W        W42748  11.541  16.288   5.091 -0.0325 -0.0388 -0.1705
25901W        W42749  10.120  14.108  10.858  0.1357 -0.2566  0.1665
25902W        W42750  16.918  11.341  12.792  0.4924 -0.0460  0.1795
25903W        W42751  11.489   7.603   4.446 -0.0879  0.2058 -0.1041
25904W        W42752   3.080  14.219   6.587 -0.3039  0.2912  0.1734
25905W        W42753   2.971  14.986   1.568 -0.0383  0.1832  0.0190
25906W        W42754  16.621   5.984  15.528  0.0176 -0.1521 -0.3753
25907W        W42755   4.430   2.519  12.925  0.1011  0.1188 -0.2276
25908W        W42756  10.399  15.976  17.688 -0.0140  0.0862 -0.2077
25909W        W42757   5.444   7.218  13.435  0.0212 -0.0918 -0.0496
25910W        W42758   1.375   8.001  13.872  0.1974  0.0247 -0.2441
25911W        W42759   6.265  13.056  16.211  0.0550  0.2207 -0.1407
25912W        W42760  12.733   6.921   2.587 -0.0891 -0.2615  0.1210
25913W        W42761   5.107   6.950  13.114  0.2521  0.0005  0.0293
25914W        W42762   8.334  15.499  14.918  0.1118  0.1603  0.0017
25915W        W42763   8.230   4.953  15.105  0.1760  0.0240 -0.0770
25916W        W42764   2.438   8.108   2.979 -0.1597  0.2460  0.0033
25917W        W42765   4.762   8.472  15.881 -0.2346  0.0002  0.1073
25918W        W42766   7.366  10.411  13.881 -0.0168 -0.0053 -0.2017
25919W        W42767  11.932  10.538  12.549  0.1978 -0.0928 -0.0801
25920W        W42768   3.288   8.658  11.843 -0.2941 -0.2593  0.1105
25921W        W42769   2.533  10.356  15.316 -0.0255  0.0678  0.0552
25922W        W42770  11.692   1.792   4.091 -0.3381  0.5220 -0.1753
25923W        W42771   3.653  12.903   5.641  0.1907  0.0926  0.1134
25924W        W42772  10.381  11.625  12.277  0.2613  0.3085 -0.3004
25925W        W42773  13.021   8.769  16.057 -0.2906  0.1983 -0.0095
25926W        W42774  16.511   3.283   5.118 -0.1700  0.1956 -0.0097
25927W        W42775   4.977  12.508  17.276 -0.1859 -0.0897 -0.1978
25928W        W42776   8.925   4.999   5.144  0.0730 -0.0779  0.0547
25929W        W42777   4.497  13.181   1.641 -0.2079  0.1480  0.1544
25930W        W42778  10.714  10.026   1.184 -0.0895  0.1423 -0.2499
25931W        W42779   7.656  12.443  14.532  0.3257 -0.1365  0.0406
25932W        W42780  17.106  16.739   3.045 -0.2459  0.0399  0.1431
25933W        W42781   7.920  11.539  17.205 -0.1731  0.0380  0.1425
25934W        W42782   1.482   3.151  15.145  0.0481  0.0399  0.1427
25935W        W42783  14.148   3.457   3.289  0.1694  0.1665 -0.2731
25936W        W42784  10.282  16.908   5.035  0.0493 -0.0244 -0.1027
25937W        W42785   1.892   9.968  15.126  0.3357  0.1720  0.0004
25938W        W42786   7.897   8.967   0.476  0.1402 -0.2060  0.1891
25939W        W42787  15.698   6.113  15.308  0.1162 -0.0138  0.1616
25940W        W42788   6.093   8.442   1.931 -0.0566  0.2859  0.1874
25941W        W42789  14.600   4.373  12.252  0.2067 -0.0406 -0.0673
25942W        W42790  12.529  10.396  13.081  0.0096 -0.2605  0.1339
25943W        W42791   9.212  12.800   2.690 -0.0088 -0.1049 -0.3068
25944W        W42792  12.914   7.856  14.612 -0.3578  0.0282 -0.1938
25945W        W42793  17.017   2.426   4.662  0.0198 -0.1948 -0.1712
25946W        W42794   4.094   0.869  14.608  0.0295 -0.0149 -0.2017
25947W        W42795  10.800   4.463  13.609  0.0047 -0.4044 -0.0679
25948W        W42796  16.303  10.427  14.603 -0.0674  0.0775  0.5151
25949W        W42797   7.307  15.501   4.788 -0.3861  0.1291  0.2505
25950W        W42798   5.700   4.876   5.396 -0.2480 -0.0478 -0.0854
25951W        W42799   0.442  15.557   1.714 -0.2167  0.0706  0.3910
25952W        W42800  11.633   7.529   0.275 -0.0419  0.0409  0.0497
25953W        W42801  14.280   1.715  16.437 -0.0272 -0.0310  0.2404
25954W        W42802  12.564   6.834   3.843 -0.2510 -0.0415 -0.3681
25955W        W42803   4.401  13.370   4.204 -0.0204 -0.1833 -0.0567
25956W        W42804   9.267   1.479  11.355  0.4131  0.2755  0.0846
25957W        W42805   9.187   7.182  12.499 -0.1479  0.1229  0.0447
25958W        W42806   0.376   5.028  12.577  0.2161  0.0761 -0.0819
25959W        W42807  14.937   1.065  13.551 -0.0353  0.1546  0.4821
25960W        W42808   5.864   8.530  12.640 -0.0203 -0.1920 -0.1414
25961W        W42809   5.002   4.593  16.675 -0.3295 -0.2664  0.2713
25962W        W42810  10.328  11.328   1.841 -0.4180 -0.0500 -0.3616
25963W        W42811   5.398   1.095   1.476 -0.1890  0.1644 -0.1737
25964W        W42812   7.411   3.705  14.329 -0.0281  0.0486  0.0781
25965W        W42813   4.579   2.904   2.699  0.2735 -0.2109  0.1288
25966W        W42814   3.964  12.103   2.681 -0.4636 -0.0757  0.1991
25967W        W42815  13.528   9.930  14.345 -0.0809  0.1709 -0.2006
25968W        W42816   1.247   2.770  14.912  0.1035 -0.0149 -0.1829
25969W        W42817   5.026  10.612   5.618 -0.2878 -0.1985 -0.0237
25970W        W42818   5.032  11.392  13.148  0.1917 -0.0755  0.0024
25971W        W42819   9.089  13.572  12.739  0.2978  0.0479 -0.1065
25972W        W42820  15.695  16.951   6.502  0.1963 -0.0929 -0.0476
25973W        W42821   7.708  15.735   3.941 -0.0575  0.2051 -0.1827
25974W        W42822  13.739   4.901   5.578 -0.0646 -0.3102 -0.1508
25975W        W42823  10.809   5.868   2.640 -0.3391 -0.2628 -0.0653
25976W        W42824   9.585   4.951   4.606 -0.2521 -0.3607 -0.1004
25977W        W42825   5.551  13.424  16.592 -0.3013 -0.2263 -0.0683
25978W        W42826   4.833   1.892   2.927  0.2700  0.0443  0.2127
25979W        W42827   2.942   6.109   5.682 -0.0343 -0.0733  0.0746
25980W        W42828  15.132  14.573   4.804 -0.0369 -0.4888 -0.0470
25981W        W42829   3.554  13.353  16.778  0.2828 -0.0007 -0.0978
25982W        W42830   9.869  11.983  17.396 -0.1528 -0.1067 -0.2150
25983W        W42831  16.774  10.584  15.991  0.3267 -0.0563 -0.1776
25984W        W42832  11.497  10.536   0.790  0.2117  0.1439  0.1065
25985W        W42833   0.956   3.162  12.928  0.0487  0.0312 -0.0518
25986W        W42834   8.590  11.416   1.558 -0.0215 -0.2366 -0.0649
25987W        W42835   0.520  13.089   0.308  0.0267 -0.1710  0.1005
25988W        W42836   2.656   1.146  17.392 -0.0592  0.1923  0.0179
25989W        W42837  14.572   8.586   4.483  0.1477 -0.0555  0.1178
25990W        W42838  14.578  13.633   1.638  0.3766 -0.3012  0.1007
25991W        W42839  10.857   5.234  11.365 -0.0813 -0.0676  0.4570
25992W        W42840  16.389   6.476   1.834 -0.0642  0.0958  0.0565
25993W        W42841  11.434  10.378   0.260 -0.0752  0.0652 -0.0241
25994W        W42842  11.716   5.312   3.523  0.2616  0.1406 -0.0816
25995W        W42843   9.951   5.695  16.454 -0.0621  0.0223  0.2674
25996W        W42844   4.797   6.735  16.652  0.4201  0.0965 -0.1720
25997W        W42845   1.781   2.998  13.097  0.1097  0.3150  0.0830
25998W        W42846   9.216   3.124   2.453  0.0423  0.2714 -0.4276
25999W        W42847   0.345  11.624   5.966  0.0538 -0.0294  0.2031
26000W        W42848   8.180   0.634   0.920 -0.0508  0.2957  0.2945
26001W        W42849  10.528   4.200  15.698 -0.0146 -0.3131 -0.1035
26002W        W42850   5.045   2.581   0.984  0.1826  0.0096  0.2785
26003W        W42851   8.697   5.634  12.726  0.2505  0.0928  0.1376
26004W        W42852   4.055   6.210  12.744  0.1759  0.1039  0.0892
26005W        W42853   8.635   7.456  15.824 -0.3146  0.0015  0.0379
26006W        W42854   8.562   0.876   5.215 -0.0564 -0.1640 -0.1709
26007W        W42855  13.941  11.598   1.453 -0.0211  0.0032  0.1670
26008W        W42856   9.999   3.024  17.649  0.1898 -0.2781  0.0569
26009W        W42857   8.869  16.634   4.215  0.1515  0.1620 -0.2120
26010W        W42858  14.029  12.031   2.998 -0.0210  0.0683 -0.0250
26011W        W42859   9.184   0.600   0.423  0.1884 -0.3215 -0.2114
26012W        W42860  14.259   1.668   4.353 -0.1119 -0.1199 -0.2382
26013W        W42861  11.725  16.534   0.509 -0.0610 -0.0873 -0.1029
26014W        W42862   2.764  14.901   0.291  0.2661  0.3914 -0.3787
26015W        W42863  11.879   3.290  17.066 -0.0197 -0.2784  0.2382
26016W        W42864   6.062  16.617  14.949  0.0096 -0.1159  0.0373
26017W        W42865   6.845   0.252  12.076 -0.6050  0.1258  0.2144
26018W        W42866  13.107   3.040  15.269 -0.2602 -0.1371 -0.0074
26019W        W42867   1.327   6.710   3.286 -0.2299 -0.1020  0.1359
26020W        W42868  12.221  11.437  14.064  0.1521  0.0401 -0.0254
26021W        W42869  13.504  12.024  14.704 -0.3181  0.1166  0.4687
26022W        W42870   1.862  11.206   6.256  0.2263 -0.1712 -0.1061
26023W        W42871  16.027  16.796  12.493 -0.1132 -0.1831 -0.2552
26024W        W42872   5.233  15.191  12.810  0.0708 -0.0529 -0.1456
26025W        W42873  14.554   6.773  15.769 -0.1610  0.1065 -0.0334
26026W        W42874  11.071   8.964  14.487 -0.1023  0.1127 -0.1450
26027W        W42875  16.164   4.571  17.346 -0.2798  0.0726 -0.0261
26028W        W42876   4.377   2.544   3.020  0.0377  0.3740  0.3242
26029W        W42877   7.039   3.032  12.188 -0.2173  0.2390  0.3089
26030W        W42878  16.387  15.558  12.828  0.0771  0.0418 -0.0031
26031W        W42879   5.871   3.066   3.239  0.0068  0.0140  0.0978
26032W        W42880  10.446   4.092   1.781  0.0602  0.2271  0.1790
26033W        W42881  10.417  14.516  12.107 -0.0678  0.2425 -0.0854
26034W        W42882   2.575  10.789   2.419 -0.2552  0.0378  0.1345
26035W        W42883   5.257  15.249  15.751  0.2268 -0.0291  0.0939
26036W        W42884  16.349  12.890  17.646 -0.1089 -0.3714 -0.1437
26037W        W42885   5.594   6.038   1.410 -0.0979  0.2187 -0.3186
26038W        W42886  11.411  15.554   0.063  0.0142  0.1191  0.2465
26039W        W42887   5.922   9.563  12.388 -0.2888 -0.0476  0.0907
26040W        W42888   8.836   2.646  15.096 -0.0275  0.0022  0.2609
26041W        W42889   0.907   7.340   2.654  0.0909 -0.0645 -0.0076
26042W        W42890  14.398  11.447  12.980 -0.2509 -0.0048  0.1086
26043W        W42891   8.347   8.189   2.449  0.0128  0.4046 -0.4263
26044W        W42892   3.649   2.992  15.915  0.1877 -0.1098 -0.1534
26045W        W42893   1.859   7.071   5.199 -0.2835 -0.0786 -0.0247
26046W        W42894   6.306  11.797   2.062  0.2685  0.0273  0.0844
26047W        W42895  10.926  10.061   5.150 -0.3862 -0.1254  0.0538
26048W        W42896   2.230   3.721  17.516  0.2582 -0.1107  0.0008
26049W        W42897   6.465  17.017   2.487 -0.0209  0.0250 -0.2303
26050W        W42898   7.963  13.572   5.691  0.1034  0.1708 -0.0140
26051W        W42899   3.839  17.080   4.029  0.2231  0.0192  0.0450
26052W        W42900   4.509  11.345   5.747 -0.1813 -0.0514  0.2392
26053W        W42901  16.649   1.168  17.004 -0.1418  0.4046 -0.1758
26054W        W42902  14.296  10.259   5.974  0.0842  0.2450  0.2922
26055W        W42903   8.671  13.458   3.764  0.0238 -0.0576  0.1342
26056W        W42904   0.467   7.929   5.021 -0.1165 -0.0167 -0.0886
26057W        W42905  15.977   4.571   1.797  0.2548  0.2589  0.1240
26058W        W42906   7.308   2.161  16.735  0.0323 -0.0113  0.2666
26059W        W42907   5.622   6.073  16.110  0.1624  0.1628 -0.2547
26060W        W42908  17.015  14.284  16.714 -0.3616 -0.2803 -0.3149
26061W        W42909  13.615  14.143  17.355  0.3126 -0.4045  0.0214
26062W        W42910  13.756  11.821  14.333  0.2206 -0.3391 -0.0277
26063W        W42911  13.791   3.909   4.518  0.1117  0.0536 -0.1616
26064W        W42912  16.387  16.829  14.302 -0.1344 -0.0898 -0.2516
26065W        W42913  10.692  15.792  12.508 -0.2097 -0.3584 -0.1942
26066W        W42914  14.236   9.563  14.626  0.1635  0.0965 -0.0008
26067W        W42915  15.174  13.377  13.000 -0.0563 -0.1767 -0.0835
26068W        W42916   5.833   2.286  17.740  0.0181  0.3074 -0.0176
26069W        W42917   3.291   7.492  16.204 -0.1109  0.0374  0.0485
26070W        W42918   9.270   4.689  14.124  0.0541  0.3475  0.2948
26071W        W42919   5.228  10.821  12.902  0.2378  0.1284 -0.0751
26072W        W42920   6.797  13.053   1.538  0.2662 -0.0862  0.0182
26073W        W42921   8.487   8.948   5.937  0.0601  0.0309  0.0457
26074W        W42922   7.584  14.667  13.516  0.0428  0.2360  0.2402
26075W        W42923   7.485   4.468  12.875  0.0200 -0.3456  0.1580
26076W        W42924  11.657   2.260   0.093 -0.0099 -0.0892  0.1880
26077W        W42925  10.264  10.559  15.421  0.2358 -0.0931  0.0131
26078W        W42926   9.223   4.607  13.053  0.0480  0.0971  0.1777
26079W        W42927  14.528   5.825  13.280 -0.0145  0.0483 -0.3657
26080W        W42928   9.424  16.781   1.413 -0.0560  0.1510  0.0478
26081W        W42929   1.266   9.326  16.394  0.2050  0.1506 -0.1098
26082W        W42930  10.531   1.738   4.887  0.1516 -0.0542  0.0458
26083W        W42931   2.651   6.117  13.466 -0.0980 -0.4246  0.1895
26084W        W42932  16.055  10.856  12.534  0.1012 -0.2355 -0.0757
26085W        W42933  10.361   8.941  12.586  0.1619 -0.2035 -0.0771
26086W        W42934  10.495   9.308  12.917  0.0184  0.0425  0.1111
26087W        W42935   0.048   3.499   4.218 -0.1905 -0.1890 -0.0375
26088W        W42936   2.985   5.289   0.393 -0.0771 -0.0585  0.0549
26089W        W42937   9.868   1.662   4.861  0.0929 -0.1334  0.1777
26090W        W42938  11.449   8.450  14.601  0.1323 -0.0910 -0.3729
26091W        W42939   6.139  16.110  14.978  0.2832 -0.2473  0.0682
26092W        W42940   2.165   2.169  15.954 -0.2929 -0.2201  0.1353
26093W        W42941   1.614   0.560   6.112  0.0938  0.1273 -0.0565
26094W        W42942  10.576  16.870   0.726 -0.0994 -0.1278 -0.0834
26095W        W42943  10.771   8.251  12.508  0.0871 -0.1348 -0.0099
26096W        W42944  15.889  13.504   1.471 -0.0585 -0.0164 -0.2569
26097W        W42945   7.178  15.717  13.973 -0.1152  0.1647  0.0210
26098W        W42946   3.761  14.044   0.456  0.1939  0.1146  0.0913
26099W        W42947   1.230   5.807   2.886 -0.1870  0.0749 -0.0245
26100W        W42948   7.838  14.995  13.896 -0.0469  0.1408 -0.0313
26101W        W42949   3.213   5.884  15.059 -0.1324  0.0013  0.1489
26102W        W42950  11.208  12.153   1.411 -0.0245 -0.1226 -0.1509
26103W        W42951   4.725   3.751   1.316  0.0199 -0.2821  0.0246
26104W        W42952   3.676   7.880   4.347  0.0300 -0.1500  0.1486
26105W        W42953  16.825   4.182  13.107  0.3483  0.0786  0.0754
26106W        W42954  15.047   2.291   5.602  0.0117 -0.0904 -0.0133
26107W        W42955   9.483  14.600   5.278  0.0921  0.1557  0.0524
26108W        W42956   9.419   8.542  12.044  0.1660  0.0476 -0.3201
26109W        W42957   0.773  12.146  16.384  0.5902  0.1104  0.0900
26110W        W42958  13.919   0.979   0.482 -0.0000 -0.0939 -0.2565
26111W        W42959  15.945  16.627   2.778 -0.0867 -0.1819 -0.5694
26112W        W42960  12.935   9.200  16.498 -0.0737  0.1879 -0.2296
26113W        W42961   8.622   3.445   3.994  0.2603  0.0859  0.1218
26114W        W42962   5.454   4.149   0.421  0.0622 -0.3106 -0.0090
26115W        W42963   4.065  14.229  16.717 -0.3514  0.0272  0.0179
26116W        W42964   1.175   2.664   5.940  0.2550 -0.2267  0.1403
26117W        W42965   1.142  14.549  14.291 -0.1231 -0.2050 -0.1814
26118W        W42966   6.641   3.177   4.965  0.1438  0.0636 -0.1716
26119W        W42967   8.525  16.057   3.294 -0.3519  0.3785 -0.3266
26120W        W42968   1.097   2.233   4.669 -0.3477 -0.1088  0.2731
26121W        W42969  10.663   4.262  17.505 -0.0706  0.1536  0.1228
26122W        W42970   0.738   9.225   5.633 -0.1138 -0.0895  0.1285
26123W        W42971  12.996   4.417   1.462 -0.2515 -0.2745 -0.3418
26124W        W42972   5.785  10.833   4.597 -0.1394 -0.0963 -0.0208
26125W        W42973   9.927   6.699  16.183 -0.0551  0.1071 -0.1827
26126W        W42974  12.338  10.613  13.467 -0.1138 -0.3165 -0.4045
26127W        W42975   2.940  10.284  13.304 -0.1338 -0.1847 -0.5041
26128W        W42976   4.289   2.843   3.938  0.0880 -0.0019  0.0316
26129W        W42977   0.185  16.216   0.161  0.1685  0.0022  0.2123
26130W        W42978   8.023  11.805   2.687  0.0537 -0.0106  0.1876
26131W        W42979  11.433  16.949  17.226 -0.1342  0.2204  0.1268
26132W        W42980  14.503   9.200   0.453 -0.2732 -0.1423  0.1429
26133W        W42981  15.361   2.555  13.140 -0.2436 -0.0331  0.0387
26134W        W42982  16.748   9.508   1.742  0.3451 -0.0055  0.1956
26135W        W42983  13.191  14.168   2.118 -0.0273 -0.2271  0.1168
26136W        W42984  16.139   4.108   4.947 -0.5312  0.3980  0.2874
26137W        W42985  10.929  17.038  14.650 -0.2073 -0.0353 -0.0216
26138W        W42986  14.216   5.581   4.515 -0.0357 -0.0368  0.1982
26139W        W42987   3.015  16.068   4.441  0.1864 -0.1331  0.1347
26140W        W42988   4.082  13.906  13.789 -0.2243 -0.1357 -0.1795
26141W        W42989   3.257   1.870   4.950 -0.1307 -0.1681  0.1429
26142W        W42990  15.008  14.350   1.282 -0.1382 -0.2462  0.2723
26143W        W42991  11.335   4.749  17.006  0.0598 -0.2497 -0.0464
26144W        W42992  11.217   7.127  13.192  0.2496 -0.1090  0.0473
26145W        W42993   9.946   2.635  15.196 -0.0262  0.1703  0.2207
26146W        W42994   0.634  16.450   2.773  0.3518 -0.2330  0.0528
26147W        W42995   0.343   9.696  12.124 -0.3387  0.0538 -0.1715
26148W        W42996  11.896   9.823  15.221 -0.1325 -0.3888  0.1197
26149W        W42997   4.091   0.288   3.796 -0.0633 -0.2011  0.0116
26150W        W42998  15.026   0.472   0.860 -0.0274 -0.1363 -0.1071
26151W        W42999   3.002   4.945   2.518  0.3110 -0.0455  0.0518
26152W        W43000   7.908   4.641  16.322  0.0215  0.0674  0.2191
26153W        W43001   2.324  16.133  14.044 -0.2221 -0.1846  0.1052
26154W        W43002  10.255  10.838  11.895  0.1458 -0.2434 -0.2665
26155W        W43003   5.674   3.629  13.472 -0.0319  0.4001 -0.0062
26156W        W43004   4.820   2.202  12.906  0.0746  0.0965  0.1018
26157W        W43005   0.981   1.136  12.648 -0.1253 -0.2178 -0.0074
26158W        W43006   4.221  14.141  15.878  0.1555 -0.0725  0.0970
26159W        W43007  12.032  14.813   5.174 -0.0294  0.3538 -0.1380
26160W        W43008  11.341  11.845  17.776  0.1555 -0.2694 -0.0054
26161W        W43009   1.290   2.703  16.402  0.3292  0.0987  0.0131
26162W        W43010   1.387   6.503   5.645 -0.0919 -0.1198 -0.0814
26163W        W43011  13.658   6.496  16.888  0.0485 -0.3501 -0.0780
26164W        W43012  12.429   6.224   1.362 -0.0683 -0.2242 -0.3394
26165W        W43013   2.844  12.490   3.738 -0.1432  0.0171 -0.0564
26166W        W43014  12.818  16.677  13.537  0.2111 -0.0918  0.2024
26167W        W43015  15.524  16.295   1.275  0.0932 -0.0079  0.2334
26168W        W43016  12.857   9.777  13.876  0.0885  0.1312 -0.0084
26169W        W43017   6.041   8.327   0.516 -0.1116  0.2086  0.1471
26170W        W43018   5.680   9.209   0.516 -0.0950 -0.0380  0.1438
26171W        W43019  10.446   3.569  15.094 -0.0826 -0.1718  0.1036
26172W        W43020  10.494   6.004  16.666 -0.0612  0.0941 -0.2335
26173W        W43021   7.773  13.944  16.331 -0.2378  0.1384  0.0197
26174W        W43022  11.737   2.939   3.144  0.1075 -0.2244 -0.0755
26175W        W43023  15.698  12.530  16.858  0.1170 -0.4275  0.1103
26176W        W43024   4.742   3.897  17.389  0.2344  0.1721  0.0246
26177W        W43025  10.491  16.746   2.457 -0.2211  0.0146 -0.2444
26178W        W43026   7.050   5.600  16.862  0.0705 -0.0956  0.2377
26179W        W43027   8.533   3.307   2.850 -0.1910  0.2695  0.3187
26180W        W43028   3.362  13.604   2.477 -0.1505  0.1932  0.1047
26181W        W43029   1.930   9.557   3.785  0.0055 -0.1352 -0.2875
26182W        W43030  14.674  14.692   3.967 -0.0103 -0.0492 -0.0388
26183W        W43031  16.446   7.389   4.243  0.0179  0.1802  0.0105
26184W        W43032   5.722   2.972  17.759 -0.2078 -0.3125  0.2532
26185W        W43033   4.911   9.530   3.034  0.1559  0.1876  0.1809
26186W        W43034  11.504  14.926   4.039 -0.2215 -0.1817  0.0792
26187W        W43035   7.862  14.136  14.699 -0.0500  0.0811 -0.2576
26188W        W43036   0.752   5.073  16.047  0.2357 -0.1052 -0.1579
26189W        W43037   2.636  13.393   4.141 -0.1699  0.0845 -0.0275
26190W        W43038   1.189   3.884  13.992  0.0837 -0.1046  0.0199
26191W        W43039  13.252   2.410  11.731  0.0952 -0.0593  0.2594
26192W        W43040   4.344  15.350   3.761  0.1850  0.0460  0.2437
26193W        W43041  12.382   2.507  17.182 -0.0598 -0.0121  0.1378
26194W        W43042  11.948  10.024   1.671  0.0568 -0.2233 -0.1096
26195W        W43043  14.296  14.012   1.315  0.2146 -0.1122 -0.2461
26196W        W43044   0.121  14.981   4.604 -0.1316  0.1821  0.0899
26197W        W43045   7.820  15.896  14.130 -0.1588  0.2069 -0.0740
26198W        W43046  15.792   7.041  15.468 -0.0174 -0.0764 -0.2084
26199W        W43047   6.097   2.037   0.889 -0.1702  0.1917  0.2754
26200W        W43048   3.064   1.359  15.358  0.0095 -0.3259 -0.2163
26201W        W43049   3.113   0.794  14.004  0.0384  0.1233  0.1901
26202W        W43050   1.182   3.853  17.650 -0.1737 -0.0062  0.0991
26203W        W43051  13.592   3.336   5.438  0.0637 -0.0870 -0.0575
26204W        W43052  16.901   7.198  12.075  0.1549  0.0967  0.0064
26205W        W43053  13.395   4.720   2.813  0.2665 -0.2803 -0.3124
26206W        W43054  13.503  11.875  12.181 -0.0575  0.0348 -0.2931
26207W        W43055  15.901   1.494   3.133 -0.0946  0.0542 -0.1662
26208W        W43056   5.587   4.482   2.370 -0.0122 -0.1894  0.0308
26209W        W43057   5.999   2.748   4.646 -0.1204 -0.1716 -0.0536
26210W        W43058   9.487   8.497  15.497  0.0919 -0.1028 -0.0329
26211W        W43059   6.728  12.057  16.273 -0.1664  0.0286  0.0445
26212W        W43060  16.040   3.178   2.992 -0.2081  0.0084  0.3410
26213W        W43061   0.750   3.694  16.934  0.1239  0.1107  0.3008
26214W        W43062  15.155  13.219   0.761 -0.0343 -0.0191  0.2007
26215W        W43063  10.153  15.788  17.218 -0.0111 -0.2045  0.2027
26216W        W43064  14.987   7.147   4.497  0.1002 -0.0560 -0.1846
26217W        W43065   5.534   4.365  13.420 -0.1207 -0.0848 -0.0861
26218W        W43066  14.315   9.069  14.761  0.0631  0.2217  0.2920
26219W        W43067  15.188  11.696  14.608 -0.3348  0.0887  0.3654
26220W        W43068   8.956   0.249   0.726 -0.0244  0.0185  0.1422
26221W        W43069   3.246  12.460  13.477  0.1547  0.0677  0.0055
26222W        W43070   7.188   7.734  14.645 -0.3411 -0.1027  0.1538
26223W        W43071  10.373   0.629  14.440 -0.1108 -0.0260  0.0752
26224W        W43072  13.736   5.720   0.756  0.1154  0.1317  0.0795
26225W        W43073   0.330  10.687   4.325 -0.2600  0.0640 -0.2899
26226W        W43074   9.705  10.274  17.768  0.0399  0.1201 -0.2149
26227W        W43075  14.655  13.520  13.190  0.1591 -0.4154 -0.0586
26228W        W43076  13.743  16.847  16.062 -0.1506 -0.3682 -0.1072
26229W        W43077   8.572  14.334   2.788 -0.1282 -0.3943 -0.0400
26230W        W43078  10.064   8.209   1.011 -0.1240  0.1543 -0.0999
26231W        W43079   5.502   0.762   1.164  0.3425 -0.0926  0.1551
26232W        W43080  16.381  14.893   2.545 -0.1203 -0.2241  0.2035
26233W        W43081   8.020   3.297  17.639 -0.2266 -0.0230  0.1350
26234W        W43082   8.494   2.867   1.902 -0.2263  0.0220  0.0345
26235W        W43083   9.842  16.784  16.595  0.0428 -0.1370  0.2999
26236W        W43084   0.856  13.343  15.927 -0.0813 -0.0953 -0.3139
26237W        W43085   8.753   3.700  12.344 -0.0871  0.1141  0.0998
26238W        W43086  10.199   6.246  16.306 -0.0592  0.3788  0.3806
26239W        W43087  14.122   6.216   3.580 -0.1279  0.2127 -0.1087
26240W        W43088  15.939  16.794  13.900  0.2183 -0.1554  0.3161
26241W        W43089  11.669  13.886  12.303 -0.1454  0.3826 -0.1618
26242W        W43090  12.531   4.223  14.088  0.1454 -0.1118  0.3137
26243W        W43091   9.650  16.692   0.374  0.1670  0.1369  0.3127
26244W        W43092   4.374   8.924   2.998 -0.0270 -0.1638 -0.0651
26245W        W43093   5.637  16.592   4.032 -0.2709  0.2468  0.1798
26246W        W43094   5.017  13.443   1.844  0.0840 -0.0683 -0.0565
26247W        W43095   2.392   5.036  12.037  0.0314  0.2674 -0.1809
26248W        W43096   2.288   8.293  17.207  0.0239  0.0698  0.2222
26249W        W43097   4.209   8.567   3.979  0.1426 -0.0363  0.0954
26250W        W43098   3.933   8.810   1.660 -0.1366 -0.0021  0.0628
26251W        W43099   8.830   5.052  16.675  0.1664  0.2034  0.2347
26252W        W43100  15.449   6.521  13.335  0.0240 -0.1619  0.1265
26253W        W43101  12.628   6.099  12.964  0.1666  0.1345  0.0331
26254W        W43102   7.652   6.234  16.431  0.1846 -0.0859  0.0353
26255W        W43103  11.914   8.939   3.397 -0.0782 -0.0914 -0.1470
26256W        W43104  11.544   0.538  14.895  0.3199  0.1209 -0.1452
26257W        W43105   0.059  13.238   1.873  0.2261  0.4204  0.0506
26258W        W43106  13.729   8.696  16.153  0.1177  0.0819 -0.1947
26259W        W43107  15.859  13.111   0.238 -0.3573  0.1450 -0.4424
26260W        W43108   1.999   4.930  14.722 -0.3653 -0.1088  0.2432
26261W        W43109   2.648  16.502  16.851  0.4091  0.0255 -0.0486
26262W        W43110  13.434   2.150  17.595 -0.0703 -0.0040 -0.0193
26263W        W43111   5.884   1.223   2.790 -0.0375 -0.1934  0.0301
26264W        W43112   9.949  11.558  11.292  0.0578  0.0516 -0.0488
26265W        W43113   2.788   1.171   4.204  0.1923  0.0499  0.0415
26266W        W43114   2.668   6.585  12.687 -0.1279 -0.1471  0.0125
26267W        W43115  11.197  16.738  12.376 -0.2881 -0.2721  0.1314
26268W        W43116   6.698   6.254   0.104  0.0454 -0.0722 -0.0963
26269W        W43117   5.575  15.050  17.271 -0.0305  0.1521  0.3226
26270W        W43118  10.182   8.861   5.315  0.0149  0.2415 -0.2286
26271W        W43119   5.638  11.325   0.076  0.0336  0.0602  0.0487
26272W        W43120   7.755   7.339  15.142  0.2018  0.0060  0.1024
26273W        W43121  10.408   0.920  16.140  0.1402 -0.0195  0.1135
26274W        W43122   8.908   4.063  11.825 -0.0745  0.2800 -0.1377
26275W        W43123  10.037   0.397  14.737  0.1671  0.2555 -0.0924
26276W        W43124   7.483  12.932  14.606 -0.2329 -0.2051  0.1356
26277W        W43125  11.633   5.824   1.109  0.1187  0.0103  0.1457
26278W        W43126   5.980   3.204  12.652 -0.0833  0.1739  0.0047
26279W        W43127   7.412   4.751   4.088 -0.0879  0.0742 -0.0524
26280W        W43128  15.606  12.762  13.721 -0.0557 -0.2175 -0.1823
26281W        W43129   3.396   7.062  16.468 -0.1835  0.1014  0.0407
26282W        W43130   4.278  13.745  16.181  0.0573 -0.0083  0.1227
26283W        W43131   1.099   1.585   5.248 -0.0916 -0.0970  0.0666
26284W        W43132  13.127  11.941   3.566  0.2841  0.4778 -0.2461
26285W        W43133   2.031  11.021  14.350 -0.1606 -0.0884 -0.0218
26286W        W43134  13.234   6.807  17.130  0.0696 -0.0917 -0.1508
26287W        W43135   7.848   8.219  12.711 -0.1497  0.2508 -0.1947
26288W        W43136   6.336  15.176  15.206  0.0218 -0.0898  0.0978
26289W        W43137   4.675   7.355   0.529 -0.1285 -0.2330  0.0828
26290W        W43138  16.357  12.392   5.101 -0.2127 -0.0692  0.3199
26291W        W43139  14.251   2.803  17.359 -0.1058  0.1554 -0.0379
26292W        W43140  14.437  17.077   0.271 -0.0795  0.0731 -0.0038
26293W        W43141  15.515   2.685   3.940  0.0964 -0.2499  0.2421
26294W        W43142  10.797  10.900   6.618 -0.1252  0.2045 -0.2388
26295W        W43143   7.757   1.606   4.491  0.3799  0.0841 -0.1483
26296W        W43144   2.274   3.562   3.740  0.1964  0.0934  0.2664
26297W        W43145   1.858   7.948   0.173  0.1411 -0.1478 -0.1738
26298W        W43146   9.944   6.813  15.323  0.0608  0.0901  0.0253
26299W        W43147  13.772   7.617  14.096  0.1765 -0.0599 -0.1315
26300W        W43148   7.542   5.463  15.784 -0.2976 -0.0374 -0.1542
26301W        W43149  12.200   1.749  13.363  0.1350  0.0042 -0.1292
26302W        W43150   4.615   6.117  17.333  0.0200  0.0514  0.1917
26303W        W43151   5.773   1.481  12.134  0.1729  0.0295  0.3646
26304W        W43152  11.465   5.416  12.125  0.0290  0.2802  0.1089
26305W        W43153   4.554   6.259   2.140 -0.0576  0.1238 -0.2024
26306W        W43154   5.261  12.012   0.716 -0.0106 -0.0647  0.1603
26307W        W43155   2.145  13.420   4.506  0.1084  0.0765  0.0179
26308W        W43156  15.941   5.751   0.541  0.3802  0.2764  0.0883
26309W        W43157  12.188   6.942   0.356 -0.2525 -0.1947  0.2269
26310W        W43158   8.774   5.294   4.411 -0.1159 -0.0862  0.1281
26311W        W43159   5.963   9.246   2.196  0.1644  0.1029  0.1381
26312W        W43160   3.298  12.717   3.589 -0.1843 -0.3340  0.1109
26313W        W43161  11.646  17.130   1.814  0.0838 -0.2105  0.3008
26314W        W43162  14.525   7.215  12.340  0.1248 -0.0014  0.2853
26315W        W43163   5.223   5.637  12.227 -0.2890  0.0651 -0.0618
26316W        W43164   1.139  14.978  13.587 -0.1804  0.1300 -0.1341
26317W        W43165   5.335  17.140   4.676 -0.1740 -0.1632 -0.0763
26318W        W43166  14.553  13.946   2.039 -0.3307  0.1748  0.0971
26319W        W43167   6.589  14.072  17.727  0.0130  0.1455  0.1612
26320W        W43168   1.873   7.606   2.393 -0.0125 -0.1300 -0.1123
26321W        W43169  14.057  16.964   3.280  0.2934  0.0919  0.0365
26322W        W43170   7.544   8.670   0.641 -0.3929  0.0889 -0.4390
26323W        W43171   8.806   5.839   5.778 -0.0164  0.1646 -0.1396
26324W        W43172   1.658   2.035  14.439  0.1745 -0.1442  0.0702
26325W        W43173   1.267  11.160  15.799  0.1656 -0.0991  0.0167
26326W        W43174   5.514  10.460   3.469  0.1207 -0.2741  0.3925
26327W        W43175   2.434   4.965  14.314  0.1186  0.2212 -0.0017
26328W        W43176  14.990  12.321   2.284 -0.1056 -0.2575 -0.2228
26329W        W43177   1.835   2.600   3.036 -0.0973 -0.1027  0.1043
26330W        W43178  10.777  11.632   4.785  0.1456  0.0023  0.1880
26331W        W43179   7.718   1.330  17.732 -0.1655 -0.1259 -0.0230
26332W        W43180   6.477  15.400   1.527  0.0519  0.2007 -0.3348
26333W        W43181   7.492  10.169  16.640 -0.1245  0.0952  0.1235
26334W        W43182   5.632   8.954  14.872  0.1092 -0.0968  0.3631
26335W        W43183   5.305   8.184  13.710 -0.0254 -0.1519 -0.0023
26336W        W43184   8.143   0.914   0.345  0.1870  0.1898  0.3018
26337W        W43185   9.749   7.361   5.397  0.2215  0.2127  0.0662
26338W        W43186   8.161   3.797   1.755  0.2835  0.1668  0.2561
26339W        W43187   9.497  10.352  13.285  0.1414 -0.4049  0.0754
26340W        W43188   0.476   8.262   3.976 -0.2235 -0.1235  0.0006
26341W        W43189   6.930  14.259  12.986  0.2740 -0.2240  0.0793
26342W        W43190   8.759   2.882  17.019 -0.2876 -0.1828  0.0263
26343W        W43191   9.543  15.668   0.732  0.1044  0.1308  0.0070
26344W        W43192  10.465   7.964  13.442  0.2882 -0.0319  0.0007
26345W        W43193  10.146   1.079  11.264 -0.1224 -0.0182 -0.1631
26346W        W43194   6.673  12.450  13.706 -0.2641  0.2266 -0.1556
26347W        W43195   5.374   4.355   4.009  0.3720 -0.1499 -0.0178
26348W        W43196   3.655   7.719   0.599  0.1061 -0.1115 -0.0165
26349W        W43197  10.221   7.738   0.240  0.0048  0.0997 -0.0577
26350W        W43198   0.825   8.012  13.984  0.2026 -0.1107 -0.0967
26351W        W43199   2.150  13.266  17.677  0.1899  0.0156  0.1447
26352W        W43200   6.079   3.172  15.733  0.3535 -0.0242 -0.1899
26353W        W43201   1.314   6.765   4.328  0.0405  0.0130  0.0579
26354W        W43202  10.235   5.680  13.857 -0.3806  0.2254 -0.1191
26355W        W43203   1.688  12.810  16.885 -0.2729 -0.4381 -0.1664
26356W        W43204   0.198   5.950   3.868  0.1244 -0.1282 -0.1350
26357W        W43205   0.662  14.957  16.446  0.0832  0.0631  0.0455
26358W        W43206   8.136   4.069   4.952  0.0157 -0.0488  0.0230
26359W        W43207  14.595  15.294  12.826  0.0556 -0.0268  0.1728
26360W        W43208   5.073  11.995  17.429  0.1475  0.0426  0.1574
26361W        W43209   1.375   9.623  13.242  0.0470 -0.2875  0.1490
26362W        W43210  11.404   7.900   3.502 -0.1178 -0.2606 -0.1824
26363W        W43211   0.606  16.473   0.153  0.0514 -0.0732 -0.0441
26364W        W43212  15.832  16.781   3.691 -0.1083 -0.1897 -0.0115
26365W        W43213  10.041   7.779   3.007  0.2727  0.1503  0.0129
26366W        W43214   9.344  15.368   4.711  0.1026  0.0434  0.1277
26367W        W43215   2.576  11.764   4.315  0.0059 -0.0958 -0.0534
26368W        W43216  15.793   7.378   2.596 -0.1900  0.1259  0.1529
26369W        W43217   2.705   0.510   1.524  0.0318 -0.3805 -0.1156
26370W        W43218  12.662   2.886  16.539 -0.0155 -0.0965 -0.0596
26371W        W43219   2.309   7.302  13.294 -0.2138  0.1415  0.1141
26372W        W43220   0.646   0.367  17.558 -0.1779 -0.1242 -0.1321
26373W        W43221  13.762   4.985   1.954 -0.2489  0.0573 -0.3390
26374W        W43222   2.051   2.298  13.274 -0.0894  0.0722 -0.1135
26375W        W43223  14.557   3.474   4.235 -0.1768 -0.1829  0.1505
26376W        W43224  15.475   6.908   4.571  0.1578 -0.3648 -0.1582
26377W        W43225   5.370   1.483   5.509  0.1428  0.0162  0.0511
26378W        W43226   4.416  13.504   3.742 -0.0501 -0.3906 -0.2900
26379W        W43227   0.329   5.385  16.933 -0.0958  0.0945  0.0412
26380W        W43228   3.006   1.152   0.056  0.0469  0.0671  0.1121
26381W        W43229  10.467   5.524  16.677  0.2078 -0.0930  0.0494
26382W        W43230  12.676   9.353  14.306 -0.1497 -0.0549  0.1922
26383W        W43231   5.835  17.035   1.208 -0.0281  0.2507  0.0933
26384W        W43232  12.893   9.315   3.509  0.0717  0.3200  0.1456
26385W        W43233   7.245   5.542   0.737  0.3087  0.1530  0.2083
26386W        W43234   5.223  11.757   1.256 -0.4920 -0.0451 -0.1108
26387W        W43235   4.460  13.675   5.650  0.0232 -0.1337 -0.1479
26388W        W43236   4.896   9.772   0.062 -0.0711  0.1016  0.2911
26389W        W43237  16.597  13.332  17.422 -0.0494  0.0375 -0.0930
26390W        W43238   9.621   7.356   0.480  0.1677 -0.1554 -0.1843
26391W        W43239   5.328  11.331   5.695 -0.0677  0.2161 -0.1931
26392W        W43240   9.174   6.526   3.712 -0.2457 -0.0987 -0.1032
26393W        W43241  14.700   4.620   1.189 -0.0478  0.0674 -0.1217
26394W        W43242   9.415  12.239   0.758  0.2830  0.3333  0.3900
26395W        W43243  10.329  14.409   2.474 -0.0556  0.3200  0.1171
26396W        W43244   3.873   2.069   1.683 -0.2531  0.1304 -0.0115
26397W        W43245  13.137  16.864   2.315 -0.1528 -0.1419 -0.2144
26398W        W43246   7.261   5.269  14.535 -0.0130 -0.0737  0.0647
26399W        W43247   7.488  14.696  15.933  0.0020  0.4154 -0.2281
26400W        W43248   2.610  12.745  13.240  0.2801 -0.0859 -0.0064
26401W        W43249   7.757  13.819  12.409  0.1317 -0.0023 -0.0204
26402W        W43250   1.290  17.094   1.187 -0.4206 -0.0563 -0.0199
26403W        W43251   5.167   5.418  17.126  0.2729 -0.0968 -0.1798
26404W        W43252   2.880  15.367   4.266 -0.1841 -0.1805  0.2858
26405W        W43253   4.813  17.094  12.819  0.0435 -0.0410  0.1705
26406W        W43254  15.563   2.158  14.531  0.0493  0.1466 -0.1263
26407W        W43255   2.515   1.560   5.702 -0.2089  0.3823  0.0327
26408W        W43256   2.122  10.228   4.836  0.4774  0.0028  0.0447
26409W        W43257   1.249   3.081  15.589 -0.4419  0.3111  0.3251
26410W        W43258   2.082   1.481  17.210 -0.1368  0.1263  0.2713
26411W        W43259   8.574   1.808  12.448  0.3820 -0.2240  0.1915
26412W        W43260   4.929  16.903  13.381  0.1847  0.3759  0.1730
26413W        W43261   0.717   1.819   3.824 -0.2928 -0.0409 -0.4499
26414W        W43262  10.526   7.516  16.654 -0.3162 -0.0508  0.1603
26415W        W43263   0.463  12.033   5.592  0.0102  0.0629  0.0478
26416W        W43264   8.885   0.267  14.106  0.0642 -0.1368 -0.1416
26417W        W43265  14.258   3.280  13.526 -0.0879 -0.0148  0.0937
26418W        W43266   2.648   4.109   2.320  0.0725  0.2499 -0.0167
26419W        W43267   5.613   2.952  14.001  0.1529  0.0607  0.0374
26420W        W43268  10.628   7.171   5.626 -0.0870 -0.0004 -0.0715
26421W        W43269  12.618  11.095   0.230 -0.2181 -0.0534  0.0326
26422W        W43270  10.582   8.106  14.628  0.2452 -0.0604  0.0766
26423W        W43271   4.508   1.627  13.474  0.3479 -0.4495  0.0771
26424W        W43272  16.702  12.604   1.279 -0.0432 -0.1736 -0.1894
26425W        W43273   5.632  16.825  12.810  0.1161 -0.0168 -0.3579
26426W        W43274   9.013   0.717  13.866 -0.0879  0.2312  0.6610
26427W        W43275  15.715  11.842  14.915  0.0044 -0.0816 -0.0475
26428W        W43276   0.858   6.805  14.565  0.0947  0.2541 -0.2259
26429W        W43277   3.242   1.452  14.870  0.1744  0.0371  0.0121
26430W        W43278  12.315  14.767   4.267 -0.0294 -0.0046 -0.2185
26431W        W43279  14.267   7.086  13.717  0.2076 -0.0374 -0.1250
26432W        W43280   8.538   1.813  12.975  0.0679  0.0229 -0.0583
26433W        W43281   3.090   4.989  12.873 -0.0709  0.0858  0.1746
26434W        W43282   8.380   7.583  12.106  0.2098 -0.0300  0.0312
26435W        W43283   8.347  13.148   4.459 -0.1268  0.1304 -0.2436
26436W        W43284   1.670   3.291   6.430  0.0150 -0.2043  0.0488
26437W        W43285   5.830  11.698  14.390 -0.3298 -0.0682  0.0640
26438W        W43286  10.724  14.094   0.152  0.1066  0.1288  0.0255
26439W        W43287  13.935  15.816  15.946 -0.1066 -0.0224 -0.0428
26440W        W43288   2.754   6.926  16.892 -0.2455  0.1600 -0.0098
26441W        W43289   2.125   0.213  16.621 -0.0464 -0.0585 -0.2589
26442W        W43290   5.422  16.265  17.611  0.0846 -0.1721 -0.1875
26443W        W43291  12.832  17.090   3.220 -0.1776  0.0015 -0.2792
26444W        W43292   9.412  11.683   0.105  0.1236  0.0852  0.5635
26445W        W43293   9.279   3.939  12.272 -0.4322 -0.1763 -0.0456
26446W        W43294   3.079   2.124   0.073  0.1175 -0.0376 -0.1057
26447W        W43295   6.255   0.919   5.430  0.3150 -0.2610  0.0985
26448W        W43296   1.985   3.100   6.783  0.0197  0.2215 -0.1584
26449W        W43297   1.124   4.692  13.976 -0.1291  0.3118 -0.1100
26450W        W43298  12.090  15.613  15.668  0.0032  0.0175  0.0400
26451W        W43299  10.599   7.140   3.896 -0.0545 -0.0731  0.1291
26452W        W43300  16.559   2.772  14.277  0.0132 -0.0926  0.0592
26453W        W43301  13.614   6.483  13.997  0.2466  0.1979 -0.0385
26454W        W43302  14.121  14.801  17.539  0.1904 -0.0960  0.3153
26455W        W43303   4.549   7.086   1.014  0.0692  0.1831 -0.2094
26456W        W43304  12.136   3.054   2.796  0.0062 -0.4700 -0.1477
26457W        W43305  16.944  14.104   2.064 -0.0561  0.2297 -0.2897
26458W        W43306   8.799  13.644   0.584 -0.1910 -0.2277  0.3157
26459W        W43307  11.000   8.512   1.876 -0.2289  0.2671  0.0098
26460W        W43308   8.135   5.975   4.241 -0.2096  0.3441  0.0867
26461W        W43309  13.653   2.802   3.273  0.0313 -0.1633 -0.0496
26462W        W43310   3.191   1.951   3.914 -0.1510  0.0192 -0.2611
26463W        W43311  13.930   7.195   3.732  0.1453  0.0939 -0.0593
26464W        W43312  16.379   5.012   2.885  0.3031 -0.0692  0.0148
26465W        W43313  15.616  15.361   6.491  0.0090  0.0891  0.3218
26466W        W43314   7.719   7.801   1.645 -0.1339 -0.0005  0.1070
26467W        W43315   0.028   4.886   3.924  0.2179  0.0747  0.1969
26468W        W43316  17.113   8.919   2.276  0.2614 -0.2381 -0.1978
26469W        W43317  16.358   1.417   3.229 -0.0118  0.1043  0.0172
26470W        W43318  11.605   2.129  17.384 -0.3841 -0.5393  0.3446
26471W        W43319  10.138  13.130   4.470 -0.0825 -0.3253  0.2490
26472W        W43320   4.174   0.343  13.328  0.1538  0.1202 -0.2173
26473W        W43321   7.525   6.573  13.488 -0.1948  0.0232 -0.0898
26474W        W43322   9.675   2.307  15.423  0.2127 -0.0150  0.2600
26475W        W43323   7.973   2.973  14.977  0.0633  0.0744  0.0030
26476W        W43324   3.660   7.571  15.426  0.2271  0.2783  0.1504
26477W        W43325  15.695  17.087  16.573  0.0728  0.2220  0.0894
26478W        W43326   5.951  11.703  16.173 -0.1049 -0.3652  0.0516
26479W        W43327   3.481   2.512  16.204  0.0360  0.1189  0.2433
26480W        W43328  12.683  11.602  12.785  0.0962 -0.4933 -0.1252
26481W        W43329   9.039  13.004  12.165  0.0263 -0.1260 -0.3118
26482W        W43330   7.127  13.451   2.169 -0.0216  0.2839  0.3776
26483W        W43331   9.035   5.694   1.970  0.0051  0.1014 -0.0606
26484W        W43332   1.782  13.359   6.520 -0.0387 -0.2673  0.2227
26485W        W43333  14.818   9.328  16.916 -0.2138 -0.0175 -0.0221
26486W        W43334  11.418  14.693   1.788  0.3097 -0.1801  0.0543
26487W        W43335   3.974   5.396  17.110  0.2495 -0.2550 -0.2045
26488W        W43336   5.072  15.968  13.447 -0.3669  0.0292 -0.0487
26489W        W43337   5.755   2.818   2.848  0.2449 -0.1381  0.1181
26490W        W43338  14.343   0.751  16.589  0.1408  0.3034  0.0665
26491W        W43339   2.939   2.286   3.634  0.1253  0.0188 -0.0381
26492W        W43340   7.814   0.048  15.156  0.0015 -0.1004  0.2266
26493W        W43341  15.346  14.951  13.408  0.2601 -0.0152 -0.1896
26494W        W43342  10.088   3.446  14.800  0.1122  0.2416  0.0099
26495W        W43343  10.963  16.319  13.372 -0.1786 -0.0678  0.0119
26496W        W43344   0.548  10.460   5.602  0.1625 -0.1037 -0.3223
26497W        W43345   7.142   8.155  14.082  0.2522  0.1574  0.2150
26498W        W43346   9.064   7.629  14.171  0.1059 -0.1702 -0.1260
26499W        W43347   0.591  15.770  17.223  0.0821 -0.1133  0.0772
26500W        W43348   4.210   5.321   5.613  0.2839 -0.1295 -0.3659
26501W        W43349   2.700   9.701  17.250 -0.3385  0.0909  0.4270
26502W        W43350   6.521  10.451  15.649 -0.3849  0.3774 -0.1657
26503W        W43351  14.806  17.106   3.901  0.0158  0.1859 -0.1390
26504W        W43352  14.812  12.357   1.292  0.0721 -0.0469  0.1744
26505W        W43353  14.091   9.085  14.258  0.1215  0.0299 -0.2869
26506W        W43354  12.536  13.057   3.635 -0.0106 -0.0293 -0.3109
26507W        W43355   0.142  11.003   2.615  0.2147  0.2953 -0.2623
26508W        W43356   4.592  13.967  13.912  0.0224  0.0398  0.4218
26509W        W43357  13.723   6.430  16.232 -0.1689 -0.0787  0.0251
26510W        W43358   8.716   8.418   5.380  0.0464  0.1653 -0.0202
26511W        W43359  11.100   7.300   4.623  0.3773 -0.0023  0.1088
26512W        W43360  10.608   8.595  13.743 -0.0346 -0.0459  0.1116
26513W        W43361  15.243  14.548  14.895 -0.2759  0.1032 -0.0460
26514W        W43362   0.343  16.226  15.257 -0.0548 -0.1169 -0.0336
26515W        W43363  14.385   0.748   5.616  0.0772 -0.1631 -0.2040
26516W        W43364  10.805   1.228   1.255 -0.1581 -0.1658  0.1920
26517W        W43365  13.495   2.711  16.100 -0.0391 -0.5228 -0.0828
26518W        W43366  11.706   4.555   0.299 -0.2125 -0.1497 -0.3009
26519W        W43367   3.410  14.357   4.603 -0.1333  0.1483 -0.2034
26520W        W43368   1.804   5.140   4.883  0.2872 -0.0880 -0.3319
26521W        W43369   4.394  16.556   1.405  0.1866 -0.1128  0.1692
26522W        W43370   5.130  11.045  14.489 -0.1821 -0.0448 -0.1320
26523W        W43371  13.977  11.002   4.827 -0.0390 -0.1166 -0.2638
26524W        W43372   6.096  13.541   5.336 -0.2114  0.0811  0.1757
26525W        W43373  14.374  16.028   5.467 -0.3438 -0.1225  0.0029
26526W        W43374   0.431   1.990  17.159  0.2550 -0.1449 -0.0179
26527W        W43375   3.288  12.753   4.188  0.2354  0.0535 -0.0623
26528W        W43376  10.328  11.842   3.144  0.2790  0.0202  0.1797
26529W        W43377  13.184   0.086   0.170  0.1885 -0.0101 -0.1291
26530W        W43378  14.423  10.552   0.192  0.1369 -0.1096  0.0313
26531W        W43379  13.886   1.777   0.539  0.0915  0.0685 -0.1997
26532W        W43380   3.275  14.565   6.277 -0.0011 -0.0044  0.4869
26533W        W43381  11.127   1.613  14.060 -0.2082 -0.0017  0.2886
26534W        W43382   0.113   7.585  17.232  0.0063 -0.1305 -0.0650
26535W        W43383   3.260  16.156   0.234 -0.2112  0.0798 -0.0831
26536W        W43384  13.148  10.245  14.462 -0.0326 -0.1910 -0.3608
26537W        W43385   8.599  15.279   4.313  0.0061 -0.0293  0.2714
26538W        W43386   2.297  16.275   2.642 -0.0615 -0.1019 -0.2263
26539W        W43387  10.728   0.016  13.171  0.0993 -0.0749  0.0155
26540W        W43388   1.670  10.477  15.196 -0.1316  0.3016  0.0832
26541W        W43389  14.946  10.395  13.535  0.2335 -0.0548  0.2314
26542W        W43390   1.003   0.542   6.769  0.1381  0.2908  0.3993
26543W        W43391  12.334   4.012  16.059 -0.2489  0.0196  0.1687
26544W        W43392   2.209   4.083   6.144  0.0988  0.0926  0.0360
26545W        W43393  14.586  13.950   3.409 -0.1421  0.0673 -0.2460
26546W        W43394   9.983  14.941   0.630 -0.0286  0.1529 -0.0446
26547W        W43395  17.165  15.268  13.026  0.2420 -0.0389 -0.1070
26548W        W43396   8.867  12.387   1.008 -0.0224  0.0206 -0.1665
26549W        W43397   3.055  13.466  15.457 -0.1873  0.2092  0.0062
26550W        W43398   1.805  15.248  14.725 -0.2387  0.0385 -0.0812
26551W        W43399   0.640   5.682   4.173  0.2087 -0.2331 -0.0464
26552W        W43400  13.517   9.027  12.388  0.1224  0.1713 -0.3639
26553W        W43401   4.576   4.067  14.263  0.0759  0.0276  0.0582
26554W        W43402   1.422   0.455  13.582  0.1782 -0.0018 -0.0686
26555W        W43403  11.386  15.077   0.254  0.0370  0.3018 -0.2915
26556W        W43404   4.704   6.509  16.200 -0.1025  0.1578  0.1160
26557W        W43405  14.363   6.779   5.536 -0.1713 -0.1068 -0.0444
26558W        W43406  13.014   5.751   0.980 -0.2266  0.0710 -0.0240
26559W        W43407   6.834   5.747  13.465  0.3192 -0.0165  0.1302
26560W        W43408  10.401   1.978  17.338  0.0796 -0.4477 -0.1554
26561W        W43409   6.914   8.541  13.031 -0.0161  0.0861 -0.1978
26562W        W43410  15.596   1.267   4.658  0.2052  0.1689  0.1029
26563W        W43411   4.868   5.752   5.257 -0.1515 -0.0938  0.1809
26564W        W43412  11.902  16.571  13.498  0.2567  0.0727 -0.0540
26565W        W43413   6.441   8.187  11.553  0.0956  0.2474  0.0556
26566W        W43414   0.619   5.181  13.547 -0.2722  0.0522 -0.2660
26567W        W43415   8.415  13.268  16.626  0.0255 -0.1845 -0.1431
26568W        W43416  10.080   2.368  11.725  0.0779  0.3099 -0.0250
26569W        W43417   9.011  12.621  13.550  0.0272  0.0543  0.1680
26570W        W43418   6.136   7.166   2.603 -0.0828 -0.1027 -0.0025
26571W        W43419  14.249   0.807   2.870  0.0968  0.1229  0.1995
26572W        W43420   4.149   8.625  15.959  0.3269  0.0796 -0.0367
26573W        W43421   9.750   9.355  16.033 -0.1181  0.0191 -0.0217
26574W        W43422  11.637   8.875  14.804 -0.0381  0.1442 -0.0780
26575W        W43423   9.980   8.956   2.031  0.0054  0.1427 -0.0062
26576W        W43424   6.799   4.503   4.534 -0.1963 -0.0900 -0.0277
26577W        W43425  10.608   8.576   5.119  0.0723 -0.0687 -0.4029
26578W        W43426   4.311   5.238  17.429 -0.1246  0.1682  0.0633
26579W        W43427   6.857   1.596   2.693  0.1859  0.2343  0.2045
26580W        W43428   9.473   5.452  14.382 -0.1152  0.3747 -0.2414
26581W        W43429  11.099   2.647  13.286  0.1553 -0.2423 -0.1125
26582W        W43430  15.584  10.341   6.269  0.1129  0.3194  0.0944
26583W        W43431   6.567   9.495   0.201  0.3707 -0.3358 -0.0564
26584W        W43432   7.618   2.034  16.197  0.0885 -0.0941 -0.1680
26585W        W43433   2.084  11.711   4.454  0.1777  0.2600  0.0802
26586W        W43434  10.674  10.136  15.242  0.1484  0.0257 -0.0506
26587W        W43435   2.725   0.789   3.274 -0.1777  0.0319  0.1143
26588W        W43436  15.863   0.603   5.674  0.3193  0.0503  0.1560
26589W        W43437  12.816  14.893  16.702 -0.1050 -0.1549  0.0357
26590W        W43438  11.553   0.554   4.010 -0.1875  0.2495 -0.0354
26591W        W43439   4.078   4.262   1.863  0.1137  0.1106  0.0604
26592W        W43440   1.138  11.371   0.510 -0.2728 -0.0910 -0.2224
26593W        W43441   7.163  16.371  13.841 -0.1853  0.0525 -0.1861
26594W        W43442   1.742   6.537  12.474 -0.0043 -0.3064  0.0371
26595W        W43443   3.362   9.346  17.692 -0.0663 -0.1830  0.0868
26596W        W43444   6.122  11.566   3.848  0.0359  0.1366  0.0109
26597W        W43445   4.303   0.939  17.502 -0.0905 -0.1681  0.1973
26598W        W43446   4.652   1.698   3.437 -0.1657  0.0808 -0.2002
26599W        W43447  16.680  16.155  12.597 -0.0162 -0.1188  0.1833
26600W        W43448   0.215   9.544   1.687  0.0670  0.2450 -0.0686
26601W        W43449  15.961   9.059  13.821 -0.1702 -0.0008  0.0964
26602W        W43450   9.539  13.138  15.193  0.0528 -0.2270 -0.0063
26603W        W43451   1.892   1.619   2.525 -0.0004 -0.1234 -0.0651
26604W        W43452  12.309   3.901   0.837 -0.0482 -0.2829 -0.2560
26605W        W43453   8.819  16.701  11.979  0.1834 -0.0123  0.0552
26606W        W43454  16.777   7.487   4.654 -0.0532 -0.0234 -0.3991
26607W        W43455  11.163   9.853   0.136  0.2152  0.1132 -0.0074
26608W        W43456   5.331   6.663  16.659  0.4385 -0.3646  0.0657
26609W        W43457   3.540   5.175   1.946 -0.0410  0.0451  0.2423
26610W        W43458   8.996  11.183  15.715 -0.0431  0.3099 -0.3990
26611W        W43459  10.925   4.884  13.935 -0.0883 -0.1643  0.2369
26612W        W43460  14.842   5.648  14.088  0.0436  0.0229 -0.3868
26613W        W43461   6.722   5.385   1.129 -0.0943 -0.0250  0.1497
26614W        W43462   5.332   3.265  11.520 -0.4652  0.0762  0.1802
26615W        W43463   9.985   2.538   3.617  0.1132 -0.0165 -0.3382
26616W        W43464  12.617   4.404   2.281 -0.2723 -0.0701  0.3857
26617W        W43465   7.722  16.410   2.807 -0.0728 -0.0696 -0.1139
26618W        W43466   9.962  11.439  16.542 -0.2546  0.0560  0.0773
26619W        W43467   2.280   1.053  14.871  0.0546 -0.4296 -0.2283
26620W        W43468  16.726  10.841  14.672  0.0412  0.0598 -0.0740
26621W        W43469   8.237   6.504  15.375 -0.1406 -0.2029  0.0322
26622W        W43470   3.574   6.252   1.250 -0.0545  0.3864 -0.0719
26623W        W43471   7.334  16.869  15.582 -0.3395  0.2335 -0.1175
26624W        W43472  16.609   2.757   5.170 -0.2912  0.0139  0.5225
26625W        W43473  15.084  10.479   2.666 -0.0287  0.2390  0.1557
26626W        W43474  16.368   9.735  16.268 -0.2384 -0.0715 -0.0745
26627W        W43475  11.659   8.754   3.738  0.2787  0.3400 -0.0035
26628W        W43476  11.719   7.952   2.877  0.2241 -0.0428 -0.0005
26629W        W43477   5.058   0.424   5.544  0.1193 -0.0253 -0.1295
26630W        W43478  11.549  16.557   4.488 -0.0554  0.2430  0.0384
26631W        W43479   9.939  14.610  12.302 -0.1875 -0.0046 -0.2762
26632W        W43480  15.574  16.442   0.325  0.0423 -0.1905  0.3760
26633W        W43481   9.766  10.909   0.748 -0.0988  0.1979 -0.3422
26634W        W43482  13.850  15.355  16.728  0.0840 -0.2133  0.1733
26635W        W43483  14.424   4.301   0.240 -0.0224  0.0955 -0.5708
26636W        W43484   5.001   0.939   1.731  0.0870 -0.3756 -0.0571
26637W        W43485   8.532  14.414  12.494 -0.1315 -0.0292 -0.1111
26638W        W43486   6.756   0.798   1.389  0.1620  0.2904 -0.0533
26639W        W43487  10.950   7.197  13.606 -0.3408  0.1310  0.1685
26640W        W43488   9.601   4.050  16.873 -0.3209  0.0380 -0.0112
26641W        W43489   0.637  11.388  17.170 -0.1244  0.2438 -0.2194
26642W        W43490   0.938   9.568   3.579 -0.2324  0.0763 -0.3185
26643W        W43491   8.688   8.867  13.214 -0.0078  0.0086  0.0801
26644W        W43492   8.918   4.864   0.891 -0.1280 -0.0497 -0.3650
26645W        W43493  11.280  11.659   5.029  0.1813  0.3276 -0.1463
26646W        W43494  14.496   3.668   5.580 -0.0797  0.2736  0.0438
26647W        W43495  13.934  16.794   2.145 -0.0902 -0.2484 -0.1113
26648W        W43496  14.974   1.867   2.238 -0.1139  0.2202 -0.0290
26649W        W43497   1.996  16.704   2.860 -0.0143  0.1446  0.0269
26650W        W43498   4.718   6.236   1.240  0.0601  0.0818  0.0777
26651W        W43499   3.141  11.534  16.669  0.0994  0.2734  0.2879
26652W        W43500  10.248   2.397   0.864  0.0202  0.1543 -0.1073
26653W        W43501   9.142   2.094  15.406  0.0995  0.2181  0.3126
26654W        W43502   6.147   1.072   4.294  0.0704 -0.0798  0.0882
26655W        W43503   1.731   5.542   2.958  0.2396 -0.1710 -0.1286
26656W        W43504  10.450  15.286   3.498  0.0616  0.2666  0.1664
26657W        W43505   9.524  16.218  16.895 -0.0266  0.0193  0.0529
26658W        W43506   5.907  16.608  14.455 -0.0580 -0.0458 -0.2590
26659W        W43507  11.055   8.784   4.921 -0.1507  0.3461 -0.0696
26660W        W43508   3.503   1.648  14.478 -0.1417 -0.0575  0.1788
26661W        W43509   3.709  12.961  15.814  0.2670  0.1107  0.2776
26662W        W43510   2.671   0.701   6.049  0.0939  0.2539  0.3702
26663W        W43511   0.514  10.928   4.786 -0.2530 -0.3721  0.2536
26664W        W43512  14.401   1.001  17.112  0.1331 -0.1882  0.3845
26665W        W43513   4.304  10.952  16.565  0.0032 -0.0635 -0.3456
26666W        W43514  16.329  12.380  13.796  0.0320  0.1982  0.2815
26667W        W43515   9.970   6.486   1.413  0.0256  0.1238 -0.2511
26668W        W43516   4.689  14.367  14.294  0.1801 -0.0400 -0.1335
26669W        W43517   3.184   8.189  17.382 -0.1813 -0.0033 -0.0124
26670W        W43518   9.360   1.689  16.882  0.1244  0.1633 -0.1534
26671W        W43519   3.863  16.970   3.540 -0.2182  0.0485  0.2144
26672W        W43520   0.128   5.492  14.747 -0.1957 -0.2625 -0.0503
26673W        W43521  13.909   6.258  14.434 -0.2329  0.0756 -0.0856
26674W        W43522  10.692   2.420   2.907  0.0609 -0.2794  0.0945
26675W        W43523   4.621  11.516   2.401  0.1185  0.1086 -0.0190
26676W        W43524  12.494  10.432  16.668 -0.1213  0.0931  0.2336
26677W        W43525  14.921  11.872  12.623  0.0903 -0.0170  0.0905
26678W        W43526   5.435  10.780  15.021 -0.1434  0.2553  0.1384
26679W        W43527  16.425   7.384   1.402 -0.0543  0.2164 -0.0605
26680W        W43528   0.483   1.138  15.357  0.0424 -0.3281 -0.2271
26681W        W43529   2.936  14.826   6.001 -0.0762  0.0422 -0.1330
26682W        W43530  12.502  12.673  16.084  0.0223  0.0981  0.3948
26683W        W43531  15.219   7.223   1.332  0.3281  0.2663  0.1693
26684W        W43532  10.961  11.102  17.338 -0.3102  0.1255 -0.0019
26685W        W43533  14.753  13.332   0.370 -0.0174 -0.1102  0.1323
26686W        W43534   3.684  16.313  12.851 -0.2114 -0.0641 -0.5585
26687W        W43535  16.389   1.802  12.502  0.1511  0.0169  0.0059
26688W        W43536   4.401   2.970  13.011 -0.0639  0.1129 -0.2004
26689W        W43537  16.439  13.656  16.938  0.2279 -0.0349 -0.1708
26690W        W43538  13.506   3.245  17.721 -0.0386 -0.1303  0.1145
26691W        W43539   6.639  11.676  15.616  0.2451 -0.1454  0.1388
26692W        W43540   9.504   7.141   3.535 -0.1002  0.2262  0.1650
26693W        W43541  10.615   5.435  15.500 -0.0034  0.0848 -0.3627
26694W        W43542  10.317   0.443  12.101  0.2181 -0.0036  0.0594
26695W        W43543  11.181   0.753  13.778  0.0424 -0.0685 -0.1107
26696W        W43544  14.465   0.285   5.871 -0.2441  0.1277 -0.2716
26697W        W43545  13.233  13.395  17.125  0.0085 -0.1689 -0.1849
26698W        W43546   7.745   4.737   2.144  0.0838  0.0763 -0.0473
26699W        W43547   5.588   3.062   0.492  0.2939  0.2897  0.3144
26700W        W43548   6.278  15.204  12.032 -0.2617  0.3646  0.3741
26701W        W43549  15.740   8.093  16.350 -0.1291  0.2146 -0.1715
26702W        W43550   5.399   4.085  16.713 -0.0252  0.1224 -0.0436
26703W        W43551  11.407  16.358  14.180  0.3224  0.0845 -0.2650
26704W        W43552   0.823  12.180   3.438 -0.1379  0.1127  0.1515
26705W        W43553   1.462  10.704   1.376 -0.0796 -0.0096  0.2273
26706W        W43554  14.845  16.229   2.679 -0.0966  0.0652  0.1344
26707W        W43555   4.310   1.599  16.812 -0.2342 -0.0145  0.0549
26708W        W43556  10.872   9.216  14.879  0.2181 -0.1192  0.1484
26709W        W43557  12.959  11.834  14.486 -0.0144 -0.3356  0.0923
26710W        W43558  15.607  11.956  13.397  0.0914  0.0985 -0.1325
26711W        W43559   7.335   0.311  12.287  0.0274  0.1314  0.1324
26712W        W43560  11.621  13.825  15.647 -0.2567 -0.1241  0.0890
26713W        W43561  12.483  14.201  13.423 -0.0010 -0.2520 -0.0195
26714W        W43562   6.107  11.706   4.617 -0.2120 -0.0171  0.0461
26715W        W43563   4.123   0.893   4.963 -0.4500  0.2014  0.0641
26716W        W43564   2.016  15.030   2.688  0.0391 -0.4286  0.4420
26717W        W43565  15.346   9.464  12.043 -0.2622  0.0001 -0.1885
26718W        W43566  15.340   1.279   2.991 -0.0351 -0.0289  0.0079
26719W        W43567   6.059  10.656  15.560  0.2556  0.0094 -0.1764
26720W        W43568   1.870   9.263   4.678  0.4332 -0.2806 -0.1806
26721W        W43569   4.127  16.242  13.406  0.0922 -0.0708 -0.0583
26722W        W43570  16.460  11.474  12.963 -0.2037  0.2413 -0.4744
26723W        W43571   9.749  12.777  16.249  0.4042 -0.1767  0.0756
26724W        W43572   9.752   7.965  16.272 -0.0768 -0.0174  0.2875
26725W        W43573  11.198  15.681   2.178  0.3093 -0.0884 -0.2500
26726W        W43574   5.596  12.898   4.956 -0.1581  0.0768 -0.1424
26727W        W43575   2.559  14.217  16.049 -0.1143  0.0444 -0.0783
26728W        W43576  17.157   4.785   1.671  0.0621 -0.1804  0.0263
26729W        W43577  12.648   2.910  12.148  0.1593  0.2330  0.0121
26730W        W43578   8.727  11.984  15.841  0.1798  0.2065  0.1661
26731W        W43579   5.901  12.593  14.058 -0.2548  0.1231 -0.1382
26732W        W43580   5.236  10.503   5.201 -0.1724 -0.0663  0.1562
26733W        W43581  11.879  16.695   4.979  0.0643  0.3322  0.0235
26734W        W43582   8.672   3.649  12.936 -0.0951  0.0046  0.3876
26735W        W43583  14.570  14.589   1.769 -0.0303 -0.0135 -0.1501
26736W        W43584  14.675   6.463   4.660 -0.0373 -0.0344 -0.1066
26737W        W43585   9.814  14.626  12.806 -0.0444 -0.1140  0.0222
26738W        W43586  14.877  13.735  12.796 -0.1258 -0.2190 -0.2283
26739W        W43587   1.622  12.571   4.313  0.2069  0.0014  0.1361
26740W        W43588  16.180   1.470  17.677  0.0427  0.1710 -0.0917
26741W        W43589  11.883   0.921  15.836  0.1231 -0.3620  0.2481
26742W        W43590   8.014   3.619  12.642  0.0971  0.0973 -0.1616
26743W        W43591   3.513  12.397  17.147 -0.0770 -0.0383  0.3523
26744W        W43592   8.927   7.437  14.882  0.2691  0.0173  0.1225
26745W        W43593  15.493  13.242  16.327 -0.1568  0.1369  0.0838
26746W        W43594   4.265  14.759   5.508  0.2386 -0.2852 -0.0959
26747W        W43595   4.733  11.450  13.673  0.1026 -0.0831 -0.0065
26748W        W43596  11.408  13.887   2.315  0.0982  0.1634 -0.1778
26749W        W43597   8.405   7.731  13.714  0.1360  0.0386  0.1322
26750W        W43598   8.439   5.880  16.670  0.0102 -0.1239 -0.1147
26751W        W43599   5.798   6.402  16.752  0.0474 -0.3473  0.0247
26752W        W43600  16.937   0.919   0.386 -0.3091 -0.1110  0.1434
26753W        W43601  13.587   0.698   5.111  0.1277 -0.1566  0.0259
26754W        W43602   0.865   7.883  12.576  0.0759  0.0418  0.1715
26755W        W43603  12.702  15.896  15.069  0.1550 -0.1096 -0.2341
26756W        W43604   1.365  10.033  12.852 -0.2713  0.3585  0.3175
26757W        W43605  14.489   9.899  14.243  0.0655  0.2270 -0.0331
26758W        W43606   9.680   8.401  14.135  0.0317  0.0534 -0.1172
26759W        W43607  14.791  10.753   4.086 -0.0721 -0.0417  0.1410
26760W        W43608  15.811  15.630   4.820 -0.0126 -0.0148  0.2564
26761W        W43609  13.452  12.541  15.899  0.1752 -0.5986 -0.1553
26762W        W43610  13.778   6.345  15.352  0.3194  0.1771 -0.1096
26763W        W43611  11.659  11.238  17.095  0.0486 -0.0203  0.0631
26764W        W43612  13.289  15.265  12.963 -0.2509  0.0881 -0.0335
26765W        W43613   1.950   5.627   3.843 -0.1271 -0.0539 -0.0022
26766W        W43614  16.612  12.790  13.787 -0.3301 -0.0084 -0.0951
26767W        W43615  11.724  12.349   5.838  0.4450  0.0620 -0.2999
26768W        W43616   5.278   0.841   2.987 -0.0684  0.3009  0.0017
26769W        W43617   8.997   4.595  11.250  0.0574  0.1494  0.0286
26770W        W43618  16.965  16.946  15.855 -0.0668 -0.1158 -0.2178
26771W        W43619  11.545   6.580  14.465  0.2765 -0.0141  0.0045
26772W        W43620  14.743   2.100  14.483  0.0186 -0.1056  0.4602
26773W        W43621  14.160   2.144   3.129  0.1052 -0.1481 -0.1700
26774W        W43622  13.069   0.692   0.337 -0.2201 -0.1379  0.1114
26775W        W43623   5.521   4.422  13.940 -0.2408 -0.1746 -0.0243
26776W        W43624  13.490  15.010   1.426 -0.2730 -0.0816  0.0992
26777W        W43625   6.963   0.492  13.917 -0.0946  0.1161  0.0883
26778W        W43626  15.840  17.152  17.394 -0.0045  0.1285  0.0633
26779W        W43627   6.054  13.573  16.560  0.0491  0.0398  0.1491
26780W        W43628  13.453  15.237  15.225 -0.2041 -0.0870  0.2104
26781W        W43629  15.892   1.158  14.249 -0.0807 -0.1074  0.0669
26782W        W43630   1.434  11.706   2.931  0.1581  0.1183 -0.2816
26783W        W43631   1.493  11.093  14.323  0.1078 -0.0980  0.0223
26784W        W43632  16.461   0.496   2.620  0.0855  0.2561  0.1592
26785W        W43633   8.457  11.654  17.524  0.1961 -0.3442 -0.0803
26786W        W43634   0.154  15.663   5.051  0.2762  0.3699 -0.3131
26787W        W43635  12.980   0.244   1.507 -0.1336  0.1418  0.0162
26788W        W43636   0.960   1.468   4.194  0.1006 -0.2581 -0.0365
26789W        W43637  13.888   2.612  16.906 -0.0550  0.0407 -0.4088
26790W        W43638   9.566   2.294   0.226  0.1607 -0.0676  0.1439
26791W        W43639   1.870   0.802  13.747 -0.0308 -0.3014  0.2447
26792W        W43640  12.699   3.223  17.513  0.1983 -0.1347 -0.0012
26793W        W43641   1.696   4.862  17.633  0.0541 -0.2988 -0.1032
26794W        W43642   8.523  10.753   0.690  0.2723  0.5002 -0.1644
26795W        W43643  14.378   5.728  16.785 -0.0625 -0.3951 -0.1120
26796W        W43644   1.846  15.406  16.746 -0.0192 -0.0664  0.2697
26797W        W43645   0.767   0.601   1.566  0.1283  0.0531  0.2992
26798W        W43646  16.889   6.563   3.869 -0.0857 -0.0874  0.1341
26799W        W43647  12.519   7.068  17.712  0.1074 -0.0336  0.2332
26800W        W43648  10.217  16.590   1.674 -0.0253 -0.1174 -0.3081
26801W        W43649   9.825  12.493  17.253 -0.1866 -0.2808  0.0335
26802W        W43650  15.867  15.706  14.787 -0.1941 -0.0920 -0.2792
26803W        W43651  15.114  10.600  14.044 -0.0045 -0.0930 -0.4506
26804W        W43652  14.085   9.423  16.709 -0.2181 -0.0597 -0.0280
26805W        W43653  14.683   9.220  12.628 -0.0333  0.0744 -0.2425
26806W        W43654  10.960  14.183  15.337  0.0827  0.0145 -0.1101
26807W        W43655   2.537  13.918  14.215 -0.0340 -0.2329 -0.1153
26808W        W43656  17.142   8.349  14.539 -0.1462 -0.2160  0.1775
26809W        W43657   8.455   9.123  15.225  0.2966 -0.0800  0.0008
26810W        W43658  12.384  10.818   3.994 -0.3589 -0.0741 -0.0237
26811W        W43659   1.314   8.214  15.658 -0.2565 -0.1573  0.1908
26812W        W43660   0.573   3.762  12.852 -0.1281  0.0365  0.1621
26813W        W43661   4.886   6.216  14.609  0.1679 -0.0608  0.2684
26814W        W43662  10.336   9.868   0.684  0.0559 -0.2752  0.1941
26815W        W43663   3.843  13.672  14.210  0.1319 -0.0557 -0.0183
26816W        W43664   9.248   8.655  15.102 -0.4033  0.2177  0.0865
26817W        W43665   7.318   4.100   1.310  0.0373  0.0150 -0.1698
26818W        W43666   6.596   6.956  12.864  0.1098  0.1295 -0.2064
26819W        W43667  12.319  14.307   2.090  0.5517 -0.2072  0.0664
26820W        W43668   6.580   4.466   1.545 -0.1463  0.3674  0.3792
26821W        W43669   2.406  11.123   6.199  0.0661 -0.1262  0.1270
26822W        W43670   2.479   3.815   1.963  0.2755 -0.0617  0.2306
26823W        W43671   4.610   7.099  13.276 -0.0005  0.0592 -0.0496
26824W        W43672   2.367   6.900   5.116  0.0582  0.0791  0.3065
26825W        W43673   3.928  13.366   4.385  0.2160  0.1773 -0.0259
26826W        W43674  14.291  13.869   2.987  0.0557 -0.1983 -0.1057
26827W        W43675  11.803  11.053  12.611 -0.0706 -0.0095 -0.0240
26828W        W43676   6.975   4.423  16.564 -0.3183  0.0717  0.1729
26829W        W43677  14.264  16.105   3.221 -0.3211  0.0421 -0.3528
26830W        W43678  13.342   1.575   2.044 -0.0367 -0.2014  0.2916
26831W        W43679   3.504  15.275  16.500 -0.0889  0.2099  0.1578
26832W        W43680   6.255   2.075  17.563  0.1178 -0.1652  0.1362
26833W        W43681   7.615  11.811  11.358 -0.0855  0.3164  0.0038
26834W        W43682  13.191  13.304  16.173  0.1718 -0.2982 -0.1405
26835W        W43683   3.988   9.663  16.833 -0.3659  0.2766 -0.2979
26836W        W43684  11.390   8.130   4.345  0.2184 -0.1193 -0.0421
26837W        W43685   9.277  16.946  15.826 -0.1728  0.0426 -0.2582
26838W        W43686  11.282   6.802  11.660 -0.2964 -0.1782 -0.3408
26839W        W43687   9.763   4.599  11.879 -0.0435 -0.1122 -0.1075
26840W        W43688   7.043  12.280   6.607 -0.3684  0.0262 -0.0586
26841W        W43689  13.049   8.629  12.648 -0.0611 -0.2164  0.1005
26842W        W43690  16.138  13.378  16.031 -0.1310  0.2537  0.1047
26843W        W43691  12.845  15.664  12.939  0.1548  0.1446  0.1022
26844W        W43692   6.712   2.394   2.223 -0.0748  0.3154  0.1551
26845W        W43693   4.190  15.848   2.618  0.0484 -0.0751  0.3521
26846W        W43694   1.985   5.704  16.297  0.0471  0.1270  0.0599
26847W        W43695   7.422  10.802  17.221 -0.1006  0.2891  0.1243
26848W        W43696   0.539   2.600   2.544  0.0506 -0.2623 -0.1494
26849W        W43697   4.173   3.878   1.464 -0.1189 -0.0410  0.2488
26850W        W43698   8.480  13.791  17.517 -0.0299 -0.1427 -0.0225
26851W        W43699   9.024  14.700  14.725 -0.1177  0.1041  0.3914
26852W        W43700   8.145  16.996   5.855  0.1517 -0.1277  0.0458
26853W        W43701  17.064  12.764  17.047 -0.1545  0.2797  0.0819
26854W        W43702  10.930   7.684  13.353 -0.0543 -0.3575 -0.2451
26855W        W43703  15.890   9.723  17.045 -0.2747 -0.0975 -0.0868
26856W        W43704  16.473  17.122   2.431 -0.0052 -0.3062 -0.2087
26857W        W43705   2.629   1.577   6.529 -0.0220  0.0205 -0.0399
26858W        W43706  11.409   8.863   4.550  0.1378  0.2790  0.0628
26859W        W43707  10.608  12.682  16.027  0.2037 -0.1919  0.1778
26860W        W43708   3.794   9.413  15.947 -0.1028 -0.3523 -0.0962
26861W        W43709   1.069  13.900   4.196  0.3644 -0.2206 -0.1622
26862W        W43710  13.357  15.628   5.169 -0.0623  0.1370 -0.0160
26863W        W43711   7.775   5.629   3.537  0.0920  0.1913 -0.0287
26864W        W43712  12.460   6.822  17.255 -0.0548  0.1658  0.0497
26865W        W43713  15.719   2.695   4.892 -0.4099  0.0648  0.1198
26866W        W43714  11.538   1.745   5.192  0.1059  0.0619  0.0412
26867W        W43715   0.054   9.699   0.559 -0.1483  0.0567  0.0179
26868W        W43716  12.335   0.031   2.669  0.1716 -0.0571 -0.0592
26869W        W43717   3.068  14.398   5.652  0.2365  0.2186 -0.1034
26870W        W43718   0.938  15.442  16.963 -0.0125 -0.1580 -0.0927
26871W        W43719  10.962  16.540   2.396  0.1692 -0.2290 -0.3233
26872W        W43720  13.600   8.449  13.664  0.2464 -0.0990 -0.1602
26873W        W43721   0.284  11.748  17.054  0.2187 -0.0453  0.3334
26874W        W43722   1.051  11.839   4.776 -0.0027  0.0468  0.1569
26875W        W43723   6.887   3.582  14.466 -0.1651  0.0935 -0.0699
26876W        W43724   9.500   6.283  13.592  0.2174 -0.0990 -0.0522
26877W        W43725  13.578   4.979  11.856  0.0689 -0.2040  0.0522
26878W        W43726   0.355  11.212  14.368  0.2930 -0.0014 -0.0930
26879W        W43727  15.067  13.782   5.461 -0.2885 -0.2648 -0.1097
26880W        W43728   9.473  11.949  12.480  0.0928 -0.1418 -0.0054
26881W        W43729   3.854  11.423   5.354  0.0092 -0.0511  0.1304
26882W        W43730  15.581   5.235   4.462  0.0544 -0.1372 -0.0995
26883W        W43731   2.628  10.970  15.994 -0.0036 -0.0024 -0.0708
26884W        W43732  11.411   0.998   0.574  0.0274  0.1370  0.0131
26885W        W43733  15.144   5.018   1.907 -0.3112  0.0844 -0.1238
26886W        W43734  16.907  11.745  17.771  0.0762  0.0530 -0.0196
26887W        W43735   6.963   9.807   1.076  0.1655 -0.1994 -0.1407
26888W        W43736  16.836  12.963  12.136  0.0420  0.2844  0.0299
26889W        W43737   8.605   0.806   3.214 -0.1863 -0.1271 -0.3889
26890W        W43738  14.016  14.382   2.195  0.0449 -0.0099 -0.3601
26891W        W43739  15.159  11.983   0.300 -0.0261 -0.2370  0.0201
26892W        W43740   4.438  13.259   5.351  0.0575 -0.0545  0.1046
26893W        W43741   3.230  15.262   4.820  0.0277  0.0039 -0.0540
26894W        W43742  11.077   2.659   1.041 -0.2006 -0.0495 -0.2020
26895W        W43743   5.369   0.460   4.882  0.0916  0.0785  0.0558
26896W        W43744   8.520   5.840  16.050 -0.1191 -0.2442  0.3261
26897W        W43745  14.450   8.343  14.077  0.1909 -0.0454 -0.0447
26898W        W43746  16.173  10.784   1.388  0.1133 -0.1177 -0.2252
26899W        W43747   2.991  17.166   0.102  0.8276 -0.3790  0.0499
26900W        W43748   1.606   0.509  16.894 -0.2840 -0.0116 -0.0565
26901W        W43749   7.765   8.644  15.125 -0.1993  0.2090  0.2658
26902W        W43750  12.769  13.362  16.486 -0.5143  0.4063 -0.0267
26903W        W43751  16.151   3.099  14.526 -0.2427  0.2264 -0.0806
26904W        W43752  17.144  15.781   6.040  0.1423 -0.1784 -0.3128
26905W        W43753   6.038   5.731   1.649 -0.1768  0.1719 -0.3812
26906W        W43754   0.622   8.558  15.133  0.0404 -0.0778  0.1879
26907W        W43755   7.210   2.938  16.664  0.3702  0.0552 -0.1227
26908W        W43756   2.570   6.536  14.217 -0.2411 -0.1523  0.0280
26909W        W43757  15.441   9.949  12.172  0.0205 -0.1411  0.1381
26910W        W43758   4.197   4.658   0.794 -0.2147 -0.0600  0.0974
26911W        W43759   8.387   4.465  15.154 -0.0010  0.3218  0.0935
26912W        W43760   8.046  10.715   3.124 -0.2116  0.1233  0.1237
26913W        W43761   1.714  14.820  15.600 -0.1388  0.0329 -0.0203
26914W        W43762   7.343   0.711  14.655 -0.1847  0.1129 -0.0655
26915W        W43763   4.861   4.308   4.010  0.0841 -0.3836 -0.1533
26916W        W43764  10.752   4.429  12.152  0.2371  0.1794  0.0008
26917W        W43765   1.783  11.481   1.275  0.1285  0.0902  0.0336
26918W        W43766  13.218   4.768  12.742  0.1199  0.0422  0.0470
26919W        W43767   6.375   8.044   2.463 -0.0611  0.1139  0.1667
26920W        W43768   3.318   4.889  16.454 -0.1558 -0.2988 -0.0012
26921W        W43769  10.812  16.883   0.266 -0.2963 -0.0987 -0.0685
26922W        W43770  15.815   9.082   3.426  0.2958 -0.3766 -0.0525
26923W        W43771   9.648  12.094   3.434  0.0654  0.1112  0.0218
26924W        W43772   4.232   2.474  14.649 -0.1949 -0.2392 -0.1644
26925W        W43773   0.231   5.804   0.994  0.1675  0.2502 -0.2530
26926W        W43774  13.929   2.327  14.057  0.0232 -0.2535 -0.1900
26927W        W43775   0.489   2.958  14.996 -0.1317 -0.1216  0.0367
26928W        W43776   4.124  16.363   2.735 -0.1970  0.0738  0.0319
26929W        W43777   3.629   8.353  16.558 -0.1353  0.1745  0.0124
26930W        W43778   7.550   1.853   0.853  0.2345 -0.1425 -0.1873
26931W        W43779   4.337   5.400  14.107  0.0662 -0.0338 -0.1510
26932W        W43780  12.724  14.195  14.742 -0.0170 -0.0304 -0.1506
26933W        W43781  14.579   5.616   1.054  0.0641  0.3488  0.1456
26934W        W43782   9.039   6.275   4.132  0.2296 -0.2385 -0.1209
26935W        W43783   9.334   5.598   2.597  0.0637 -0.1035 -0.1504
26936W        W43784  14.963  15.151  17.502  0.2847  0.0797  0.1256
26937W        W43785   3.528   9.943  14.159  0.0523 -0.1429  0.0553
26938W        W43786   5.245   1.808  15.030  0.0608  0.1503 -0.0186
26939W        W43787  14.993   5.256  16.269  0.2004 -0.1110 -0.0583
26940W        W43788   9.995   6.828  17.765 -0.1067  0.1123 -0.3831
26941W        W43789  11.058  12.119  11.711  0.3340 -0.0329  0.2188
26942W        W43790   6.206   1.583  17.381  0.2451  0.2241  0.2396
26943W        W43791  16.281  14.514   2.023 -0.2849 -0.2361 -0.0422
26944W        W43792   0.728  11.828   1.639 -0.1984  0.0327 -0.0676
26945W        W43793  15.779   3.863   2.926  0.0768 -0.1036  0.0137
26946W        W43794  10.686   1.716  13.804 -0.0851 -0.0021 -0.0034
26947W        W43795  13.231  14.137   1.027  0.0453 -0.0001  0.3337
26948W        W43796   3.037   8.410  15.149 -0.4647 -0.0233 -0.0218
26949W        W43797  14.344  12.884   3.486 -0.0382  0.2517 -0.1856
26950W        W43798  15.960  10.424  12.779 -0.0849  0.0242  0.1323
26951W        W43799  14.696  15.600  16.202  0.0276  0.2135 -0.1763
26952W        W43800   3.288   5.993  17.244  0.0308  0.0156  0.0734
26953W        W43801   5.479   0.611   0.679 -0.1225 -0.2641 -0.0007
26954W        W43802  10.448   2.296   2.281 -0.0373  0.0264 -0.1293
26955W        W43803   6.018  10.081  14.907 -0.1135 -0.2319 -0.0115
26956W        W43804   6.664   9.626  17.050 -0.2018  0.0994 -0.1680
26957W        W43805  15.160  11.446  12.475  0.0423  0.1187  0.0413
26958W        W43806   5.173   2.226   5.010  0.1275 -0.0637 -0.1426
26959W        W43807   8.104   2.704  16.285 -0.1279 -0.2026 -0.1587
26960W        W43808   1.445   4.231   1.447 -0.0826 -0.2206 -0.0623
26961W        W43809  12.794   8.950   1.020 -0.1029 -0.1990  0.3374
26962W        W43810  13.149   8.073  11.830  0.1059  0.1994 -0.1258
26963W        W43811  13.433   9.782  15.263 -0.1235 -0.1233  0.2205
26964W        W43812   0.635   1.388   2.650 -0.0367 -0.1283 -0.2618
26965W        W43813   2.648   1.645  17.644  0.3696  0.0399 -0.2191
26966W        W43814   2.131   7.085   5.750 -0.3207 -0.2288 -0.2560
26967W        W43815   2.122   3.932  14.140 -0.1468  0.0459  0.0958
26968W        W43816   2.916  14.114  13.888  0.0394 -0.1751 -0.2459
26969W        W43817   8.687   6.857  14.162  0.2242 -0.0289  0.2714
26970W        W43818   5.723   2.317  12.630  0.0566  0.3117  0.3772
26971W        W43819   0.272   8.485  16.149 -0.1852 -0.0088  0.1264
26972W        W43820  11.741  13.043   1.226  0.0571  0.0435 -0.0176
26973W        W43821   6.970   4.862  16.258  0.0646 -0.1009  0.0877
26974W        W43822   1.218  14.574  15.868 -0.0155 -0.2488 -0.1747
26975W        W43823  10.254  16.273   4.243 -0.1293 -0.0571 -0.2749
26976W        W43824   2.476   9.091  15.465 -0.2874  0.1004  0.1220
26977W        W43825   4.771   8.487  15.360 -0.1756  0.2354 -0.0572
26978W        W43826   3.912  17.001  13.472 -0.1789 -0.0442  0.2722
26979W        W43827   0.915   8.167   1.109  0.0903  0.0670  0.1603
26980W        W43828   2.243  11.204  13.919 -0.0052  0.1721 -0.1119
26981W        W43829   8.705  14.752   0.301  0.1467  0.2814 -0.1273
26982W        W43830  14.821   0.346   0.384 -0.0124  0.3289 -0.2466
26983W        W43831  12.937   9.471  12.955  0.2270  0.2999  0.1027
26984W        W43832  11.775  14.148   3.844 -0.0561 -0.7450 -0.1054
26985W        W43833   2.273  10.096  14.103  0.0580  0.1901  0.3429
26986W        W43834   6.758   4.326  17.069  0.1979  0.0170  0.0548
26987W        W43835  10.505  11.043   0.549 -0.1677  0.1628 -0.1814
26988W        W43836   4.547   0.868  14.881 -0.0728  0.0165 -0.0518
26989W        W43837  12.358  14.256  16.950 -0.0085 -0.0688 -0.0324
26990W        W43838   8.703  15.793   4.109  0.0929 -0.2733  0.0233
26991W        W43839  11.198   8.530  15.457  0.0002 -0.1835 -0.1134
26992W        W43840   3.556   4.181   0.986 -0.0344  0.1408  0.2053
26993W        W43841   0.405  12.533   3.726  0.1534 -0.0969 -0.3213
26994W        W43842  11.131  16.266   1.862  0.0115  0.0473  0.1582
26995W        W43843   7.390   6.217   1.903  0.1143 -0.1013 -0.3076
26996W        W43844   8.973  17.050   4.591 -0.1243  0.1895 -0.2349
26997W        W43845   9.802  16.719  17.602  0.1344 -0.0415 -0.1716
26998W        W43846   1.722   2.277  13.937  0.1559 -0.0203 -0.0183
26999W        W43847  14.717   3.896   0.443  0.0764  0.1869  0.0490
27000W        W43848   1.014   7.746   4.826  0.0620 -0.0180  0.0645
27001W        W43849   9.200   5.858  13.848  0.0043  0.1025 -0.2617
27002W        W43850  15.019   3.906  15.341 -0.2795 -0.1178 -0.0831
27003W        W43851   6.458   7.728   3.201  0.1761 -0.1925  0.1353
27004W        W43852   5.882   3.756  14.000 -0.1336  0.1197  0.1259
27005W        W43853  16.713   0.079  11.581 -0.0189 -0.2405 -0.0882
27006W        W43854   9.036   2.717  15.610  0.0629 -0.0710  0.2482
27007W        W43855   6.146   0.514   4.236 -0.6852 -0.0794 -0.1686
27008W        W43856   7.319   9.680   2.623  0.2030  0.1115 -0.0504
27009W        W43857   2.595   4.340  13.467  0.0388 -0.0481  0.1788
27010W        W43858   5.214   9.390  15.460  0.0703  0.0361 -0.1836
27011W        W43859  15.496   9.659  12.612  0.0684  0.0027 -0.0426
27012W        W43860   0.499   7.571  14.042 -0.0105 -0.0227 -0.3582
27013W        W43861  10.422   5.714  16.170 -0.5642 -0.1828  0.3669
27014W        W43862  10.920  12.092   2.153  0.2455  0.1815  0.0278
27015W        W43863   4.877  11.284  16.033  0.1238 -0.0301 -0.1376
27016W        W43864   8.306  13.753   0.727  0.0797  0.0452 -0.0866
27017W        W43865  10.504  14.968  17.389 -0.3215  0.1796  0.0565
27018W        W43866   2.602  12.059  15.565 -0.1308  0.1373  0.0244
27019W        W43867   4.519   8.956  16.294  0.0228 -0.1244 -0.2958
27020W        W43868  10.704  10.711  14.578 -0.0874 -0.1960  0.1880
27021W        W43869   9.793   3.583   2.042  0.1443  0.0823  0.0007
27022W        W43870   6.475  15.143  13.012  0.4020  0.0133  0.0924
27023W        W43871  13.731   7.127   0.397  0.1217 -0.0497 -0.2809
27024W        W43872   0.178   8.587   4.423 -0.5298  0.1362 -0.0491
27025W        W43873  15.904   8.679   5.745  0.1454  0.4110  0.2562
27026W        W43874   9.321  16.999   1.877 -0.0249 -0.0389  0.0876
27027W        W43875   4.164   0.958  15.604 -0.1893 -0.2210  0.0828
27028W        W43876  15.584  11.604   1.958 -0.1779 -0.0902  0.2058
27029W        W43877   5.325  11.270  15.448  0.1846  0.0329  0.0430
27030W        W43878  10.009  16.961   2.489  0.3572 -0.0299  0.3545
27031W        W43879   5.987  10.136   2.712 -0.1034  0.1167  0.0551
27032W        W43880   3.159   2.036   4.440  0.0662  0.3734  0.1129
27033W        W43881   6.912   6.031  15.236  0.0819  0.0843 -0.1592
27034W        W43882  14.545   8.416   3.509 -0.1893 -0.1724 -0.2462
27035W        W43883  16.919   8.225   2.409 -0.0512 -0.0209  0.3127
27036W        W43884  13.256   5.535  13.131 -0.2295 -0.0815  0.0128
27037W        W43885  12.038  15.118  15.281 -0.3632  0.2015 -0.1031
27038W        W43886   5.162  10.237  17.608 -0.0513  0.0941  0.0867
27039W        W43887   5.304  11.175   0.448 -0.1571  0.0612  0.0739
27040W        W43888   9.868  16.708  15.186  0.0434 -0.1473 -0.1777
27041W        W43889  11.786   6.308   3.714  0.0589 -0.2567  0.1243
27042W        W43890  16.073  11.835  17.109 -0.0377  0.0869  0.0578
27043W        W43891   8.581  14.567  16.643  0.1492 -0.2103  0.0937
27044W        W43892  16.735  14.109  13.702 -0.1916  0.2819  0.1816
27045W        W43893   6.126  16.960  14.157 -0.0813 -0.0196  0.3928
27046W        W43894   0.145   2.499   4.241 -0.1512  0.0075  0.0582
27047W        W43895   4.455  17.153  13.155 -0.1728 -0.0960 -0.1661
27048W        W43896   9.541  12.688   3.939  0.0782  0.3144  0.3887
27049W        W43897   2.150  16.920  14.657  0.1187  0.0440  0.1610
27050W        W43898   4.367  13.703  15.662  0.2133 -0.0171  0.0122
27051W        W43899   8.489   5.918   5.206 -0.0339 -0.0645  0.0225
27052W        W43900  15.274  13.069  15.390  0.0277 -0.0229 -0.0962
27053W        W43901   5.887   6.311   1.182  0.0265  0.0719  0.1091
27054W        W43902  12.762   4.300   4.951  0.2160 -0.0063 -0.2917
27055W        W43903   3.662   4.621  14.259 -0.0084  0.1052  0.0456
27056W        W43904   7.239  10.135  12.158  0.1411 -0.1373  0.1775
27057W        W43905  11.508   7.385  13.931 -0.1464  0.1641 -0.2635
27058W        W43906   8.095  12.977   0.851 -0.0415 -0.0356  0.2350
27059W        W43907   4.950   8.211  16.289  0.1468 -0.1370  0.0613
27060W        W43908  16.844   0.923   4.738  0.0204  0.1836  0.0532
27061W        W43909  13.361  11.521   3.283  0.2068  0.3966  0.3165
27062W        W43910   1.490  12.791  15.579  0.5314 -0.0783  0.0415
27063W        W43911   0.231   4.799  15.863 -0.3454  0.0621  0.3293
27064W        W43912   5.403   5.984  14.760 -0.1067 -0.2436  0.0591
27065W        W43913   5.348  14.076   2.906 -0.0671  0.0270  0.3196
27066W        W43914  14.728  13.175  15.506  0.2212  0.0676 -0.1823
27067W        W43915  11.544   7.480  13.379  0.3028  0.2152 -0.2596
27068W        W43916   0.071  14.953   2.812  0.0401  0.0484  0.0717
27069W        W43917  15.303  15.797  12.565 -0.0101 -0.0962  0.0882
27070W        W43918   4.640   6.018  13.840 -0.1066 -0.4616  0.1992
27071W        W43919   2.489   8.242  15.193 -0.0846 -0.0901  0.0431
27072W        W43920   8.132  13.500   1.734  0.1015 -0.1585  0.1186
27073W        W43921   7.482  13.398  12.880  0.0984 -0.0377  0.0885
27074W        W43922   2.305   9.503  15.144 -0.0871  0.0634  0.2279
27075W        W43923  11.491  15.644   5.100 -0.1652 -0.7226 -0.1771
27076W        W43924  12.038   7.472   2.884 -0.0933 -0.1688 -0.1150
27077W        W43925   4.831   8.545   1.966 -0.0752  0.0055 -0.1061
27078W        W43926  11.023   6.507   5.097  0.2288  0.1043 -0.2099
27079W        W43927   9.555   1.399   2.311  0.0539 -0.0731  0.0895
27080W        W43928  13.939   0.505   0.783  0.1346 -0.1003 -0.0776
27081W        W43929  11.110   9.439   1.548  0.2260 -0.3485  0.1496
27082W        W43930   7.911   4.999  17.094  0.1515  0.2279 -0.1147
27083W        W43931  13.011   3.400   4.689 -0.1968  0.0024  0.1856
27084W        W43932   1.947   8.824   2.353 -0.0798  0.0094 -0.2518
27085W        W43933   4.145  15.502  14.460 -0.1718 -0.3335  0.1439
27086W        W43934   5.605   0.412   3.889  0.1039  0.1524  0.2563
27087W        W43935   8.204   4.161   1.014 -0.2830  0.3967  0.1563
27088W        W43936  12.169   8.310   4.027 -0.2712  0.0301 -0.5120
27089W        W43937  12.054  10.110  13.438 -0.0984 -0.0920 -0.1998
27090W        W43938   0.310   0.441  17.164 -0.1176  0.1380 -0.1860
27091W        W43939  11.322   4.737  13.481  0.0606 -0.0891  0.1584
27092W        W43940   4.189   6.010  15.203 -0.1411  0.0545  0.2265
27093W        W43941   8.078   5.188   0.237  0.0516 -0.2748 -0.1284
27094W        W43942  11.149   0.106   0.214  0.0202  0.1261 -0.2891
27095W        W43943   1.789   1.768   5.855 -0.3927  0.4032 -0.2343
27096W        W43944  10.148   8.674  17.634 -0.0664  0.2747  0.2335
27097W        W43945   9.738  12.027   1.149 -0.0197  0.1415 -0.0961
27098W        W43946   0.200   5.277   0.211 -0.2574  0.2284  0.0513
27099W        W43947  15.015   5.994   0.968 -0.0095 -0.0028  0.4731
27100W        W43948  11.076  13.317   3.606  0.0032  0.0463  0.0586
27101W        W43949   0.735   4.464  14.334 -0.3209  0.1953 -0.2045
27102W        W43950  10.649   6.680  11.811  0.1152  0.1423 -0.1329
27103W        W43951  14.137  16.312  16.890  0.2212 -0.2646  0.1535
27104W        W43952   2.605  10.538  14.099  0.0266  0.1426  0.0780
27105W        W43953   5.066   7.931  13.138 -0.1979 -0.1155  0.1821
27106W        W43954   4.328   1.386  15.732 -0.0359  0.1560 -0.0645
27107W        W43955  13.089  15.359  11.218  0.0059  0.0394  0.0700
27108W        W43956   3.412   1.024  16.967  0.0077  0.1760  0.0402
27109W        W43957   5.949   0.882   0.772  0.0924  0.0790 -0.1309
27110W        W43958   6.032  15.099   1.691  0.0840  0.1193  0.0615
27111W        W43959   7.073   3.603  13.935 -0.0244 -0.1339  0.1934
27112W        W43960   1.740  14.840   3.128  0.1249 -0.1935  0.0156
27113W        W43961   5.632  12.821  16.548  0.2068  0.1993  0.0195
27114W        W43962  15.469  11.861   0.900  0.0656  0.2620  0.1560
27115W        W43963  12.239  14.876  14.472  0.0401 -0.0227  0.1594
27116W        W43964   1.422  15.598   5.923  0.2009  0.1167  0.0804
27117W        W43965   1.237   5.130   2.516  0.2759 -0.3199  0.0772
27118W        W43966  13.607   4.222  16.860  0.0794 -0.0682 -0.0671
27119W        W43967   2.853  11.645   5.077 -0.3441  0.2649  0.4620
27120W        W43968   4.456  15.199   5.642  0.0289 -0.0608  0.0448
27121W        W43969  14.291  15.480   1.777 -0.0790 -0.0727  0.0199
27122W        W43970   5.835  10.440   0.582  0.0337  0.2053  0.0745
27123W        W43971   8.753   4.928   2.821 -0.1653 -0.2678 -0.1403
27124W        W43972  13.922  14.983   5.169 -0.0413 -0.1509  0.0537
27125W        W43973   3.130   6.142   1.101  0.2092  0.2445  0.1518
27126W        W43974  15.324   1.666   4.466  0.4080 -0.0263 -0.0628
27127W        W43975   0.641   3.485   2.359 -0.0895  0.0309 -0.2969
27128W        W43976   6.457   8.434  12.488 -0.2847  0.1626 -0.0686
27129W        W43977   7.905   1.182   4.236  0.1609 -0.1955  0.1073
27130W        W43978  14.867  16.787  14.343 -0.0157 -0.1816  0.0276
27131W        W43979  10.775   6.982  15.129 -0.1098 -0.1177  0.1280
27132W        W43980  11.125  11.164   2.329  0.1622  0.0640  0.0801
27133W        W43981   7.925  12.672  15.995 -0.1093 -0.0059  0.1865
27134W        W43982   4.636  10.230  13.767  0.0640 -0.4383 -0.0177
27135W        W43983  10.311   6.514   2.691  0.1223  0.3211 -0.1347
27136W        W43984   2.178   5.186   3.763  0.2972  0.1256  0.2612
27137W        W43985   1.079   7.286   0.044 -0.0043  0.0741  0.0161
27138W        W43986  12.910   0.347  15.261  0.0232 -0.2291 -0.2062
27139W        W43987  10.450   6.096  13.713 -0.0587 -0.0412  0.2789
27140W        W43988   7.137   9.615  15.735 -0.0887  0.0252  0.0823
27141W        W43989   5.094  16.055   1.218  0.0463  0.3613  0.0012
27142W        W43990   6.701   2.164  13.736 -0.1942  0.0554  0.0801
27143W        W43991   5.874  16.657  17.049 -0.0856 -0.2046  0.0275
27144W        W43992  12.572  10.104   5.519 -0.0219 -0.3788  0.1072
27145W        W43993   9.843   6.548   0.881 -0.1496  0.2917  0.0837
27146W        W43994  13.069   6.696   5.053  0.1065 -0.0329  0.1618
27147W        W43995   7.701   2.517   3.448 -0.1850 -0.1480  0.0667
27148W        W43996   6.812   2.677  13.973 -0.1622  0.1447 -0.0104
27149W        W43997   5.033   2.818  12.890  0.0240  0.2857  0.1728
27150W        W43998   1.531  12.462   5.896 -0.0300  0.1294  0.2714
27151W        W43999   3.367   9.269  15.547 -0.0770 -0.0832  0.3249
27152W        W44000   0.846   4.190  12.883 -0.1160 -0.0558 -0.0687
27153W        W44001  16.214   2.768  16.396  0.0236  0.0312  0.0070
27154W        W44002   9.805  15.793   2.743 -0.0174 -0.0805 -0.1527
27155W        W44003  11.488  11.727   1.369  0.0543 -0.2146  0.2827
27156W        W44004  12.066   7.229   3.367 -0.2734 -0.1244  0.0687
27157W        W44005  10.321  12.043  16.104 -0.4743 -0.3822 -0.0560
27158W        W44006   5.675  14.586   5.328  0.0404 -0.1847 -0.2614
27159W        W44007   3.600  13.523   0.566  0.3085 -0.3545  0.3456
27160W        W44008   1.599  13.315   5.411  0.1849 -0.3565  0.1001
27161W        W44009   0.926   3.500  17.410 -0.2114  0.1188 -0.3321
27162W        W44010   3.775  15.185   3.130 -0.0786  0.2177  0.0038
27163W        W44011  12.115  15.862  14.031  0.1951  0.0546 -0.3770
27164W        W44012   7.810   8.058  15.363 -0.2044 -0.0506  0.0825
27165W        W44013   3.257  13.391  14.930  0.0898  0.2567 -0.1937
27166W        W44014  14.542   8.250  12.582  0.2154 -0.2819  0.2281
27167W        W44015  14.090   5.879   5.471 -0.1566 -0.3449 -0.2768
27168W        W44016   2.872  12.749   3.292 -0.0254 -0.3650  0.1984
27169W        W44017  11.107  15.534  14.331 -0.0210 -0.0463  0.0835
27170W        W44018   7.015   1.821   2.174  0.1670 -0.3842  0.0401
27171W        W44019   5.045   9.471  15.926 -0.0626  0.1416  0.0523
27172W        W44020   7.561   4.417   1.002  0.2504  0.3893  0.1079
27173W        W44021  15.624   7.941   1.748  0.1273 -0.2156 -0.1210
27174W        W44022   1.705   0.292   2.575  0.2287 -0.1156  0.0625
27175W        W44023   8.988  13.856   4.526 -0.2299  0.3371  0.3023
27176W        W44024   3.002   8.993  12.476  0.0811  0.0023 -0.0452
27177W        W44025   9.586   0.058   2.571  0.0652  0.2278  0.3246
27178W        W44026   9.226  10.812   0.813  0.1185  0.0272  0.0249
27179W        W44027   6.137   1.963  14.273  0.1337 -0.0849  0.0789
27180W        W44028  10.338   9.736  14.399  0.2156  0.2072 -0.1318
27181W        W44029   2.259   5.756  11.692  0.1697  0.2146  0.0626
27182W        W44030   0.027   9.906   2.606 -0.1837 -0.3622  0.0454
27183W        W44031  16.340  13.000  14.209  0.2281  0.2656 -0.2630
27184W        W44032  10.286   9.386   2.221  0.1229  0.1626  0.1412
27185W        W44033   4.530   8.471  16.345 -0.1606  0.1382 -0.3636
27186W        W44034  16.122  14.633  15.534  0.2807 -0.1154  0.0051
27187W        W44035   8.524   6.700   2.669  0.0480  0.3044 -0.3886
27188W        W44036   3.605  14.990   4.470 -0.1187  0.0799  0.0227
27189W        W44037   4.129  12.454   4.214 -0.3267 -0.0188 -0.0753
27190W        W44038   0.418   6.723   2.948  0.1830 -0.0590 -0.1761
27191W        W44039  11.624   1.048  16.368  0.3224 -0.0325 -0.0069
27192W        W44040  12.484  16.088  17.367  0.0980  0.0731  0.0320
27193W        W44041  16.854   3.147   3.924 -0.0756  0.1316  0.0556
27194W        W44042   9.049   6.997   3.730 -0.1493  0.0630 -0.1010
27195W        W44043  16.125  11.393   4.731 -0.3152  0.0173 -0.0864
27196W        W44044   6.496  13.751  12.747 -0.4025 -0.4509  0.0293
27197W        W44045  13.371  13.612   0.386 -0.1890  0.3509 -0.4124
27198W        W44046  14.647   6.957   4.956 -0.0482  0.0756  0.1253
27199W        W44047   7.921  13.396   4.540  0.0723 -0.2317 -0.0588
27200W        W44048   1.013  12.327   0.822 -0.2336 -0.0418  0.0743
27201W        W44049  16.938  14.525   0.274 -0.1584  0.1538 -0.2561
27202W        W44050   3.377  13.835   4.879 -0.2662 -0.1317  0.1220
27203W        W44051  16.389  16.060   0.055  0.0627  0.1820  0.1208
27204W        W44052   8.836  13.862   2.642 -0.1581 -0.1434 -0.1129
27205W        W44053   3.139   2.775   4.550  0.0881  0.1450  0.1178
27206W        W44054   3.791  11.184  15.866  0.0093 -0.1286 -0.3082
27207W        W44055   0.283  16.085  13.794 -0.0093  0.0232 -0.0579
27208W        W44056   2.838  14.612  14.025  0.0429  0.2574 -0.1966
27209W        W44057  15.472  14.654  16.962  0.1347  0.4784  0.0562
27210W        W44058   0.606  16.821   5.108 -0.0502 -0.2272  0.1244
27211W        W44059  10.867   5.092  17.145  0.1038  0.4486  0.0646
27212W        W44060   4.356   3.435   1.143  0.1816 -0.0689  0.0896
27213W        W44061  12.755  12.833  16.518  0.0991 -0.0289 -0.0508
27214W        W44062  10.943  13.352  17.302 -0.0622 -0.0360 -0.2385
27215W        W44063  15.131   8.825  17.666 -0.0886  0.2525  0.1074
27216W        W44064   6.973  11.181   2.255 -0.0756  0.1241 -0.1925
27217W        W44065   1.207  15.950   2.459  0.1083  0.0805 -0.1693
27218W        W44066   8.123  12.705  13.316  0.2036  0.2638  0.1102
27219W        W44067   7.022  15.328  14.503 -0.1236  0.0308  0.3801
27220W        W44068  12.291   2.588   5.317  0.0838  0.1120  0.2150
27221W        W44069   5.177   0.976   5.660 -0.2688  0.1178  0.1410
27222W        W44070  10.008  14.938  14.679 -0.0460  0.0360 -0.0452
27223W        W44071   0.237  16.517   4.131 -0.0249  0.0653  0.4058
27224W        W44072   3.859   0.065   1.073  0.0121  0.1683 -0.1773
27225W        W44073  15.128   3.266  11.024  0.1181  0.0950 -0.2111
27226W        W44074  15.984  15.094  15.496  0.0016 -0.0264 -0.1004
27227W        W44075  16.757   2.206   2.361 -0.1167 -0.0410  0.0784
27228W        W44076   6.336  16.553  12.753 -0.2609  0.1496 -0.2049
27229W        W44077   1.293   0.650   2.729 -0.1214  0.1392 -0.1526
27230W        W44078   1.385  10.726   5.418 -0.1432 -0.0107 -0.1350
27231W        W44079   0.014  10.008  13.055  0.0560  0.2099 -0.0617
27232W        W44080   3.367   6.558  17.514  0.0021 -0.1279  0.0953
27233W        W44081   0.131  12.960   4.542  0.4158 -0.1005 -0.2208
27234W        W44082  13.928  10.706   2.789 -0.2558 -0.1412  0.2729
27235W        W44083  11.980   5.277   5.236  0.0233  0.0981 -0.0030
27236W        W44084   8.271  11.705   2.278 -0.1428 -0.2591 -0.2156
27237W        W44085  11.230   2.022  15.534  0.0825  0.0738  0.0843
27238W        W44086   2.409  17.016  15.494 -0.1354  0.1934  0.0461
27239W        W44087  11.926   5.362   4.641 -0.5732 -0.1872  0.2255
27240W        W44088  15.348  15.736  15.689  0.0517  0.1796 -0.0168
27241W        W44089  13.505   5.231  14.368 -0.2962  0.3474 -0.0306
27242W        W44090  11.655  11.242  16.618 -0.1719  0.0949  0.1262
27243W        W44091   5.942   1.090  15.897 -0.0078  0.1392  0.0096
27244W        W44092   7.199   7.048  17.534 -0.0710  0.1116 -0.2118
27245W        W44093   0.359   0.159  16.150 -0.1546  0.0158  0.2381
27246W        W44094  16.293   7.040  15.357 -0.2003  0.4267 -0.0609
27247W        W44095  11.028   3.532   0.761  0.3130 -0.0441 -0.2690
27248W        W44096  12.494   7.473   4.721  0.1903  0.1079 -0.0797
27249W        W44097  16.649  10.995  15.707  0.1480 -0.1030  0.1865
27250W        W44098   7.496   8.048  17.066 -0.1377 -0.1915  0.3097
27251W        W44099  17.134  16.206   6.331 -0.0504  0.1586 -0.1320
27252W        W44100   3.520  12.393   5.520 -0.0773  0.3527  0.3328
27253W        W44101   1.491  13.470   5.988 -0.0390 -0.2237  0.3840
27254W        W44102   8.012   1.595  14.533 -0.0166 -0.1236  0.0628
27255W        W44103  14.940   4.446  16.379 -0.4811 -0.0544 -0.1244
27256W        W44104   4.659  10.546  13.380 -0.1894  0.0203  0.1426
27257W        W44105   1.840   1.296   5.130  0.1502  0.1290 -0.2270
27258W        W44106  11.055  16.370  16.431 -0.0028  0.1104  0.0239
27259W        W44107  14.525   8.015   0.968 -0.1121 -0.0971  0.1852
27260W        W44108   6.260   2.247  13.076  0.2243  0.2280  0.3172
27261W        W44109  14.938  15.086   4.779  0.1122 -0.1329 -0.0868
27262W        W44110  15.473  11.388   2.986 -0.0194 -0.1957  0.1656
27263W        W44111   4.222   6.615   4.358 -0.0452 -0.0787  0.0847
27264W        W44112  12.879  16.890  12.660  0.1401 -0.2076 -0.1360
27265W        W44113   6.615   7.626  16.882 -0.1617 -0.2239 -0.4049
27266W        W44114  16.517  10.999   5.711  0.0016 -0.0412 -0.1877
27267W        W44115  15.376   9.144   1.947  0.2058 -0.0772  0.1434
27268W        W44116  14.394  12.152   3.315 -0.5457 -0.0927 -0.2014
27269W        W44117  15.440  15.876   4.636 -0.1098  0.0629  0.2840
27270W        W44118  15.360   5.352   5.886  0.3060  0.0184 -0.2510
27271W        W44119  16.125  16.060   4.963  0.2144  0.3237 -0.0040
27272W        W44120  15.442   2.165  15.110 -0.4515  0.3165  0.2369
27273W        W44121  13.129   3.059  17.332 -0.2183  0.1346  0.2221
27274W        W44122   4.955   8.063   2.003 -0.0433 -0.2688  0.0147
27275W        W44123  12.118   8.390  12.613  0.2050 -0.2444  0.0142
27276W        W44124  15.824   9.393  16.697  0.1742  0.1493 -0.0176
27277W        W44125  10.618  16.892  13.626  0.0819 -0.0425 -0.1140
27278W        W44126   5.640  14.035  12.923 -0.1935 -0.0980 -0.1297
27279W        W44127  11.779   4.227   1.955 -0.2611  0.0456  0.2150
27280W        W44128   4.017   9.147   3.240 -0.0755  0.0100 -0.1569
27281W        W44129   1.340   5.576   3.828 -0.1495  0.1640 -0.2258
27282W        W44130  10.834   2.341  15.467 -0.1766  0.1701  0.3272
27283W        W44131   4.490   2.092   4.341  0.1436  0.1355  0.0731
27284W        W44132  14.502   4.513   4.028  0.0361 -0.0038 -0.1471
27285W        W44133   1.733   4.374  14.114  0.4399 -0.3080  0.3336
27286W        W44134  10.391   4.485   4.222  0.3259  0.1780  0.0165
27287W        W44135   3.478   0.677   2.585  0.1766 -0.0231 -0.0926
27288W        W44136  11.801   9.693  16.586 -0.0210 -0.2955 -0.2208
27289W        W44137   3.110   0.321   4.520 -0.0849  0.0564 -0.1104
27290W        W44138   3.110  12.495  13.982 -0.1527 -0.0504 -0.0170
27291W        W44139   8.464   5.127   4.021  0.1975  0.1243 -0.1514
27292W        W44140   6.885   5.813   2.872  0.2281 -0.1313 -0.0226
27293W        W44141   3.389   3.850  13.121  0.0901 -0.3232 -0.2339
27294W        W44142   5.839   3.047   1.881 -0.1798  0.1355 -0.1330
27295W        W44143   0.845  10.802  16.945  0.1167 -0.2286 -0.2569
27296W        W44144  10.148  16.707   5.705  0.0932  0.3049  0.0822
27297W        W44145   3.652  11.692  15.108 -0.1330 -0.1588 -0.1338
27298W        W44146  12.752   8.043   0.165  0.4285 -0.0466  0.3060
27299W        W44147   1.482  11.593   3.702  0.0586  0.2354 -0.3374
27300W        W44148   8.194   1.563   2.723  0.0649  0.2251 -0.2165
27301W        W44149   5.933   1.589   5.448  0.1997 -0.0310  0.1238
27302W        W44150  15.204   0.956   4.611  0.1952 -0.1554 -0.0096
27303W        W44151  10.187   8.329   5.253 -0.0673 -0.0120  0.0509
27304W        W44152   6.039   6.153   2.364 -0.0948 -0.3383  0.1852
27305W        W44153   8.707  11.131  12.811  0.0364  0.0637 -0.0307
27306W        W44154   6.805   4.326  16.077 -0.2163 -0.0297 -0.1963
27307W        W44155   1.648  15.160  13.719 -0.1916  0.1752 -0.0727
27308W        W44156   6.731   7.516  11.948 -0.2333 -0.2189 -0.1020
27309W        W44157   8.252   2.749  14.627 -0.0696  0.2127 -0.3086
27310W        W44158   0.401  10.748  17.754  0.5076 -0.0183  0.2732
27311W        W44159  10.048  11.148   1.356  0.0503  0.1603 -0.0493
27312W        W44160   7.176  17.006   4.619 -0.2069  0.0863  0.1135
27313W        W44161  11.791  10.697  16.164 -0.0470  0.3634 -0.1145
27314W        W44162   2.140  16.301  13.197  0.1145 -0.0515  0.0912
27315W        W44163   4.726   9.317  15.613 -0.2005 -0.0927 -0.2259
27316W        W44164  11.075   0.635   4.706 -0.3661 -0.1672  0.0111
27317W        W44165   1.181   1.670   3.701  0.5330  0.1010  0.0770
27318W        W44166   1.953   4.646   2.753 -0.1084  0.0899  0.3084
27319W        W44167  16.079   4.049   3.431  0.2466  0.5150  0.3415
27320W        W44168   3.133   2.783   0.362 -0.4288 -0.1543 -0.0586
27321W        W44169  10.977  10.180   3.174  0.2611 -0.2415  0.0788
27322W        W44170   0.654   2.053  14.868 -0.0504 -0.2161 -0.0054
27323W        W44171  10.291  15.446  15.630 -0.0926 -0.1576  0.0340
27324W        W44172  12.796   4.071  17.370  0.2881  0.1135  0.1241
27325W        W44173   3.813  10.879   2.883 -0.0519 -0.0385  0.3099
27326W        W44174   2.049   4.279  16.064  0.2594 -0.0863  0.0511
27327W        W44175  14.884   7.440  14.120 -0.0449 -0.0402  0.0135
27328W        W44176  10.659   9.493  15.808 -0.0664 -0.1622 -0.2284
27329W        W44177  13.905  10.931  11.802  0.0571  0.1373  0.1469
27330W        W44178   9.778   7.084  12.351 -0.0689  0.0622 -0.1864
27331W        W44179   8.340  14.493   0.553 -0.2656 -0.0107  0.2891
27332W        W44180  10.854  11.951   1.689 -0.0045 -0.0525  0.1338
27333W        W44181   1.980   0.361   2.174 -0.3237 -0.1149  0.3476
27334W        W44182  11.733  11.496  14.057 -0.2342 -0.1415 -0.0255
27335W        W44183  11.734  10.376   4.671  0.4677  0.2201  0.0899
27336W        W44184  14.609   9.803   4.334 -0.3346  0.2350  0.0028
27337W        W44185   6.578  16.974   0.712 -0.0100 -0.0385  0.2446
27338W        W44186   3.998   2.105  14.386 -0.0196  0.0723  0.2008
27339W        W44187  16.041   2.831  16.875  0.2195  0.1086  0.2183
27340W        W44188  15.823  13.533   4.121 -0.0974 -0.1752 -0.2399
27341W        W44189   8.413   5.289   3.549  0.0860 -0.1200  0.1979
27342W        W44190   3.216  14.146  17.281 -0.2515  0.1316  0.2665
27343W        W44191  15.435  12.415  13.210  0.0873 -0.2495 -0.0438
27344W        W44192   8.142  11.303  12.834 -0.2469  0.1962  0.1074
27345W        W44193   8.219  12.654   4.220 -0.1909 -0.0474  0.2411
27346W        W44194   1.846   0.954   0.121 -0.0823  0.0423  0.1561
27347W        W44195   7.363  17.046  14.464  0.0288  0.3226 -0.1771
27348W        W44196   0.712  16.738   4.179  0.0353  0.0174  0.0835
27349W        W44197  12.995   4.834   3.730  0.2703  0.0562  0.0424
27350W        W44198   4.222   6.661   5.492  0.1590  0.0888 -0.4835
27351W        W44199   9.830   9.270  14.033  0.0017  0.2435 -0.2147
27352W        W44200  10.108   6.755  11.827 -0.1104  0.4533  0.1415
27353W        W44201  10.627  14.911  16.909 -0.0723 -0.1690  0.1060
27354W        W44202   1.248   9.319   1.908  0.0476  0.0229  0.2060
27355W        W44203  13.313  10.287  12.367 -0.0284 -0.1074 -0.3430
27356W        W44204  12.296  15.570  15.142 -0.1818  0.1850 -0.0143
27357W        W44205   4.202  12.375  15.460 -0.2690  0.1732  0.1033
27358W        W44206   1.870   9.848  14.644  0.2508  0.2276 -0.1006
27359W        W44207   3.031   4.009  15.256  0.0286  0.0292 -0.1775
27360W        W44208   4.179  12.600   3.744  0.0673 -0.1084  0.0973
27361W        W44209   1.182   1.621   4.644 -0.0425  0.1464  0.4997
27362W        W44210   9.096   7.614   5.024 -0.2598 -0.2431  0.0768
27363W        W44211   5.827  13.207  12.329  0.1364 -0.0217 -0.0413
27364W        W44212   3.899  16.988   2.680  0.1370 -0.1590 -0.2743
27365W        W44213  13.324   7.591  12.096 -0.1694 -0.3279  0.0893
27366W        W44214  16.921  15.112  13.947  0.2414  0.0477  0.3926
27367W        W44215  12.492  14.689  15.381 -0.0021 -0.1906 -0.2136
27368W        W44216   2.458   6.023  14.019 -0.4550  0.0793  0.0337
27369W        W44217  12.426   9.996   2.284  0.0022  0.0107  0.0437
27370W        W44218   2.128   5.999  17.031 -0.1511  0.1817  0.0282
27371W        W44219   8.175   2.491   1.811 -0.1565  0.1189 -0.0180
27372W        W44220  10.535   4.609   1.248 -0.0723 -0.3090  0.2359
27373W        W44221   7.305   0.803  17.076 -0.4296 -0.2440 -0.0817
27374W        W44222  14.448  11.195  14.290  0.0791 -0.0253 -0.2647
27375W        W44223  11.185  13.749  11.655  0.0571 -0.2081 -0.0638
27376W        W44224  14.543   5.987   5.273  0.0666  0.2319 -0.1160
27377W        W44225  16.052   5.818  12.265  0.0159  0.3424  0.3185
27378W        W44226   8.748  17.072  13.566 -0.1198  0.2374 -0.0418
27379W        W44227   6.137   4.306  12.550  0.1117 -0.1785 -0.0933
27380W        W44228   0.056  14.055  13.914 -0.0646 -0.0789  0.0291
27381W        W44229   8.737   0.790   0.066 -0.1680  0.3104  0.1896
27382W        W44230  12.593   2.315   5.647 -0.2524 -0.0099  0.3120
27383W        W44231   9.550   3.488  12.962 -0.0093  0.1211 -0.2663
27384W        W44232  12.490   7.560  14.399 -0.1051  0.0284  0.0094
27385W        W44233  15.746  10.245  14.720 -0.0575 -0.1856  0.1273
27386W        W44234   9.414   2.344  17.146  0.0042 -0.1013  0.2953
27387W        W44235   1.620   7.519   3.267 -0.1218 -0.2005  0.2711
27388W        W44236  14.683  11.045  13.048 -0.0482  0.1488 -0.1848
27389W        W44237   4.476   0.207   4.592 -0.0601  0.0639 -0.0904
27390W        W44238   0.692  12.458   5.364 -0.3458 -0.1024 -0.0104
27391W        W44239   8.812  16.374   1.514  0.1582 -0.0268  0.2562
27392W        W44240  16.186  10.816  15.415 -0.2581 -0.0781  0.1277
27393W        W44241  11.907   4.858  11.381  0.0509 -0.2851  0.4364
27394W        W44242  15.743   9.640   0.811  0.1656 -0.1855 -0.1794
27395W        W44243   8.165   8.625  16.132 -0.2192 -0.1225 -0.0039
27396W        W44244  10.901  15.721  16.141  0.0896 -0.0940 -0.0568
27397W        W44245  11.995  14.670  13.102  0.1959  0.0543  0.1083
27398W        W44246   4.164   9.185   5.122  0.0932 -0.4733 -0.2492
27399W        W44247  15.321   7.226  14.104 -0.0422  0.0580  0.2205
27400W        W44248   8.259  14.201   1.003  0.0556 -0.0860  0.0659
27401W        W44249   5.544  14.113   6.187  0.2515  0.1444  0.1025
27402W        W44250  12.515  12.417  12.376 -0.0591 -0.1009  0.2994
27403W        W44251  16.345  11.515  16.172  0.2745 -0.1718  0.0268
27404W        W44252   6.271   0.129   0.339  0.0481 -0.2198 -0.0289
27405W        W44253  12.619   2.423   0.434  0.3345  0.1569 -0.1541
27406W        W44254   4.360   7.552   2.790 -0.2797 -0.1805 -0.0215
27407W        W44255   1.225   4.445   4.478  0.0990  0.2806 -0.4243
27408W        W44256  16.891   2.254  16.825  0.0048  0.1898 -0.0441
27409W        W44257   4.256  13.325  16.480  0.2045  0.2836 -0.2052
27410W        W44258   2.053  14.033  16.057 -0.1351  0.1151  0.2758
27411W        W44259  15.338   1.786  15.485 -0.3431 -0.0667 -0.3125
27412W        W44260  14.374  17.065  13.527 -0.1687 -0.0311  0.3338
27413W        W44261   8.912  15.644   1.507  0.0870 -0.1553  0.2545
27414W        W44262   5.175  12.830   2.314 -0.3783  0.1967  0.3613
27415W        W44263   0.966  15.886  15.881  0.2194  0.2145  0.1340
27416W        W44264   6.112  10.769   4.979 -0.2245 -0.2028 -0.1100
27417W        W44265   1.050   4.944  16.985 -0.1807 -0.0229 -0.1322
27418W        W44266   1.372  15.923   5.435  0.1559  0.1991 -0.3786
27419W        W44267  10.532  14.517   0.407  0.0727 -0.1688  0.0281
27420W        W44268  14.383  10.382   5.449 -0.0159  0.1901 -0.5505
27421W        W44269  14.329  11.480  16.551 -0.1358  0.3912  0.2263
27422W        W44270   1.140   5.447  12.193 -0.0611 -0.0161 -0.0898
27423W        W44271  12.779   2.011  16.531 -0.0809 -0.1086 -0.3029
27424W        W44272   7.922   4.134  12.707  0.4764 -0.0966  0.1698
27425W        W44273  15.110  12.383   5.934  0.0183 -0.2260 -0.1287
27426W        W44274   0.015   7.567  17.721 -0.5499 -0.0931  0.0596
27427W        W44275  15.727   0.225  16.193  0.1381  0.0292  0.0668
27428W        W44276   8.241   1.994  16.843  0.0621  0.0477  0.1464
27429W        W44277   1.299  16.688   2.062 -0.1987 -0.3837  0.2196
27430W        W44278   4.807  11.118   1.032 -0.0080  0.0855  0.2586
27431W        W44279  16.900   8.467  12.736  0.0868 -0.1013  0.2632
27432W        W44280   6.723   3.668   2.981  0.0689  0.1555 -0.1412
27433W        W44281  13.941   2.856   2.495  0.1212 -0.0070 -0.0325
27434W        W44282   4.594   1.083  13.461 -0.1178  0.3010 -0.0829
27435W        W44283   5.786   4.206   0.819 -0.1670 -0.2355 -0.2409
27436W        W44284  14.129  14.025   0.743  0.0229 -0.1413  0.1993
27437W        W44285  15.690   9.586   1.796  0.0558  0.0311 -0.0876
27438W        W44286   0.469   5.647  17.465  0.0658 -0.2406 -0.0456
27439W        W44287  10.533   2.571  15.094 -0.1649  0.4908  0.0960
27440W        W44288   4.757  13.840  16.140  0.2569 -0.1711  0.2526
27441W        W44289   0.742   4.065   0.836 -0.2272 -0.3539 -0.0823
27442W        W44290  12.523  10.687   1.425 -0.0912  0.0391 -0.1266
27443W        W44291   4.166   0.807   2.093 -0.0942 -0.0518  0.1050
27444W        W44292   7.169   7.351  15.311 -0.1664  0.1795 -0.0347
27445W        W44293  13.910   3.733   4.987 -0.1758  0.1299 -0.1962
27446W        W44294  13.154  17.140  15.568 -0.2339 -0.0693 -0.0457
27447W        W44295   5.751   6.063   5.391 -0.0042 -0.1817  0.0986
27448W        W44296   0.727  10.925   5.749 -0.0347  0.1215 -0.0424
27449W        W44297   6.875  14.691   4.840 -0.2413  0.1107  0.0200
27450W        W44298  12.165   1.271   5.532 -0.0016 -0.0872  0.1092
27451W        W44299  14.231  12.321  12.677 -0.0286 -0.0357  0.3877
27452W        W44300   5.804  12.100  14.051  0.1001  0.0205  0.0786
27453W        W44301  15.438   1.330   0.253  0.1008  0.0381 -0.3062
27454W        W44302  10.016   4.365   2.421  0.2394  0.1261  0.3393
27455W        W44303   0.339   4.208   3.476 -0.1883 -0.1760  0.1447
27456W        W44304   2.213   7.985  16.239 -0.1394  0.0143 -0.1006
27457W        W44305  15.740  14.240  17.030  0.0399  0.4554 -0.0348
27458W        W44306  13.999   2.624   0.598 -0.1123 -0.2118 -0.0628
27459W        W44307  15.108   2.346  15.508  0.3069 -0.1488  0.3149
27460W        W44308   1.584  16.489   3.161  0.0252  0.0129  0.3740
27461W        W44309  13.361   9.689  13.020  0.0271  0.2785  0.0810
27462W        W44310  13.620   3.806  11.918  0.1464 -0.1284 -0.2876
27463W        W44311  16.758   7.883  16.187  0.1994  0.2219 -0.1672
27464W        W44312  10.791   4.194  13.215 -0.0297 -0.1278 -0.0136
27465W        W44313   6.310   7.909  14.606 -0.3141 -0.3315 -0.2681
27466W        W44314  12.831   2.776  13.749 -0.0920 -0.0314  0.0118
27467W        W44315  15.120  11.685   4.418  0.0730 -0.0748  0.1596
27468W        W44316   3.742   0.581   1.071 -0.3118  0.0377  0.0644
27469W        W44317   2.486  11.547   5.902 -0.2432 -0.2307  0.0128
27470W        W44318   6.457   4.910  13.854  0.1711  0.0993  0.0495
27471W        W44319   3.809   1.959   3.305  0.0993  0.2046  0.0552
27472W        W44320   4.530  11.056  13.935 -0.3897  0.0434 -0.1506
27473W        W44321   5.838   5.001  13.380  0.2467  0.1213 -0.1761
27474W        W44322  12.603   0.121  14.200  0.0298 -0.0711 -0.2930
27475W        W44323   3.671  14.264   4.083  0.0678  0.2115  0.2481
27476W        W44324  13.361  15.086   2.430  0.0269 -0.0890 -0.2312
27477W        W44325   1.351   6.520   1.412  0.0809  0.1337  0.0155
27478W        W44326  11.103  14.231  11.456 -0.5237  0.1223  0.2604
27479W        W44327  14.326   1.470  12.905 -0.3226 -0.1453 -0.3245
27480W        W44328  13.501   0.474  11.654 -0.0829  0.0444  0.0331
27481W        W44329   9.947   0.979  13.381  0.2664 -0.1125  0.1625
27482W        W44330   1.874  10.690  12.967 -0.0755 -0.0517 -0.3235
27483W        W44331  16.515   5.475  14.287  0.0747 -0.0262  0.1090
27484W        W44332   0.058  14.706  17.637 -0.0660 -0.0107  0.0145
27485W        W44333  15.326  15.464   2.439 -0.1297  0.0074  0.4300
27486W        W44334  14.416   4.644  17.282  0.0952  0.0007  0.3579
27487W        W44335  13.307  10.987   3.457 -0.0828  0.0758  0.0695
27488W        W44336   3.879  16.812   5.815 -0.2089 -0.1822 -0.6092
27489W        W44337  12.780  13.466   2.652  0.1283 -0.2412 -0.1175
27490W        W44338  12.399  14.600  14.892  0.0766 -0.2122 -0.0992
27491W        W44339   6.685   3.212   2.757 -0.1857 -0.0013  0.0542
27492W        W44340   7.984  16.367  13.884 -0.1346 -0.2423  0.3600
27493W        W44341   7.395  14.938  16.437 -0.0679  0.0529 -0.1886
27494W        W44342  15.700  12.211   3.892  0.2495 -0.2018 -0.3089
27495W        W44343   5.490   6.589   4.199  0.3421  0.2347 -0.0023
27496W        W44344  10.880   0.481  13.102 -0.0243  0.0910 -0.0345
27497W        W44345  16.775  12.917   4.620  0.3145 -0.1193 -0.1214
27498W        W44346   8.771   5.006  14.442  0.1657  0.1107  0.1340
27499W        W44347   5.533  12.382   2.979 -0.2436 -0.0535  0.0358
27500W        W44348  12.586   6.476  12.011 -0.0071 -0.2435  0.0304
27501W        W44349  13.400   3.788   0.706 -0.2653  0.0501  0.1747
27502W        W44350   1.257  12.096  15.517  0.0623 -0.0322  0.3226
27503W        W44351   7.300   6.494   2.810 -0.2128 -0.1825 -0.1827
27504W        W44352  10.809   2.446  13.667 -0.0798  0.0546  0.3462
27505W        W44353  15.049  15.130   5.944 -0.0134 -0.1409 -0.2163
27506W        W44354   9.351   2.566  11.847 -0.0607 -0.2452 -0.2128
27507W        W44355  15.965   2.213   1.650  0.3613 -0.0309 -0.1965
27508W        W44356  12.439   0.260  16.446 -0.0711 -0.0130  0.0015
27509W        W44357  13.276  10.222  17.034  0.1853 -0.0452 -0.1624
27510W        W44358  11.861   0.396  15.657  0.0691  0.3687  0.2944
27511W        W44359  12.980   9.117  15.187  0.0507 -0.0803  0.3137
27512W        W44360  11.379  16.480  13.547  0.0961 -0.1029  0.0438
27513W        W44361   1.741   3.916  12.733  0.4352 -0.0404 -0.2577
27514W        W44362   7.617  15.504  13.859 -0.2053 -0.1475  0.1022
27515W        W44363  12.229   5.802   4.754  0.1907 -0.1401  0.2191
27516W        W44364  14.884  16.560   3.801 -0.1234 -0.1979  0.0371
27517W        W44365  13.852  13.903   2.751  0.0704 -0.3170 -0.1239
27518W        W44366  11.139  13.210  14.421 -0.1807 -0.1251 -0.2332
27519W        W44367   7.659  16.092   0.270 -0.2312 -0.0603  0.0147
27520W        W44368   1.826   0.635   3.435  0.0978 -0.2384  0.1224
27521W        W44369   9.265  11.070  12.754 -0.0486  0.3124  0.1451
27522W        W44370  13.203   5.837   1.461 -0.1442  0.0472  0.0345
27523W        W44371   8.171  14.878   4.066 -0.1578  0.0451 -0.1997
27524W        W44372   8.151   2.790  13.776 -0.0574  0.2997  0.2208
27525W        W44373   4.717  14.152   5.678 -0.0818 -0.1903  0.1378
27526W        W44374  16.481   7.449   1.875  0.0367 -0.2476  0.3260
27527W        W44375   3.234  10.509  17.609  0.0589 -0.0917  0.0904
27528W        W44376  14.060   8.180   1.300 -0.4029 -0.2276  0.0901
27529W        W44377  14.144  15.115  12.997 -0.3287 -0.1154 -0.0886
27530W        W44378   0.513  13.906   1.466 -0.0310  0.2152 -0.2073
27531W        W44379  12.746  13.965   5.198 -0.1539  0.0393 -0.3204
27532W        W44380  13.754   5.446   1.697 -0.0232 -0.2998  0.2436
27533W        W44381  16.882  12.237   3.493 -0.0781  0.1371 -0.2756
27534W        W44382   8.606   6.851   1.720 -0.0506  0.1645 -0.0927
27535W        W44383  16.747  14.479  13.289 -0.0696  0.3091  0.1638
27536W        W44384   4.184  16.040  14.363 -0.2013 -0.2065 -0.1195
27537W        W44385  16.747   0.354   5.683  0.1493  0.0990  0.0708
27538W        W44386   6.722   3.492  13.507  0.0220 -0.1068 -0.0992
27539W        W44387  11.731   9.857  15.774 -0.0708  0.0080  0.0589
27540W        W44388   5.081  14.348   0.763 -0.0131 -0.0127  0.2070
27541W        W44389   9.487   0.066   4.428  0.2164 -0.0538 -0.2586
27542W        W44390  16.033  14.470   1.427  0.1855 -0.2037  0.0458
27543W        W44391   7.431  15.089  13.665  0.2954  0.3249 -0.0528
27544W        W44392   4.712   0.919   2.882 -0.2660  0.2061  0.0600
27545W        W44393  17.122   8.196  15.790 -0.0353 -0.0407 -0.1012
27546W        W44394  11.146  15.828  11.968  0.0720  0.1527  0.1224
27547W        W44395   5.324   6.061   4.142  0.1122 -0.2364 -0.1649
27548W        W44396  11.378   6.746  15.816  0.1758  0.0831 -0.1688
27549W        W44397   4.403   5.228  15.821  0.1690 -0.2069  0.0972
27550W        W44398   4.749   5.187  16.172  0.2545 -0.2253 -0.1190
27551W        W44399  15.929   8.088  15.874  0.3344  0.2669 -0.0471
27552W        W44400   9.746   6.961  17.338 -0.1309 -0.1192  0.1145
27553W        W44401   3.770   0.005   5.502  0.1550 -0.0544 -0.0199
27554W        W44402   9.996   9.640  13.694  0.2400  0.5059  0.3530
27555W        W44403  15.292  15.491   3.867  0.0391 -0.0473 -0.0518
27556W        W44404   6.196  12.659  16.475 -0.0220  0.1776  0.0403
27557W        W44405  11.168   4.371  14.379  0.1642 -0.2179 -0.2381
27558W        W44406   3.195   1.206   6.049 -0.1639 -0.0859  0.1886
27559W        W44407   2.912   1.194  11.785 -0.2328  0.1224  0.0807
27560W        W44408  14.438   1.716   0.588 -0.0146  0.0807 -0.0130
27561W        W44409   8.382  10.215  16.640  0.1309 -0.0154 -0.0164
27562W        W44410  13.934  14.678   1.228 -0.1843 -0.2213 -0.1165
27563W        W44411   7.598   3.767  12.423  0.0512 -0.0303 -0.1817
27564W        W44412  14.924   1.419   2.024 -0.3273  0.1505 -0.2950
27565W        W44413   4.459   6.416  17.678  0.1608  0.1031  0.1468
27566W        W44414   7.987   3.558   2.140 -0.3293 -0.3050 -0.1090
27567W        W44415   9.646  15.931   5.575 -0.1199 -0.1905 -0.1709
27568W        W44416   7.421   8.047   0.720  0.0028  0.2148  0.0309
27569W        W44417   9.022  17.160  17.628  0.3570 -0.1071 -0.2075
27570W        W44418   1.191   0.283  16.750  0.0835 -0.2324  0.1563
27571W        W44419   2.713   6.499  13.773 -0.1616 -0.1287  0.1084
27572W        W44420   9.568  16.379  12.324  0.3450 -0.1551  0.1063
27573W        W44421   7.624   9.884   3.912 -0.1101 -0.0615  0.0969
27574W        W44422   6.913  12.871   3.681  0.0286 -0.3729  0.1816
27575W        W44423   1.263   8.007   6.060 -0.2040 -0.2348 -0.0755
27576W        W44424   0.059   0.728   0.022  0.0081 -0.0541  0.0742
27577W        W44425   7.984   5.547  12.031 -0.1383  0.1614  0.1895
27578W        W44426  11.529   5.876  15.599 -0.0251  0.0626 -0.1153
27579W        W44427  11.174   4.640  15.907  0.2816 -0.1764 -0.2226
27580W        W44428   8.854   7.075   4.636  0.0986  0.3368 -0.3039
27581W        W44429  14.040   0.967   0.997  0.2795  0.1107 -0.1329
27582W        W44430   0.706   1.918   4.401 -0.2317  0.0585 -0.1090
27583W        W44431   3.104   6.761  12.819 -0.3871 -0.1018 -0.3757
27584W        W44432  12.968   5.496   3.068 -0.0486 -0.1193  0.2004
27585W        W44433   0.832   2.330  12.464 -0.0847 -0.1504  0.1094
27586W        W44434   5.581   9.559   0.179 -0.1867 -0.2260  0.1300
27587W        W44435  13.536  13.316   1.439 -0.1647  0.0733  0.2621
27588W        W44436   2.351   0.103   0.275 -0.2105 -0.0932 -0.0386
27589W        W44437   1.104  13.270  15.514  0.0177  0.2613 -0.0186
27590W        W44438  12.505  16.716   1.723  0.1514 -0.0493 -0.0897
27591W        W44439   1.218  11.158  16.291 -0.3319 -0.1525 -0.2523
27592W        W44440   0.455   6.920  15.224 -0.1221  0.3316 -0.0839
27593W        W44441   1.222  12.776  13.466 -0.0056  0.0283  0.0933
27594W        W44442  13.648   5.244  13.495  0.0246  0.4599 -0.1838
27595W        W44443  15.564   2.275   3.086 -0.0678  0.2985 -0.0046
27596W        W44444   7.531   8.750  16.864 -0.2630  0.2710 -0.1537
27597W        W44445   5.116  13.297   0.894 -0.1857  0.2442 -0.2380
27598W        W44446  12.209  15.441  16.171  0.0301 -0.0234  0.0619
27599W        W44447  14.130   2.908  13.098 -0.3689  0.1933  0.0353
27600W        W44448   5.204  10.589   4.680  0.4782 -0.1836 -0.2048
27601W        W44449   2.260  13.984   1.707 -0.0151  0.2494  0.0134
27602W        W44450  14.068  14.196  15.442  0.0118  0.0428 -0.1161
27603W        W44451  11.443   4.047   2.340 -0.0121  0.2563 -0.1046
27604W        W44452   6.543   0.903   0.923  0.1090  0.0931 -0.2629
27605W        W44453   9.307  16.996  12.726  0.3086  0.1553 -0.0592
27606W        W44454  12.511   1.967  11.732  0.0977  0.1363 -0.0797
27607W        W44455  11.722   5.900  17.622 -0.0759 -0.2592  0.2135
27608W        W44456  12.980   8.025  16.607 -0.2048  0.1853  0.0252
27609W        W44457   1.839   1.974  16.249  0.0779  0.0252 -0.2620
27610W        W44458   0.076  13.301  13.287 -0.2264  0.1672 -0.2504
27611W        W44459   8.950   1.513  17.251  0.1471 -0.0345  0.0433
27612W        W44460   1.190  10.683   6.548 -0.0746 -0.0078  0.0786
27613W        W44461   9.314  13.910  14.071 -0.0767 -0.3346  0.0893
27614W        W44462   2.816  11.552  17.220 -0.0086  0.1236  0.1550
27615W        W44463  14.523   7.174   0.056  0.0076  0.0088 -0.0359
27616W        W44464   6.578  11.301  12.963 -0.0965 -0.1393  0.1388
27617W        W44465   9.687  15.776   3.283  0.3235  0.1167 -0.2591
27618W        W44466   3.113   6.999  15.961 -0.0449 -0.4137 -0.1275
27619W        W44467  14.097  12.458  17.118 -0.1495  0.2870  0.0175
27620W        W44468  12.946   2.788   2.126 -0.0012  0.0973  0.1296
27621W        W44469  16.368   6.026   3.874 -0.0973  0.1276  0.1366
27622W        W44470  14.717  14.112   1.576  0.0066 -0.0164  0.2644
27623W        W44471  16.632  14.758  15.600  0.1786 -0.0220 -0.0889
27624W        W44472  10.261  13.353   2.418  0.0617 -0.1330  0.0515
27625W        W44473  11.394   7.340   2.703 -0.4750  0.0202  0.1147
27626W        W44474   1.222  16.556   1.071  0.1601  0.0406  0.3652
27627W        W44475   3.647  13.232   3.305  0.2476 -0.2109 -0.0141
27628W        W44476  15.839  13.025   4.914  0.0244  0.0228  0.4508
27629W        W44477   6.054   4.666  16.824  0.0630  0.0001  0.0953
27630W        W44478   5.729   1.995  12.197  0.1336  0.1218  0.0819
27631W        W44479  10.155   7.546  11.431 -0.2509  0.0691  0.2478
27632W        W44480   5.296  13.857  15.795 -0.0190  0.3005 -0.3509
27633W        W44481   1.817   6.103  16.045 -0.2411 -0.1429 -0.2096
27634W        W44482   9.935   0.182   4.176 -0.2524 -0.1787  0.2368
27635W        W44483   6.147  10.871   0.358 -0.2835 -0.0544  0.0005
27636W        W44484   5.889   6.988   5.444 -0.0561 -0.0427  0.0528
27637W        W44485   1.506  14.257  17.223  0.0322  0.0395  0.0798
27638W        W44486   6.400   9.263   4.763 -0.0235 -0.1780  0.0011
27639W        W44487  10.508  16.226  11.225 -0.1309 -0.2966 -0.3784
27640W        W44488   2.525  10.476  13.583 -0.0023  0.1741 -0.1451
27641W        W44489   8.167  10.427  12.902  0.2757 -0.0406 -0.1801
27642W        W44490   0.405  13.058   1.108 -0.1241 -0.0221 -0.0897
27643W        W44491   3.057   2.054   2.570 -0.1109  0.2255  0.0427
27644W        W44492   3.763  13.459  16.143  0.1187  0.1980  0.2140
27645W        W44493  13.370  12.163   2.733  0.2330 -0.0271 -0.2318
27646W        W44494  13.524   0.962  15.758 -0.2450 -0.1487  0.1922
27647W        W44495   7.906   6.889  15.299  0.1175 -0.0301 -0.1626
27648W        W44496   9.337  12.496  16.366  0.0992  0.1852 -0.1001
27649W        W44497  15.309   1.430  13.544 -0.3917 -0.1337  0.2073
27650W        W44498  12.719  12.475   4.888  0.0889  0.1893  0.1564
27651W        W44499   5.437   2.394   1.283  0.0135  0.1359 -0.0877
27652W        W44500  11.025  10.797  15.983  0.0029  0.0816  0.0055
27653W        W44501   0.940   8.367  16.799  0.1921 -0.0432 -0.2378
27654W        W44502  15.929   4.634   5.001 -0.2195 -0.1567  0.2185
27655W        W44503  10.779  12.181  16.065 -0.1624  0.1752  0.2836
27656W        W44504  15.611  10.870   1.070  0.0328  0.1213  0.1052
27657W        W44505   1.061  12.868   2.346  0.2230  0.2437  0.1224
27658W        W44506   7.953   7.604  12.896  0.1203 -0.0239 -0.0730
27659W        W44507  10.006   5.595  14.264 -0.1643 -0.0229  0.0658
27660W        W44508   7.489  14.377  13.062 -0.1572 -0.2766  0.0467
27661W        W44509   0.092   8.663  14.905 -0.1507  0.1146 -0.1054
27662W        W44510  15.288  11.956  14.109  0.1364  0.2179 -0.2400
27663W        W44511   6.736   7.798   4.069 -0.0655 -0.0703  0.0458
27664W        W44512   1.726  12.491   4.829 -0.3046 -0.3663 -0.0563
27665W        W44513   6.663   9.024   0.540  0.1088 -0.1327  0.3349
27666W        W44514   2.668   8.883   2.336  0.1685 -0.0278  0.4958
27667W        W44515   4.591  14.500   0.972 -0.3111 -0.1109  0.1615
27668W        W44516  10.054  15.601   3.677  0.1101 -0.0338  0.1950
27669W        W44517   0.921  13.528   7.159  0.3762  0.0343  0.1002
27670W        W44518  12.698   8.171   1.671  0.1012 -0.1081  0.2322
27671W        W44519   2.700  16.813  14.360 -0.2494 -0.1311 -0.0773
27672W        W44520   6.049   9.996   3.290 -0.0519 -0.0735 -0.1342
27673W        W44521   0.067  11.647  16.169 -0.2361 -0.0228  0.0854
27674W        W44522  14.794   1.045   1.457  0.0958  0.1900  0.2285
27675W        W44523   0.622   0.407  12.924 -0.2477  0.1837 -0.0544
27676W        W44524  16.808  15.373   6.176  0.1773  0.0663  0.0430
27677W        W44525  12.783  11.539  14.850 -0.0725  0.1288  0.2317
27678W        W44526   9.382   0.997  14.279 -0.1309 -0.1758  0.0116
27679W        W44527  11.059  11.219   3.861  0.0457  0.0124 -0.1950
27680W        W44528  17.102   4.519  12.039 -0.0535  0.1457  0.3002
27681W        W44529  11.825  15.066  17.023 -0.0919  0.0135  0.2142
27682W        W44530  13.477   6.591  14.843  0.0158  0.2594  0.2077
27683W        W44531  12.377  10.102  17.150  0.1230 -0.0676 -0.1279
27684W        W44532   4.873   0.851   4.310 -0.1112 -0.2788  0.2773
27685W        W44533  10.268   3.301   1.395 -0.1393  0.4953 -0.2506
27686W        W44534   1.570  13.904   3.927  0.1609  0.1142 -0.1612
27687W        W44535  13.942  16.317  17.365 -0.1481 -0.0843 -0.4358
27688W        W44536  11.308   0.220  14.466  0.1225 -0.3380  0.4480
27689W        W44537  13.439  14.892   0.984  0.1885  0.0861 -0.0565
27690W        W44538  10.896  12.833  15.245 -0.0227  0.0944 -0.4835
27691W        W44539   1.645   8.899  16.246  0.0375  0.1456 -0.3257
27692W        W44540   3.541   4.602  17.172  0.0101  0.0593  0.1556
27693W        W44541   2.262  14.362   1.227 -0.1260  0.1405 -0.0691
27694W        W44542   5.690  10.436  14.664  0.0115 -0.2057 -0.0770
27695W        W44543  14.575  11.904  17.265 -0.1311 -0.1371  0.0404
27696W        W44544  15.074   5.409  15.351  0.0317 -0.1198  0.0340
27697W        W44545  11.438  15.623   3.099  0.2039 -0.0695 -0.1052
27698W        W44546  10.037  16.432   0.971  0.1585  0.1107  0.0821
27699W        W44547   2.932   6.313   1.574 -0.1501  0.3808  0.2260
27700W        W44548   0.280  12.083  14.594 -0.0867  0.1940  0.0059
27701W        W44549  12.924  13.693  14.519 -0.0923 -0.1660  0.0071
27702W        W44550  16.283   7.823  16.390  0.0474  0.1408  0.1243
27703W        W44551   3.208   0.353  17.572  0.1322  0.5541 -0.2205
27704W        W44552   3.332   5.606   4.335  0.2616 -0.1733 -0.0675
27705W        W44553  11.091   6.851   2.630  0.2037 -0.0748 -0.1009
27706W        W44554  11.744  15.001   2.437  0.3626 -0.1922  0.2520
27707W        W44555  13.828   8.535   5.151  0.0588  0.3867  0.0213
27708W        W44556   1.505  11.008   4.890  0.1991 -0.0720  0.0181
27709W        W44557  11.463  11.177   4.992 -0.3232  0.2417 -0.2376
27710W        W44558  12.546   2.790   4.812 -0.2214  0.1293 -0.3199
27711W        W44559  12.782  13.438   4.346  0.0484  0.0725 -0.1450
27712W        W44560  11.710  15.364   4.674  0.2170  0.0413  0.0097
27713W        W44561  10.213   6.039  14.196  0.1003  0.3603  0.1262
27714W        W44562  17.140   5.664   3.445 -0.0963 -0.0879  0.2450
27715W        W44563   4.388   8.472  17.223 -0.0242 -0.3226  0.0611
27716W        W44564   2.777   5.278  14.385 -0.2920 -0.0690  0.2030
27717W        W44565   5.005   8.837   2.952 -0.0879 -0.0879 -0.2158
27718W        W44566  11.885   5.772  16.622 -0.4065 -0.1879 -0.2780
27719W        W44567   0.833   5.553   3.291  0.1542 -0.0505 -0.1756
27720W        W44568   1.470  14.361   3.099  0.2420 -0.1897 -0.4135
27721W        W44569   0.976  12.982   5.435 -0.2763  0.2173 -0.0433
27722W        W44570   1.695  10.829   3.692 -0.0856 -0.2492  0.1664
27723W        W44571  14.695   4.904  16.474  0.1177 -0.0183 -0.1707
27724W        W44572  13.122   9.616   4.475 -0.1957 -0.1818  0.1267
27725W        W44573   2.807   0.456  13.641 -0.2465  0.0732  0.3678
27726W        W44574   9.626  13.923   1.968 -0.3017  0.0165  0.0744
27727W        W44575  15.375  16.188  14.668 -0.2277 -0.1352  0.1348
27728W        W44576   9.822  10.743  12.131  0.5068  0.2069 -0.1896
27729W        W44577  13.745  15.457   1.595  0.0663 -0.0019  0.0414
27730W        W44578   1.407   1.021  12.840 -0.0139 -0.3762  0.0911
27731W        W44579  10.136   4.383   1.479  0.1098  0.1049 -0.2422
27732W        W44580  10.866  11.091   4.875  0.0441 -0.1279 -0.0306
27733W        W44581   8.176   8.372  15.008 -0.2453  0.0298  0.2154
27734W        W44582  12.323   4.187  17.279 -0.1695  0.1493  0.0902
27735W        W44583   1.153   4.780  17.675 -0.1094  0.3290  0.1642
27736W        W44584  16.752  14.890   0.071  0.0709 -0.0319 -0.1240
27737W        W44585  12.704   0.058   4.634 -0.2944 -0.0701 -0.0020
27738W        W44586  15.081   8.680  15.279  0.3815  0.0925  0.0311
27739W        W44587   4.987  14.125  16.533  0.0000 -0.2886 -0.0027
27740W        W44588   4.321  15.589  15.388 -0.1877  0.0463 -0.0043
27741W        W44589   0.439   9.277   3.583 -0.2335 -0.0458 -0.0196
27742W        W44590  10.406   9.078   2.555 -0.1571 -0.3571  0.0833
27743W        W44591   2.951   6.151   0.651 -0.0824 -0.2335 -0.1525
27744W        W44592  13.748  15.655  15.080  0.1486 -0.0472 -0.1075
27745W        W44593   3.183  11.868  17.033  0.2224  0.0156  0.0312
27746W        W44594   5.961  15.886  15.958 -0.0379  0.0535 -0.4272
27747W        W44595  11.097  14.242  14.247 -0.2642  0.2791 -0.1996
27748W        W44596   3.251  11.112  13.822  0.3190  0.1035  0.0976
27749W        W44597   1.932   7.653  16.028  0.3566  0.3596  0.1778
27750W        W44598   8.344   8.134  14.534 -0.1513  0.3645  0.0379
27751W        W44599  15.166  12.358   3.254 -0.1265  0.2117 -0.0117
27752W        W44600   8.681   9.407  16.843  0.0931 -0.1789  0.0278
27753W        W44601  10.547   4.609  13.160  0.1502  0.0425  0.0240
27754W        W44602   0.243   3.013   2.616 -0.0356 -0.1962  0.0611
27755W        W44603   6.311  16.789  13.759  0.0707 -0.0138  0.1673
27756W        W44604  10.886  10.353  15.684  0.1899 -0.0589  0.3018
27757W        W44605  12.349   4.779  12.832  0.1083  0.0051 -0.2524
27758W        W44606  14.740   2.041   1.556  0.1589  0.1833 -0.3816
27759W        W44607   9.658   8.739  11.633  0.0874  0.2965  0.4572
27760W        W44608  11.283   6.498   5.911  0.0554  0.1760 -0.0560
27761W        W44609   3.716  15.466  15.578  0.2597  0.2791 -0.0355
27762W        W44610  12.070   9.304  13.465  0.1936 -0.0946  0.1249
27763W        W44611   2.646  17.086   3.492  0.0628  0.3411 -0.3302
27764W        W44612   8.069   7.262  15.655 -0.1560 -0.3110 -0.1888
27765W        W44613  10.289   5.728  14.661 -0.2395 -0.0121  0.3742
27766W        W44614  13.285  14.885  14.885 -0.2419 -0.0912  0.0812
27767W        W44615   4.137   6.662   3.869  0.0778 -0.2194 -0.1821
27768W        W44616   2.105  12.797  17.559  0.2130  0.2085  0.1520
27769W        W44617   9.803   0.598   5.621  0.1380  0.3015 -0.0393
27770W        W44618   2.606   7.205  17.301  0.1067  0.0693  0.2824
27771W        W44619  11.883  12.367  13.808 -0.0498 -0.0360 -0.2325
27772W        W44620   5.026  12.277   4.252  0.2221 -0.0710  0.1068
27773W        W44621  16.986   2.943   2.879  0.0925  0.1485 -0.1221
27774W        W44622   9.853  15.488  12.807  0.2752  0.1333  0.2363
27775W        W44623  14.321   6.809   2.948  0.0599 -0.0635  0.0600
27776W        W44624   1.307  11.902  16.855  0.1696  0.0090  0.2411
27777W        W44625   8.258  16.656  16.171  0.0344 -0.2634 -0.3423
27778W        W44626   6.825   1.715   5.316  0.4336 -0.0658 -0.1077
27779W        W44627   5.057  14.997   2.792 -0.0510 -0.0099  0.2412
27780W        W44628   3.378   3.974   5.649  0.1561 -0.1459 -0.1605
27781W        W44629   2.968   3.032   0.852 -0.0535  0.0480 -0.1515
27782W        W44630  10.871   6.330   1.082 -0.0355 -0.0163 -0.0943
27783W        W44631   5.827   5.131   3.544 -0.1323 -0.2411 -0.1763
27784W        W44632   1.263  11.791   5.959 -0.1827  0.0676  0.0040
27785W        W44633   7.360   9.109  14.168  0.2679  0.2079  0.3110
27786W        W44634  13.214  13.059   4.450 -0.0436  0.4525  0.0571
27787W        W44635   2.445  13.388   0.563  0.1223 -0.0968  0.2054
27788W        W44636  17.053   4.929   0.422 -0.0539 -0.1330  0.0937
27789W        W44637   4.025   4.312   1.062 -0.0017 -0.1925  0.2928
27790W        W44638  16.964   3.792  13.462 -0.0115  0.0395 -0.0300
27791W        W44639   3.530  15.025  17.456  0.1169  0.2456 -0.3035
27792W        W44640   2.051  11.921  12.601  0.1613  0.2571  0.2576
27793W        W44641   5.513   3.247   1.582 -0.1181 -0.0154 -0.0271
27794W        W44642   5.398   0.483  13.945  0.0109  0.0626 -0.0008
27795W        W44643   6.386   2.406   3.836  0.0231  0.0017  0.0163
27796W        W44644  15.861   7.878   0.315  0.0158  0.3267  0.1161
27797W        W44645   1.474  12.611  13.894  0.2904  0.1404  0.0159
27798W        W44646   5.841   8.891  16.386  0.1684  0.0471  0.2505
27799W        W44647   4.077   4.434  16.929 -0.2295 -0.3317  0.1376
27800W        W44648   7.246  15.122   0.241  0.3009 -0.0378  0.1227
27801W        W44649  13.505   8.945  15.436  0.2991 -0.2356 -0.0400
27802W        W44650  10.260   6.254   0.762 -0.1092 -0.0110 -0.2600
27803W        W44651   8.172   6.129   2.142  0.0173  0.1099 -0.1115
27804W        W44652   9.461   3.790   5.116 -0.2380  0.0176 -0.0866
27805W        W44653   1.275  14.026  17.691 -0.1154  0.0985  0.1310
27806W        W44654   2.133   2.434  12.387 -0.1640  0.0968  0.1430
27807W        W44655  11.373   5.743  17.259  0.2461  0.1461  0.0960
27808W        W44656   5.681  13.617  16.070  0.0489 -0.3065  0.0614
27809W        W44657  15.765   1.747  12.382 -0.1116 -0.1236 -0.2800
27810W        W44658   8.414   8.229   0.415  0.0626  0.2167  0.0480
27811W        W44659   1.830   8.772  16.743  0.2736 -0.3002  0.0199
27812W        W44660  11.283   6.467  12.616  0.2305 -0.1639 -0.1876
27813W        W44661  15.214   1.080  12.785 -0.4544 -0.0610 -0.2415
27814W        W44662  11.151  12.013   3.369  0.0502 -0.0244 -0.0680
27815W        W44663   6.900  16.547   5.436  0.0068 -0.1531  0.2614
27816W        W44664   3.732  11.988   0.899 -0.0729 -0.1062 -0.1326
27817W        W44665   6.637   5.636   1.576  0.1035  0.0705 -0.0332
27818W        W44666   8.610  11.497  15.797  0.1339  0.1334  0.0727
27819W        W44667   1.925  14.040   1.311  0.0829  0.0697 -0.2540
27820W        W44668   7.326   4.972  17.160  0.1690  0.0720 -0.1334
27821W        W44669  13.665   2.745  13.944 -0.0058 -0.1460  0.0075
27822W        W44670  15.280   2.561   0.607  0.0795 -0.0436 -0.1661
27823W        W44671   1.990  17.102   2.481  0.1103 -0.0173 -0.1847
27824W        W44672  13.366   3.119   5.055 -0.0387  0.3221  0.2844
27825W        W44673   4.817   7.055  17.480 -0.3212  0.2368 -0.0190
27826W        W44674   9.937  12.196   4.552  0.0555 -0.3118  0.2537
27827W        W44675   3.289   5.439   2.316  0.0509  0.2657 -0.0453
27828W        W44676   7.010   7.619  14.189 -0.2363 -0.1384 -0.2063
27829W        W44677  10.002  14.391  11.834  0.1721  0.0252  0.0032
27830W        W44678  16.912   4.279   0.031 -0.0660  0.3244  0.0758
27831W        W44679  13.385  12.423   1.706  0.0624  0.1818  0.1822
27832W        W44680   5.068  10.012   0.808 -0.0602 -0.0551  0.0734
27833W        W44681  16.746   1.012   2.558 -0.0274 -0.0614  0.1497
27834W        W44682  15.745  15.544   5.428  0.0293  0.0191 -0.0748
27835W        W44683  10.125   1.155  17.412 -0.2455 -0.5981  0.4092
27836W        W44684   2.139  15.288   1.745 -0.0399  0.0936 -0.1769
27837W        W44685  10.002  13.562   4.046  0.1648  0.2311 -0.3117
27838W        W44686   3.346  15.902   2.360 -0.2277  0.0342  0.0993
27839W        W44687  14.231   6.194  16.236 -0.1736  0.1326  0.0343
27840W        W44688   9.173  11.462   3.360  0.0828 -0.2678  0.1229
27841W        W44689   9.804   2.585  17.631 -0.0741  0.0862  0.2775
27842W        W44690   1.835  10.828  11.882  0.0716  0.0585 -0.0372
27843W        W44691   8.578   1.262  16.456 -0.0900 -0.1166 -0.4007
27844W        W44692   7.454   4.309  14.192  0.3444  0.0565  0.2543
27845W        W44693   3.814   4.305  12.935 -0.1056  0.3661  0.0616
27846W        W44694   0.046  10.122   0.340  0.0013  0.0055  0.1861
27847W        W44695  11.762   0.565  17.711 -0.2047 -0.2252  0.1758
27848W        W44696   6.543  12.192   5.178 -0.0668  0.2881 -0.1891
27849W        W44697  14.041   0.203   4.944 -0.0803 -0.0772  0.1148
27850W        W44698   9.676   6.832  14.315  0.0012 -0.3061 -0.2277
27851W        W44699   9.226   5.524  17.202 -0.2460 -0.2352  0.3111
27852W        W44700  16.372  14.911   4.400 -0.1087 -0.1009 -0.2183
27853W        W44701  14.619  10.318   2.794  0.0272  0.0678 -0.0601
27854W        W44702   5.097  16.165  14.996  0.3205 -0.0223 -0.0475
27855W        W44703   7.687   1.347   1.621  0.0992 -0.2564 -0.1061
27856W        W44704   6.971  16.830   2.625  0.1810  0.1206 -0.2949
27857W        W44705   0.481   0.610   6.162  0.1081  0.5665 -0.4210
27858W        W44706   8.469   8.139  17.701  0.3319  0.1462 -0.1469
27859W        W44707   2.464   6.012  15.524  0.0076  0.1606 -0.1420
27860W        W44708  17.156  13.814  16.557  0.1559  0.1559 -0.0856
27861W        W44709   3.508   5.241   4.099  0.0015  0.1209  0.0151
27862W        W44710  12.761  11.482   4.626 -0.2769 -0.1363  0.0146
27863W        W44711   3.434   3.648  15.556 -0.1066  0.2466 -0.2126
27864W        W44712   9.695  14.520   4.835  0.2511 -0.3509  0.3237
27865W        W44713   2.453  14.864  12.882  0.3268 -0.0959  0.0115
27866W        W44714   2.149   3.398   2.771  0.0832 -0.0444  0.1122
27867W        W44715  14.763  11.197  14.847  0.2504  0.3395 -0.1730
27868W        W44716   0.653   1.765  13.236  0.3070 -0.0864 -0.1074
27869W        W44717  10.979   6.960   4.229  0.0057 -0.4010 -0.0590
27870W        W44718  15.565   5.355  14.576 -0.1003  0.2234 -0.1944
27871W        W44719   8.386   8.637   0.114 -0.1309 -0.1443  0.0919
27872W        W44720   2.635  14.424   4.204 -0.0148 -0.0112 -0.0805
27873W        W44721   3.269   1.792   1.168 -0.1170 -0.0789 -0.0455
27874W        W44722   6.395   8.368   4.073  0.1434 -0.1705  0.0342
27875W        W44723   1.880   6.961  13.539  0.2198 -0.1720 -0.0036
27876W        W44724   4.933  13.873   2.129 -0.0315 -0.3057 -0.0698
27877W        W44725   4.566  11.833  15.555  0.4365  0.1029  0.3114
27878W        W44726   0.508  13.295   1.569 -0.0746 -0.2803 -0.0936
27879W        W44727   9.009   9.464   5.501 -0.0643  0.4291  0.3092
27880W        W44728  15.354  16.316   3.951  0.0862  0.0898  0.2222
27881W        W44729  11.805   4.863  14.099 -0.2203  0.1248  0.4801
27882W        W44730  15.829  16.861   0.010  0.0480 -0.0777 -0.3692
27883W        W44731  12.422   8.250  12.248 -0.3531 -0.0326  0.0892
27884W        W44732  11.748  14.370   0.093  0.3250  0.1659  0.1806
27885W        W44733   1.697   0.697  14.187 -0.1244  0.0273 -0.2524
27886W        W44734  14.657  15.255   3.591  0.3264  0.2252 -0.4070
27887W        W44735  13.857   5.332   4.090 -0.0869 -0.3464 -0.1507
27888W        W44736  16.190   2.278   2.230 -0.2009 -0.0156  0.4786
27889W        W44737   3.797   4.301   0.157 -0.0530 -0.1669 -0.2587
27890W        W44738   2.293  16.819   1.857  0.1207 -0.0245 -0.0292
27891W        W44739  14.444   9.015  12.208  0.1413  0.3105 -0.2161
27892W        W44740  11.844   2.469  12.744 -0.4054 -0.0275 -0.0560
27893W        W44741  10.349   3.706   4.899 -0.1186  0.3200 -0.0156
27894W        W44742   0.871   7.342   1.856 -0.0818 -0.2932 -0.0471
27895W        W44743   1.864   7.197  13.098  0.1616 -0.1202 -0.1246
27896W        W44744  16.658  13.628   5.262  0.2933 -0.0530 -0.4397
27897W        W44745  14.109   5.999  13.468 -0.0625  0.0036 -0.0821
27898W        W44746  16.973   3.188  12.559  0.1698  0.1328  0.2846
27899W        W44747  15.246   2.930   4.871 -0.1732  0.1073  0.2191
27900W        W44748   6.573   0.329  14.189  0.2249 -0.1780 -0.2068
27901W        W44749  16.567  11.502  13.959 -0.1475 -0.0715 -0.1099
27902W        W44750   2.521  10.242  16.403 -0.1619 -0.1375 -0.2129
27903W        W44751   5.276   5.899   3.617 -0.0473 -0.0350 -0.1176
27904W        W44752   9.070   7.875   1.952  0.0217 -0.2004  0.0221
27905W        W44753  12.588  11.558   1.130  0.0961  0.1109  0.3036
27906W        W44754   8.387   2.492  17.141 -0.2536 -0.2862  0.7785
27907W        W44755   4.108   9.232  13.048 -0.0531  0.1549 -0.1026
27908W        W44756  11.604  12.889  16.928  0.1097  0.1091  0.0887
27909W        W44757  14.801   6.809  15.281  0.2673  0.1712 -0.2486
27910W        W44758   0.933  16.570  17.615 -0.1613 -0.0270 -0.0199
27911W        W44759   0.263   3.888   1.193 -0.3274 -0.0583 -0.3385
27912W        W44760  16.105  13.362  17.165  0.0960  0.1367  0.0430
27913W        W44761   9.972   7.011   3.519  0.2507 -0.5338 -0.0080
27914W        W44762   0.914  15.948  15.363  0.1442 -0.0342  0.0398
27915W        W44763   6.787   3.657  17.772  0.0391  0.1425  0.0256
27916W        W44764  14.845   7.519   3.639 -0.1973  0.0768 -0.1987
27917W        W44765  11.761   2.729   2.118 -0.1138  0.3441 -0.1013
27918W        W44766   2.878   9.985   3.893  0.0345  0.1382  0.1447
27919W        W44767  15.415   2.631  15.787  0.2359  0.3465 -0.1945
27920W        W44768   4.535  13.479  14.731 -0.0549  0.1585  0.0092
27921W        W44769   9.459   2.441   4.591  0.0965 -0.1218 -0.2266
27922W        W44770  12.776   1.717  15.542 -0.2965  0.0607 -0.0536
27923W        W44771   9.843  12.608  12.054  0.1346  0.0639 -0.0073
27924W        W44772  17.141   0.685  14.592 -0.0487  0.1397 -0.0407
27925W        W44773  16.064   4.352   3.854 -0.3533  0.3569  0.1710
27926W        W44774  16.223   4.384  13.731 -0.0337 -0.1845  0.2123
27927W        W44775  15.498  16.466  14.114  0.1144 -0.1499 -0.3456
27928W        W44776   1.624  16.591  12.160 -0.0646  0.1125  0.6284
27929W        W44777  11.922   2.231  16.142  0.0755  0.0674  0.0177
27930W        W44778  16.443   3.891  15.024  0.0413  0.0556  0.1801
27931W        W44779  11.660   9.815   3.899 -0.1387  0.3834  0.3948
27932W        W44780   2.334  10.751   4.882 -0.1164 -0.0040 -0.2156
27933W        W44781  14.986   0.080  14.078  0.2234  0.2026  0.0102
27934W        W44782   8.490  13.438   3.310 -0.1008  0.1713  0.0755
27935W        W44783   8.846   6.787   0.805 -0.2246  0.0254  0.2290
27936W        W44784  12.184   1.479  12.623 -0.0570  0.2568 -0.0316
27937W        W44785   1.253   3.588  16.990 -0.2093 -0.1373 -0.1035
27938W        W44786  10.453  12.670  13.363 -0.0710  0.1048  0.1440
27939W        W44787  13.365   1.838   3.399 -0.4128  0.1184  0.2195
27940W        W44788   9.135  10.096  14.951  0.2066 -0.1400 -0.1019
27941W        W44789   6.982   3.648   0.665 -0.1700  0.2669 -0.0867
27942W        W44790   0.800   5.385  13.163 -0.2505 -0.0879 -0.0462
27943W        W44791   6.439   0.377   1.722 -0.1795 -0.0701  0.0557
27944W        W44792   1.499   8.834   0.561 -0.1519  0.0590  0.1777
27945W        W44793   6.538   3.032  17.409  0.1090  0.1504 -0.0383
27946W        W44794   9.325   5.622   3.523  0.0019  0.1944 -0.3122
27947W        W44795   9.040  14.784  15.879  0.0011 -0.2100  0.1878
27948W        W44796  15.856  10.846  13.765  0.0043 -0.0772  0.0279
27949W        W44797   9.501   1.258   1.733 -0.1066  0.4038 -0.0455
27950W        W44798  13.589  15.901  15.561 -0.1822 -0.3885  0.1810
27951W        W44799  16.326   0.223  17.706 -0.0301 -0.0231  0.3297
27952W        W44800   3.989   4.830  17.251 -0.1237  0.0701 -0.1411
27953W        W44801   3.090   0.330   3.994 -0.0656  0.3425 -0.0934
27954W        W44802  12.749  14.637  17.153  0.0525  0.0571  0.2018
27955W        W44803  10.285   5.953   2.633 -0.0805 -0.1894 -0.2837
27956W        W44804   2.701  14.968  15.520  0.1194 -0.2343  0.0274
27957W        W44805  13.774   3.053  17.153 -0.0003  0.0014  0.1862
27958W        W44806   8.000  15.107   3.509 -0.1703 -0.2583  0.1671
27959W        W44807  12.089   0.045  15.384 -0.1361 -0.3301  0.2106
27960W        W44808   3.473   2.448  14.710  0.0478  0.1190  0.0623
27961W        W44809   3.867   5.102  14.168  0.0212  0.3133 -0.1320
27962W        W44810  10.744   3.530   5.531 -0.0982  0.0739 -0.0081
27963W        W44811  11.639  15.731   2.416 -0.0741 -0.0087  0.0678
27964W        W44812   2.507   9.867   4.836 -0.2838 -0.2295  0.2097
27965W        W44813  11.470  11.414  13.452  0.0580 -0.0556  0.1077
27966W        W44814  16.394  12.527   2.827  0.0702 -0.1194  0.0861
27967W        W44815  12.567   7.077  12.896  0.1274  0.0606 -0.0893
27968W        W44816   6.721   3.726  11.963 -0.0766  0.0551  0.1264
27969W        W44817  13.859  13.679   1.003 -0.1839  0.0323 -0.1973
27970W        W44818   8.994   1.572  16.566  0.3953 -0.1125 -0.0001
27971W        W44819   0.056  15.305   5.429 -0.1277 -0.0460  0.1481
27972W        W44820   2.252  12.965   2.034 -0.1422  0.0106 -0.0141
27973W        W44821   2.588   3.140   2.633  0.1316  0.1793  0.1149
27974W        W44822   2.226   2.897   1.560  0.1642  0.1696 -0.1948
27975W        W44823  14.020   1.077   1.565  0.0318 -0.0009  0.1837
27976W        W44824   2.565   3.272   1.992  0.3322 -0.3168  0.2133
27977W        W44825   7.296   1.799   2.912 -0.0655  0.1742  0.0979
27978W        W44826  15.010  11.875   1.511  0.0956  0.0875  0.2371
27979W        W44827   0.130   4.427   2.511 -0.0361 -0.0352  0.1951
27980W        W44828   5.122  11.060  16.923 -0.0021 -0.2792 -0.2502
27981W        W44829  15.546   2.586   1.075 -0.1563 -0.3891 -0.2009
27982W        W44830  11.200   5.246  14.717 -0.2674 -0.0964 -0.1507
27983W        W44831  10.183   2.108  13.082 -0.0039  0.2027 -0.3230
27984W        W44832  13.107   1.378  15.919  0.2584  0.1396 -0.1188
27985W        W44833  11.254   1.276  16.678 -0.0469  0.1468 -0.0030
27986W        W44834   0.403  13.772  16.873 -0.0061 -0.2567  0.0361
27987W        W44835   9.204  14.926   3.835  0.1771  0.4172 -0.1956
27988W        W44836   2.110  12.131   3.101 -0.2214 -0.1755  0.1458
27989W        W44837   9.780  16.711   1.786  0.1690 -0.1737 -0.0639
27990W        W44838  12.918  15.279  14.897 -0.1350 -0.1246 -0.2456
27991W        W44839  14.290   3.201  16.269  0.0118 -0.0327  0.0844
27992W        W44840   4.706  13.096  16.627 -0.0794  0.0067 -0.2008
27993W        W44841   6.169   9.653   5.125 -0.0039  0.0098  0.1742
27994W        W44842  14.001   7.842   2.283  0.1716 -0.1095  0.1634
27995W        W44843   8.179   2.159  12.721  0.2365 -0.0200 -0.2619
27996W        W44844  16.793   6.779  14.606  0.2476 -0.1022 -0.1959
27997W        W44845   3.679   5.790   4.065  0.0143  0.2424  0.1214
27998W        W44846   7.339   7.273  14.855 -0.0557  0.3548 -0.1083
27999W        W44847  12.121   3.571   2.546  0.3712  0.0751 -0.5066
28000W        W44848   3.833   1.009   0.871 -0.0210 -0.0381  0.0325
28001W        W44849  15.690  15.124   2.367 -0.1702  0.0144  0.1757
28002W        W44850   2.662  15.570  15.601  0.1149  0.1096 -0.0174
28003W        W44851  11.441  12.187   4.970 -0.3303  0.0706  0.3237
28004W        W44852   3.588   8.779   4.590 -0.0998  0.0051 -0.0738
28005W        W44853  12.913   7.308   4.512  0.2159 -0.0242  0.2184
28006W        W44854   9.075   3.926  13.762  0.2980  0.2514 -0.2323
28007W        W44855   5.144   4.704   3.585 -0.1525  0.3393 -0.1202
28008W        W44856   0.418   4.084  13.559 -0.1197  0.0106  0.0144
28009W        W44857   7.321   2.732  14.150 -0.1141  0.0652  0.2213
28010W        W44858   3.620   5.635  17.502  0.2079 -0.1723  0.2903
28011W        W44859   2.260  12.620   4.495  0.0484 -0.1259 -0.2273
28012W        W44860  16.840   3.369  11.182 -0.1412 -0.4459  0.1058
28013W        W44861   4.700  10.531   4.699 -0.0651 -0.0425  0.2789
28014W        W44862  14.448   6.288   1.334  0.0266 -0.0352 -0.0458
28015W        W44863   7.932  12.846   4.613 -0.1324 -0.0078  0.2377
28016W        W44864   8.679  13.034   4.813 -0.0538 -0.1377  0.2806
28017W        W44865   4.575  10.794   0.753 -0.1232  0.1652  0.1491
28018W        W44866   7.618   6.649  14.039  0.3536 -0.2394 -0.0898
28019W        W44867   8.239  13.939  12.538 -0.2212 -0.2554 -0.3324
28020W        W44868  11.930   5.364  14.269  0.0948 -0.1226  0.1006
28021W        W44869  10.142  15.597   3.108  0.2640  0.1069  0.0195
28022W        W44870  13.070  11.015   4.646 -0.0208 -0.1629 -0.0979
28023W        W44871   1.107   8.886   4.748 -0.3339 -0.3682  0.0846
28024W        W44872   6.378  10.081  12.965 -0.1564 -0.3032 -0.2871
28025W        W44873   8.723   0.370  13.608 -0.1322 -0.0958  0.4755
28026W        W44874   2.813   8.208   4.848  0.0127 -0.2270  0.0150
28027W        W44875   6.950  16.835  12.873  0.1654  0.1403  0.0796
28028W        W44876  12.529   1.566  15.091  0.0814  0.1299  0.0023
28029W        W44877   3.601   1.994   0.809  0.2166 -0.3587 -0.0075
28030W        W44878  12.200   7.232  15.692 -0.0344 -0.0041  0.0231
28031W        W44879  15.226  15.496   6.734 -0.1258  0.0210  0.0357
28032W        W44880  13.904   2.044   4.044 -0.0580 -0.0694  0.0773
28033W        W44881   7.415   5.909   2.677  0.1277 -0.2610 -0.0858
28034W        W44882  14.276  16.829   5.134 -0.4312 -0.2564  0.3816
28035W        W44883   1.618  11.954   5.621  0.2374 -0.1061 -0.1444
28036W        W44884   5.252  12.057   5.067  0.1302 -0.0079 -0.0496
28037W        W44885  16.080   4.822  16.252 -0.1925  0.0607  0.1857
28038W        W44886  11.057   9.349   4.211 -0.0024  0.2026 -0.1148
28039W        W44887   2.049   7.739   6.866  0.1209  0.0885  0.1213
28040W        W44888  13.248  10.947  13.774 -0.1133  0.2392  0.2352
28041W        W44889  12.680   1.100   5.568  0.0470 -0.0759 -0.1964
28042W        W44890   1.689   0.945   4.413  0.1118 -0.0753 -0.3111
28043W        W44891  15.910  15.028  14.038  0.2529  0.0536 -0.1978
28044W        W44892  13.396   1.701   5.372  0.1019  0.0196  0.2519
28045W        W44893  16.631  11.308  14.510  0.1526 -0.0980  0.2010
28046W        W44894   4.127  11.435   4.572 -0.0018  0.0354  0.0260
28047W        W44895  11.542   3.323  14.284 -0.0186 -0.0202  0.2003
28048W        W44896   7.679   3.023  16.848 -0.4219  0.0995 -0.1582
28049W        W44897  12.894   2.936  14.758  0.1707 -0.0665 -0.1835
28050W        W44898   4.268   6.495  15.113  0.0645 -0.1411  0.2367
28051W        W44899   4.204  15.436  12.967 -0.1371  0.2224  0.0106
28052W        W44900   3.743  12.903   1.102 -0.1089 -0.2353  0.0188
28053W        W44901   9.028   2.320  12.182  0.2839  0.1914 -0.1306
28054W        W44902   6.427   3.644   3.431  0.0501  0.0464 -0.1880
28055W        W44903  16.165  11.554   2.095 -0.0740  0.0268  0.0259
28056W        W44904  12.248   3.300  12.242 -0.0250 -0.0973  0.0328
28057W        W44905   8.479   5.143   4.825  0.2832 -0.1920 -0.2725
28058W        W44906   5.226   0.733  16.079  0.2681 -0.1970 -0.0718
28059W        W44907   6.859  15.132  13.355  0.0780  0.1085  0.1183
28060W        W44908   4.705   2.628  12.074 -0.1535  0.2324 -0.3041
28061W        W44909   2.189  16.023  14.887  0.3175 -0.2325  0.0908
28062W        W44910  15.999   6.094  14.305  0.0250 -0.0851  0.0317
28063W        W44911   8.853  15.792   0.131 -0.1676  0.0261 -0.0768
28064W        W44912   5.148   9.672   2.483  0.0316  0.1997  0.0793
28065W        W44913  11.472  14.360   2.447  0.5927  0.2015 -0.1226
28066W        W44914  13.740   2.206   0.231 -0.2786  0.2364  0.0755
28067W        W44915   5.365  13.774   3.934 -0.0116 -0.0662  0.0136
28068W        W44916   7.076  16.282   3.591 -0.4729 -0.1018  0.0608
28069W        W44917   0.025  10.987  13.898 -0.0586  0.0926  0.2315
28070W        W44918   8.153   0.247   3.627 -0.3092  0.0218 -0.0374
28071W        W44919  11.190   3.689  14.319  0.2789  0.0010  0.0254
28072W        W44920   8.750  16.256   3.889 -0.0203 -0.0451  0.0607
28073W        W44921  10.164  16.105   2.954 -0.0265  0.2469  0.1997
28074W        W44922  16.300   6.482   2.434  0.0549  0.0477 -0.1011
28075W        W44923  13.998  10.623   6.521  0.1405 -0.3953  0.3207
28076W        W44924   2.647   3.701  15.535  0.3799 -0.1638  0.2255
28077W        W44925  15.956  11.288  16.334  0.2335  0.1342 -0.0387
28078W        W44926  12.676   4.825   1.329  0.1182  0.1780  0.0710
28079W        W44927   1.494   4.960  12.827  0.0443  0.0441 -0.1888
28080W        W44928  15.456   1.131  14.502  0.0252  0.1906  0.1844
28081W        W44929   3.880   2.595  14.247  0.2703 -0.1507 -0.2032
28082W        W44930   8.075  17.117   5.370 -0.1255  0.1635  0.1945
28083W        W44931  10.766  13.474  12.236 -0.1477  0.0184  0.0797
28084W        W44932  11.804  11.721   0.155  0.0229  0.0394 -0.0544
28085W        W44933   3.492   4.920  15.993 -0.0193 -0.0760  0.0233
28086W        W44934   8.996   7.812  16.007 -0.1938  0.3082  0.1285
28087W        W44935   1.206  10.928  13.017 -0.1630 -0.0401 -0.2676
28088W        W44936  15.670   0.095  15.682 -0.0494  0.1969  0.0880
28089W        W44937  14.523  13.166  17.283 -0.1978  0.1432 -0.0504
28090W        W44938  14.224   5.482  17.554  0.2882 -0.2024  0.0854
28091W        W44939   1.799  13.689   1.658  0.0107 -0.2459  0.0402
28092W        W44940   7.651   1.481   2.733 -0.0850 -0.1253 -0.0340
28093W        W44941  15.796  13.554   0.018 -0.1790  0.1536  0.2109
28094W        W44942  12.460   6.344  15.285 -0.1641  0.0505 -0.4573
28095W        W44943  13.149  12.952   1.534  0.3112 -0.1152  0.0713
28096W        W44944  11.302   5.825   2.701 -0.2777 -0.3022 -0.1865
28097W        W44945  16.542  14.426   2.458  0.0535  0.0843  0.2758
28098W        W44946   2.296   7.851   3.380  0.4350  0.1456 -0.2065
28099W        W44947   1.978   0.581  13.261  0.0030  0.3637  0.3481
28100W        W44948  15.726  11.204  17.725 -0.3027  0.3319  0.0237
28101W        W44949  14.552   6.231  17.764 -0.1205 -0.0169 -0.1446
28102W        W44950   2.465  12.234  17.623  0.0380 -0.2079 -0.1355
28103W        W44951   9.014   6.314  13.747 -0.1085  0.1743  0.3251
28104W        W44952  15.044   5.763   2.128 -0.1304  0.1179 -0.0934
28105W        W44953   8.595   4.984   1.260  0.0571  0.1973 -0.3433
28106W        W44954  16.748   9.604  16.627  0.0738  0.1980 -0.0678
28107W        W44955   2.533  14.924   2.511  0.2195  0.0043  0.1694
28108W        W44956   1.266  11.435   2.460  0.2620  0.3742 -0.2593
28109W        W44957   4.012   6.532   1.272  0.0564  0.0744 -0.0063
28110W        W44958   2.735   3.507   3.453  0.1767  0.0365  0.0860
28111W        W44959   3.526   9.253  14.072 -0.1139  0.3141 -0.0107
28112W        W44960  16.304   2.450  12.908 -0.0194  0.0457 -0.0420
28113W        W44961  14.288  13.591   5.325  0.1995 -0.4561  0.0100
28114W        W44962  17.138   2.741  14.867  0.0155 -0.2438  0.2174
28115W        W44963   8.242  16.782   2.622 -0.0468 -0.0054  0.0447
28116W        W44964   2.460   5.569  16.214  0.0059 -0.1667  0.0526
28117W        W44965  16.903   6.876   0.209  0.0363 -0.2355  0.0414
28118W        W44966  15.080  12.747   3.512 -0.1889 -0.0370 -0.1470
28119W        W44967   2.736  11.452   2.938  0.0271 -0.1694 -0.1548
28120W        W44968  14.862  13.105  12.728  0.3020  0.2060  0.2705
28121W        W44969  13.821  14.745   1.729 -0.0248 -0.0171  0.1053
28122W        W44970   7.509   0.905  12.535 -0.1578 -0.1886  0.0550
28123W        W44971  10.713   8.552   3.983  0.0109 -0.2500  0.0830
28124W        W44972   2.507   2.532  15.847 -0.0037  0.0414 -0.0722
28125W        W44973   1.682  14.455  15.979  0.2152 -0.0026 -0.1338
28126W        W44974  10.026   9.401  12.685 -0.1344  0.3016 -0.0560
28127W        W44975   3.906  13.002   4.789 -0.2280  0.0065  0.0193
28128W        W44976   3.882   0.970   2.429  0.1499 -0.1016  0.1810
28129W        W44977   6.428  12.682  16.916 -0.0468  0.0671 -0.4604
28130W        W44978   7.683   2.371   3.891  0.0741  0.0229  0.0768
28131W        W44979   4.488  14.775   3.325  0.1811 -0.0601  0.0286
28132W        W44980  13.764  15.791  17.771 -0.2326  0.0153 -0.0969
28133W        W44981  10.932   4.436  14.812 -0.1159 -0.1913  0.0830
28134W        W44982   5.734  14.220  13.345  0.1318  0.0105  0.0436
28135W        W44983  10.843   3.598  16.455 -0.0335 -0.2565 -0.1529
28136W        W44984  13.028  15.154   1.259 -0.2798 -0.0237 -0.2302
28137W        W44985   6.762  13.651  15.437  0.0567  0.2709 -0.0077
28138W        W44986  11.944   6.704   2.073 -0.0255 -0.0366  0.1950
28139W        W44987  12.405   3.239   0.594  0.2139 -0.0683 -0.1779
28140W        W44988   5.504   8.498   3.223  0.2605 -0.0915 -0.3684
28141W        W44989  10.421   3.934  14.759  0.1439 -0.1801 -0.4620
28142W        W44990   5.696  10.358   2.295 -0.0278  0.2571  0.1264
28143W        W44991  11.854   5.284  13.056 -0.0931  0.3334  0.4188
28144W        W44992   0.196   8.760  13.673 -0.1383 -0.2172 -0.2992
28145W        W44993   3.556   0.471   3.364 -0.1895  0.2220  0.0388
28146W        W44994   7.289   0.430   1.325  0.1351 -0.2042 -0.0262
28147W        W44995   1.876  12.919   5.423  0.3050  0.2192 -0.0546
28148W        W44996  14.699  11.402   0.800 -0.0538 -0.0638  0.1981
28149W        W44997  15.607  12.090  17.201 -0.1858  0.0891 -0.0642
28150W        W44998  14.951  13.435  11.876  0.2898  0.0306 -0.2351
28151W        W44999  11.872   5.708   4.292 -0.0462  0.0144  0.2483
28152W        W45000   3.899  12.504   4.664  0.0390 -0.1765  0.0207
28153W        W45001   7.888   0.790   2.119  0.1556  0.0628  0.2174
28154W        W45002   8.978  16.591  15.585 -0.1175  0.1261 -0.0210
28155W        W45003   5.709   4.921  14.184  0.2082  0.0406 -0.1091
28156W        W45004  14.243   6.648  15.418  0.0290  0.4640 -0.1172
28157W        W45005  11.239  15.692  12.502 -0.0425 -0.4226 -0.0758
28158W        W45006  11.610  16.571   2.537  0.3487 -0.3277 -0.1445
28159W        W45007   9.062   5.072  17.705 -0.1803  0.2340 -0.2247
28160W        W45008   3.700  14.278  14.974 -0.3111  0.3241  0.2579
28161W        W45009   5.162  16.307  13.906  0.2323 -0.1887  0.3524
28162W        W45010   5.643   1.967  16.128 -0.0251  0.2411 -0.0049
28163W        W45011   5.735   2.034   2.232  0.2330 -0.0125 -0.0751
28164W        W45012   7.984  11.557   3.430  0.4450  0.1034 -0.2022
28165W        W45013   7.893   7.468  16.165 -0.1882 -0.2222 -0.2600
28166W        W45014  13.182  10.426   3.942 -0.1244  0.2711 -0.1773
28167W        W45015  13.693  14.957  12.842 -0.3879 -0.2194 -0.0378
28168W        W45016   5.938  13.682   3.247 -0.0031  0.0461  0.2531
28169W        W45017  14.999  15.117  13.123 -0.3334  0.2462 -0.1396
28170W        W45018   2.528   4.050   5.739 -0.0477  0.0279 -0.1288
28171W        W45019   7.530  12.708   2.113  0.2316 -0.4201  0.0074
28172W        W45020   8.451  14.298   0.072 -0.2473 -0.2063 -0.0783
28173W        W45021  13.437   4.392  13.637  0.1061  0.2613  0.1932
28174W        W45022  16.798   3.841  17.585  0.1773 -0.0018 -0.1140
28175W        W45023   7.918  17.092   4.891 -0.0867  0.2102  0.0132
28176W        W45024  17.113   9.083  14.734 -0.0359 -0.1675 -0.0280
28177W        W45025   1.856   5.112   4.341 -0.2165  0.0745  0.1229
28178W        W45026   7.587   9.041  16.078 -0.0587 -0.1868  0.0704
28179W        W45027   7.746   1.561  16.252 -0.1891 -0.2177  0.0784
28180W        W45028   2.528   9.734   1.682 -0.0088  0.0115 -0.0371
28181W        W45029   0.830  15.868   5.492  0.0317 -0.1701  0.0207
28182W        W45030  11.893  11.828   0.757 -0.0104  0.3472  0.1065
28183W        W45031   1.687  11.957   1.527  0.0281 -0.0292 -0.1004
28184W        W45032   2.496   0.481  14.070  0.1274 -0.1343 -0.1421
28185W        W45033   0.528  15.749  16.130  0.3338 -0.2996  0.0413
28186W        W45034   5.635   7.268  14.220  0.1021 -0.1740  0.0329
28187W        W45035   5.635  16.417  16.613 -0.2302 -0.3113  0.1363
28188W        W45036  16.148   9.083   5.858 -0.5004 -0.1215 -0.4720
28189W        W45037  12.231   0.846  13.698  0.0634  0.2328  0.2646
28190W        W45038   6.832   9.713   4.188 -0.1202  0.0315 -0.2353
28191W        W45039  14.710   6.520  17.169  0.1136  0.1031 -0.2017
28192W        W45040   9.200   7.911   2.874  0.0281 -0.0919 -0.0597
28193W        W45041   7.579   2.746  13.710 -0.3407 -0.5441 -0.0035
28194W        W45042   0.746   4.368  16.791  0.2861 -0.2158 -0.0117
28195W        W45043   9.982   5.601  10.923 -0.2797 -0.0544 -0.0502
28196W        W45044   4.291   2.269   5.781 -0.1414  0.1185  0.0836
28197W        W45045   5.862   5.373  15.625  0.2024 -0.0559 -0.0522
28198W        W45046  10.292   5.682   1.486  0.2619 -0.0924 -0.1047
28199W        W45047  16.930   8.073   1.838  0.0047 -0.0713  0.2435
28200W        W45048  15.335  10.875   3.986  0.1273  0.0407 -0.0358
28201W        W45049   3.456  13.139  17.197  0.0270 -0.1279  0.2682
28202W        W45050   8.265  12.943   1.762  0.0111  0.2160  0.1001
28203W        W45051  13.889   7.787  15.818 -0.2215  0.2697  0.1261
28204W        W45052  11.733   6.648  15.404  0.0071 -0.1966 -0.0751
28205W        W45053   3.239   8.906  15.903 -0.1353 -0.0650  0.0806
28206W        W45054   1.432  10.515  13.169 -0.0929 -0.0545  0.0900
28207W        W45055  12.062   4.030  11.588 -0.0964  0.0953  0.2337
28208W        W45056  12.083   7.128  17.047  0.0554  0.0503 -0.1651
28209W        W45057  12.665   9.615  16.978 -0.2314  0.2626  0.0317
28210W        W45058   4.750   5.715  14.376  0.1148  0.0118 -0.3404
28211W        W45059   2.188  13.595  14.045  0.1719  0.0298 -0.0047
28212W        W45060  12.575   4.871   4.771 -0.2271  0.0402 -0.1281
28213W        W45061  13.568   6.898   1.494  0.1335 -0.0443 -0.3708
28214W        W45062   2.622   4.129  16.666 -0.2442 -0.2163  0.0894
28215W        W45063   3.813   0.476  12.964 -0.4842  0.2308 -0.0371
28216W        W45064  10.656   3.919  16.042 -0.2209 -0.2622 -0.0498
28217W        W45065   7.703   2.968   2.380 -0.0954  0.3866 -0.2034
28218W        W45066   6.417   9.947   1.832  0.2373 -0.0846 -0.2271
28219W        W45067   6.621  14.270   5.642  0.0540 -0.1099  0.1558
28220W        W45068   6.670  13.925   0.520  0.0306  0.1067  0.2341
28221W        W45069  15.060  15.792  14.616 -0.2087 -0.0941  0.2061
28222W        W45070  16.478   7.876   1.629 -0.0107  0.0323 -0.0348
28223W        W45071   0.214   4.186   0.751 -0.1025  0.0596  0.1289
28224W        W45072  11.056   1.652   4.888  0.0330  0.0562  0.0648
28225W        W45073   0.847   2.799  13.548  0.0434  0.0671  0.1123
28226W        W45074   1.348  11.270  14.776  0.2709 -0.2382  0.0276
28227W        W45075  14.649   4.251  12.763 -0.2040  0.0068 -0.0869
28228W        W45076  12.745  16.839   1.258  0.1040  0.1403  0.2432
28229W        W45077   8.091  16.714   4.551  0.2569 -0.2865 -0.2752
28230W        W45078   4.478  10.475   2.504  0.0191 -0.1385 -0.0449
28231W        W45079   7.092   8.640   3.562 -0.0005  0.1064 -0.1984
28232W        W45080   9.939  11.361   4.323  0.0216 -0.0308  0.0933
28233W        W45081  15.961  15.068   0.892 -0.0058  0.5324  0.1886
28234W        W45082  16.931   1.218   5.273  0.2089 -0.1661 -0.4906
28235W        W45083  15.161   7.322   0.456  0.1590  0.0278  0.0995
28236W        W45084  13.708  14.430   4.159  0.1360  0.3561  0.1478
28237W        W45085   0.021  10.901   4.620  0.1106  0.0436 -0.0629
28238W        W45086   2.910  10.075   1.801 -0.0277 -0.0787 -0.2587
28239W        W45087   9.839   0.674   4.040 -0.1589 -0.0346  0.0171
28240W        W45088   3.254   9.743   5.288 -0.0318  0.0120 -0.0022
28241W        W45089  14.808   3.375   0.690 -0.0885  0.0082 -0.5144
28242W        W45090  15.219   0.773  16.443 -0.4254  0.0782 -0.0752
28243W        W45091   6.835  14.630  16.787  0.2850 -0.2408 -0.1700
28244W        W45092  10.835   6.022   3.983  0.0208  0.0293  0.1012
28245W        W45093   3.634   7.761   4.906  0.3496  0.0587 -0.0373
28246W        W45094   3.335  15.965   5.631 -0.2605 -0.1356 -0.3278
28247W        W45095  16.133   2.655   5.305  0.1404 -0.1839  0.1186
28248W        W45096   1.665   1.263  17.537  0.2577  0.0028  0.0342
28249W        W45097  14.026   1.914  12.800  0.1312 -0.1412 -0.2891
28250W        W45098   3.608   6.610  14.405  0.0064 -0.2385 -0.1835
28251W        W45099   5.550   5.467  16.824  0.1613 -0.1940  0.0515
28252W        W45100   9.604  16.651  14.558  0.1901  0.0502 -0.0883
28253W        W45101   9.164   1.559  15.461  0.0445 -0.1840  0.0308
28254W        W45102  13.960   9.421  15.079 -0.0822 -0.0579 -0.2582
28255W        W45103   3.395   6.306   6.854  0.2986  0.1949 -0.0396
28256W        W45104   1.756  10.900  15.600  0.2907  0.4067 -0.0358
28257W        W45105  11.845  15.076  17.749  0.2902  0.2311  0.1593
28258W        W45106  13.932   2.327   4.474 -0.0298  0.0716 -0.0576
28259W        W45107  16.741   5.692  13.396 -0.0148  0.3062 -0.0470
28260W        W45108   0.051   1.902  16.816  0.0977  0.0358 -0.1235
28261W        W45109   4.719   2.837   3.224 -0.3826 -0.2732 -0.1980
28262W        W45110   1.953   0.501  17.311  0.1338 -0.1272  0.2960
28263W        W45111  16.819   3.243   4.416 -0.1496  0.0765 -0.2882
28264W        W45112   6.824   6.882  12.173  0.2115  0.0932  0.1182
28265W        W45113   5.998  13.123  16.737  0.0677  0.2701  0.1074
28266W        W45114   5.902  17.057   4.826 -0.3249 -0.0660 -0.2027
28267W        W45115   9.183   1.288  13.200  0.1030  0.2544  0.0376
28268W        W45116   1.801   9.003   5.297 -0.3600  0.1330  0.2177
28269W        W45117   6.092   9.785  12.002 -0.0338  0.0313  0.0712
28270W        W45118   8.147  10.512  14.771  0.0182  0.0080  0.0133
28271W        W45119   7.875   0.747  14.920 -0.0211 -0.0838 -0.0441
28272W        W45120   1.185   1.917  14.815  0.0249  0.3718  0.1314
28273W        W45121   1.789   6.974  16.677 -0.1094  0.1119 -0.1349
28274W        W45122   6.137   4.049   5.258  0.2667  0.2042 -0.0025
28275W        W45123  13.450  10.342  15.246  0.1235  0.2214 -0.0006
28276W        W45124  12.067   6.550  15.021  0.0691  0.1468  0.0255
28277W        W45125   2.200   3.216   1.208  0.1057  0.1180  0.3022
28278W        W45126  14.532   6.552  14.868  0.0365 -0.0995  0.1300
28279W        W45127  16.227   6.558  16.274 -0.1023 -0.0197 -0.1052
28280W        W45128   9.490  12.738   1.430  0.2343 -0.2016  0.2327
28281W        W45129   7.017  11.740   6.478 -0.0176 -0.1071 -0.1291
28282W        W45130   2.597   3.179  16.852 -0.0832 -0.0502 -0.0590
28283W        W45131   6.619  16.969   0.216  0.0587 -0.1252 -0.1407
28284W        W45132  15.905   6.249   2.081 -0.1429  0.3242 -0.1667
28285W        W45133   0.208  14.631   6.184 -0.0290 -0.2347  0.1959
28286W        W45134   0.124   0.135  13.143 -0.1629  0.0254  0.5024
28287W        W45135  11.515   5.449  15.283  0.2053  0.0382 -0.0382
28288W        W45136   9.973   8.796  15.780 -0.1063 -0.0615 -0.2167
28289W        W45137  13.542  14.054   0.608  0.0362 -0.0724  0.2791
28290W        W45138   3.224  15.432  15.455 -0.1865  0.0193  0.1348
28291W        W45139   6.463   8.012   3.657  0.0000 -0.2097  0.1053
28292W        W45140   2.650   1.061   2.759 -0.1454  0.3163  0.1244
28293W        W45141   7.386   9.707  15.243  0.1561 -0.0015  0.1633
28294W        W45142  12.715   9.655  15.664 -0.1819  0.1325  0.1308
28295W        W45143   9.015   5.448  14.171  0.0751 -0.1780 -0.2852
28296W        W45144   5.677  10.830   0.171 -0.3755 -0.1379  0.1929
28297W        W45145   5.484  12.112  15.101  0.1382  0.0536  0.3162
28298W        W45146   9.729   6.004  11.977 -0.0424 -0.0582 -0.0362
28299W        W45147  12.738   3.362  15.075  0.0505  0.1395  0.0540
28300W        W45148   7.890  11.948   5.559  0.1790 -0.0544  0.0495
28301W        W45149   1.361   7.758   5.190 -0.1615 -0.0290  0.1111
28302W        W45150   7.120   3.884  12.654  0.1385  0.3443  0.2604
28303W        W45151   2.027  10.329   5.611 -0.0861 -0.0551 -0.2792
28304W        W45152   3.931  13.867  15.288 -0.2871 -0.0167 -0.1736
28305W        W45153   1.063  15.629  17.492 -0.0445  0.1815 -0.2120
28306W        W45154  11.426  12.494   2.206  0.0992 -0.2602 -0.0387
28307W        W45155   1.824  14.031  14.713 -0.3525  0.1259  0.0711
28308W        W45156   3.976   5.343  16.591  0.1667 -0.0426  0.0106
28309W        W45157   7.138   3.100   5.012  0.2957 -0.1979  0.2063
28310W        W45158  11.095   8.772   0.780  0.0817  0.2819 -0.2935
28311W        W45159   0.799  13.727   2.798 -0.3254 -0.1593  0.2862
28312W        W45160  17.108  12.861   5.995  0.1126  0.0659 -0.3475
28313W        W45161  10.915   9.815  14.252  0.3150 -0.3544 -0.1363
28314W        W45162   2.623   3.855   1.427 -0.1915  0.3248  0.3585
28315W        W45163   0.100  12.254  14.125  0.1099  0.5324 -0.1064
28316W        W45164   8.695   3.756   2.027 -0.0148 -0.0089  0.2999
28317W        W45165   2.312   6.434   3.044  0.1524 -0.0608  0.1305
28318W        W45166   2.388   1.470   4.282  0.0041  0.1446  0.0018
28319W        W45167   4.032  13.232  14.132  0.1192  0.0935 -0.1739
28320W        W45168  16.282  15.333   4.222 -0.1925 -0.2641  0.1283
28321W        W45169   7.400   4.153  17.374  0.1772 -0.0626  0.1629
28322W        W45170   8.438   6.462   5.095  0.4225 -0.1556  0.0340
28323W        W45171   2.934   3.738  14.001 -0.1252  0.0649 -0.0571
28324W        W45172  13.792  17.078  16.566 -0.0731  0.0089  0.0428
28325W        W45173   2.232   7.479   2.624 -0.1486  0.0603 -0.0052
28326W        W45174  12.474   7.533   3.256  0.2018 -0.2475  0.0009
28327W        W45175   9.926   3.962   5.025  0.0712 -0.0369 -0.1816
28328W        W45176  16.319   3.274   4.570 -0.2288 -0.1588 -0.2197
28329W        W45177   2.761   5.111  13.265 -0.3062 -0.1864  0.0653
28330W        W45178   9.437  13.672  15.218 -0.0644  0.4320 -0.1224
28331W        W45179   9.874   8.958  12.614 -0.1304 -0.0494  0.0013
28332W        W45180  17.119  13.472   4.007 -0.1828  0.0689 -0.2129
28333W        W45181  16.171  10.111  14.974  0.0584 -0.1033  0.1518
28334W        W45182   7.758   6.016   3.924  0.0857  0.0297 -0.2035
28335W        W45183   7.323  14.070  15.042 -0.0165  0.0621 -0.0222
28336W        W45184   6.599  12.371   4.257 -0.2077  0.1926  0.2357
28337W        W45185   3.779   3.900   5.366  0.1645 -0.0453 -0.0284
28338W        W45186   5.159  14.854   6.056  0.2067 -0.0208 -0.1086
28339W        W45187   1.660   4.515  16.373 -0.1429  0.0520  0.1932
28340W        W45188   7.738   9.463   1.111  0.1523  0.0864 -0.0838
28341W        W45189   4.046   2.478  13.724 -0.1752 -0.0810 -0.2506
28342W        W45190  12.258  13.901   4.869 -0.2408 -0.0307  0.0867
28343W        W45191  15.680   7.786   0.797  0.0409 -0.0972  0.1074
28344W        W45192  13.287  15.247  13.458  0.0749 -0.3247  0.0131
28345W        W45193   9.071   3.900   3.154 -0.1405  0.3602  0.1058
28346W        W45194   2.483   5.304   0.313  0.0454  0.0528 -0.0198
28347W        W45195   7.007   0.066   0.897  0.2823 -0.1718  0.0071
28348W        W45196  16.303   4.108   1.676 -0.2503  0.2053  0.0810
28349W        W45197  16.051  13.809   5.143 -0.0802  0.1520  0.0097
28350W        W45198   2.362   6.617   1.068 -0.0896  0.0847  0.1295
28351W        W45199  13.061   3.539  17.620 -0.2391 -0.1719  0.3410
28352W        W45200   8.522   6.259  17.035  0.3787  0.1820  0.0628
28353W        W45201  16.123   7.408   0.909  0.3296  0.0041  0.1892
28354W        W45202  14.032   3.105  13.941  0.2936 -0.1111  0.1923
28355W        W45203  14.602   8.127   0.119 -0.1170 -0.1053 -0.1936
28356W        W45204  13.339  16.371   2.900  0.2050  0.5830  0.0295
28357W        W45205  15.169   4.662  14.790  0.2020  0.2869  0.0452
28358W        W45206   7.234   8.661  15.370  0.0928 -0.1863 -0.2296
28359W        W45207   1.385   9.991  15.167 -0.0578  0.1202 -0.2051
28360W        W45208   7.482   7.017   4.089  0.3992  0.0139 -0.1101
28361W        W45209  12.707  13.149   0.069 -0.2026 -0.0155  0.0752
28362W        W45210  16.976   8.818  16.177  0.0375 -0.1293 -0.4974
28363W        W45211   0.415   3.190  15.408  0.0411  0.0196  0.0179
28364W        W45212  15.733  16.366   0.812 -0.2934  0.3779 -0.0693
28365W        W45213   3.677  14.515  16.680 -0.0687  0.0264  0.3765
28366W        W45214  11.335  10.977   4.196 -0.2517  0.1463 -0.0960
28367W        W45215  14.329   5.217   2.350  0.2223  0.0084 -0.0865
28368W        W45216  10.688  10.513  13.301  0.1640 -0.2521  0.0964
28369W        W45217  15.256   6.740  14.303 -0.1591 -0.0665 -0.0219
28370W        W45218   7.837  13.146   0.410 -0.2025 -0.2330  0.1321
28371W        W45219   8.082   5.641   1.804  0.0651 -0.2178 -0.2278
28372W        W45220   2.878   6.414   4.545  0.0286 -0.0417  0.1371
28373W        W45221  14.527   8.873  14.327 -0.0922 -0.1524  0.2984
28374W        W45222   9.721   8.395  17.702  0.0575 -0.0003  0.0062
28375W        W45223  10.426  10.610   2.671 -0.2702 -0.1698  0.2470
28376W        W45224  13.795  13.024   2.975 -0.1036 -0.1716 -0.0991
28377W        W45225  15.775  12.252   5.903 -0.2730 -0.0090 -0.1823
28378W        W45226  11.039  15.074  16.626 -0.1140 -0.0891  0.0340
28379W        W45227   2.227   6.924   4.278  0.0553  0.2405 -0.2625
28380W        W45228   4.028   8.952   4.509 -0.1422  0.1452  0.1439
28381W        W45229  15.345  12.866   0.505  0.0086 -0.0243 -0.1369
28382W        W45230   1.123   5.792   5.254 -0.1048  0.0998 -0.0927
28383W        W45231   4.448  10.077   1.990 -0.0704 -0.0409 -0.0741
28384W        W45232  15.270  13.898  13.036 -0.0901 -0.1547  0.0756
28385W        W45233   8.105   9.635   1.418  0.0460 -0.3076  0.1958
28386W        W45234  15.003   4.397   1.746 -0.0798  0.0714 -0.2092
28387W        W45235  15.636   2.037   4.512  0.3102 -0.2235  0.0687
28388W        W45236  16.719  16.559  13.472  0.1317  0.0674 -0.0881
28389W        W45237  14.571   4.662  17.739  0.0357  0.0050  0.2481
28390W        W45238   7.155   7.718  16.722  0.1990 -0.2596  0.0885
28391W        W45239  14.422  10.168   3.261 -0.0324  0.1817 -0.1866
28392W        W45240   4.216   3.550   4.005 -0.0589 -0.2809 -0.0994
28393W        W45241   5.913   7.011  13.517 -0.3056 -0.2403 -0.1555
28394W        W45242   4.438  12.896   3.084 -0.1842  0.0982 -0.1777
28395W        W45243  15.993   9.224   5.450 -0.2743  0.0435  0.0434
28396W        W45244  15.541   3.878  14.697  0.1218  0.1463  0.0112
28397W        W45245   1.150   6.063  14.367  0.1503 -0.0714  0.0324
28398W        W45246  13.867  11.943   0.500  0.2395 -0.0821  0.0122
28399W        W45247   3.348   5.373   5.294  0.1218 -0.1449  0.1730
28400W        W45248   3.975  11.387   0.444  0.2599  0.0210  0.0346
28401W        W45249   3.481  14.643  15.324 -0.3027 -0.0877  0.2558
28402W        W45250   9.896  13.479  11.663 -0.0307  0.3005 -0.0533
28403W        W45251  11.474   6.175   0.195 -0.2884  0.2070 -0.0651
28404W        W45252   8.902   1.079  15.263 -0.1108 -0.1335  0.0590
28405W        W45253   0.978  15.210  17.782 -0.1159 -0.3214  0.1609
28406W        W45254   4.674   1.753  14.914 -0.0099 -0.1206  0.2009
28407W        W45255   6.723  15.814   5.622 -0.1737  0.2125 -0.3812
28408W        W45256   8.558   8.488  12.002  0.1571 -0.1224 -0.0379
28409W        W45257  17.144  10.093   3.951 -0.0249  0.0878 -0.3033
28410W        W45258   6.606   1.832  17.211  0.2991 -0.3381 -0.1766
28411W        W45259   0.542   8.772   2.227  0.0273 -0.1091  0.0214
28412W        W45260  15.608   5.341   0.681 -0.2826  0.2343 -0.1178
28413W        W45261  14.685  16.448  15.856  0.2556 -0.2996  0.0442
28414W        W45262  10.922   9.050  13.584  0.0342 -0.1558  0.0395
28415W        W45263  13.025   9.816   2.475 -0.0493  0.2533  0.2049
28416W        W45264   5.363   0.498   3.411 -0.3099  0.0124  0.1452
28417W        W45265   8.709  15.747   5.085 -0.0351  0.1276  0.1024
28418W        W45266   2.013   4.601   2.192 -0.0162  0.0759  0.0507
28419W        W45267   3.734   5.623  13.469 -0.0213  0.2010 -0.0092
28420W        W45268   0.445  16.725   2.249 -0.2128  0.0376  0.0850
28421W        W45269   9.228   3.871  16.434  0.0035  0.1225 -0.2739
28422W        W45270   1.573  13.969  12.909 -0.0895 -0.0973  0.2799
28423W        W45271   9.459   5.031   5.113 -0.2387  0.0569  0.1940
28424W        W45272   0.336  15.487  13.484  0.1960  0.0591  0.1130
28425W        W45273  10.960   4.747  12.465  0.1320  0.0219  0.0174
28426W        W45274   8.469  17.100  16.112  0.3488 -0.1445 -0.3074
28427W        W45275   2.176  11.800  17.196 -0.2493 -0.2018  0.0783
28428W        W45276   2.849  15.773   5.540  0.0647  0.0418 -0.2241
28429W        W45277  10.438  14.942   0.142 -0.1214  0.0317  0.1111
28430W        W45278  11.655   4.397  14.208 -0.1354  0.3043  0.0717
28431W        W45279  14.014   6.221   0.656 -0.0214 -0.3143  0.0944
28432W        W45280   0.938   0.639   0.669  0.1921 -0.0123  0.2470
28433W        W45281   0.251   5.432   5.837 -0.0494  0.1272 -0.0927
28434W        W45282   0.372   2.896   2.102  0.1174  0.2860  0.2359
28435W        W45283   8.968   8.819  12.779 -0.0704 -0.1303  0.1417
28436W        W45284  14.980  15.028  14.188 -0.2414 -0.0293  0.0362
28437W        W45285   1.786   7.814   1.228  0.1266  0.1444 -0.1708
28438W        W45286   9.841  17.148   2.071  0.0159 -0.1435 -0.2089
28439W        W45287   1.370   8.437  13.561 -0.0815 -0.2637  0.0064
28440W        W45288  11.066  13.811   3.254  0.3160  0.2299  0.0875
28441W        W45289   5.720   1.380   4.135 -0.1000  0.0805 -0.2057
28442W        W45290  14.710   6.656   2.139  0.0554  0.0849  0.0573
28443W        W45291  14.893   3.002  14.074  0.0644  0.0270 -0.0802
28444W        W45292   2.743   8.757  13.593  0.0228 -0.2804  0.1062
28445W        W45293  13.556   5.543   1.176 -0.1541  0.3408  0.3113
28446W        W45294  12.659  15.871  16.106 -0.5772  0.0057 -0.1246
28447W        W45295   1.219  12.583  17.662 -0.1057  0.0750 -0.1299
28448W        W45296  10.069  13.992  16.075  0.1149 -0.0388  0.1756
28449W        W45297   3.268   1.769  13.345 -0.0294 -0.2263  0.3126
28450W        W45298  10.955   2.249  11.614  0.1295  0.2426 -0.1366
28451W        W45299   8.661   2.427  15.506 -0.2068  0.0791 -0.2872
28452W        W45300  12.943  15.327   3.505  0.0379 -0.0260 -0.1046
28453W        W45301   5.650  14.087   5.660 -0.1508  0.0096  0.2157
28454W        W45302   3.561   9.415  16.840  0.1717 -0.3116 -0.0139
28455W        W45303  14.876   3.109   4.378 -0.0378 -0.2496 -0.0310
28456W        W45304   8.389   2.286  15.011  0.2593  0.1867 -0.0208
28457W        W45305   1.785   8.171  15.955 -0.0530 -0.1142  0.0422
28458W        W45306   3.586   9.522   2.054  0.2714 -0.2010  0.0660
28459W        W45307  15.052   1.234  12.270  0.0799 -0.1236 -0.0514
28460W        W45308   3.809  11.979   1.716 -0.3763  0.0763  0.0657
28461W        W45309   4.931  11.938   2.302  0.0972  0.4061 -0.3313
28462W        W45310   5.116   3.787   4.197  0.1560  0.2737  0.1643
28463W        W45311  15.394   7.776   0.378 -0.1439  0.2443 -0.3178
28464W        W45312   7.739  11.693  17.653  0.0565 -0.0935 -0.0242
28465W        W45313   8.990  13.836   3.160 -0.0552  0.1236  0.3228
28466W        W45314   7.352   8.705  13.328 -0.3502  0.1037 -0.2793
28467W        W45315   1.201   5.070  13.259  0.0988 -0.0556  0.1670
28468W        W45316   8.034   2.139  15.891 -0.0470 -0.2554  0.2686
28469W        W45317   5.837   1.407   4.620  0.3922  0.3318  0.2130
28470W        W45318  15.294   0.774  12.394  0.1743 -0.0879  0.0265
28471W        W45319   8.803  13.057   5.880  0.0382  0.0045  0.0465
28472W        W45320   2.724   1.532  15.670  0.3055  0.0289  0.1367
28473W        W45321  13.162   0.765   4.161  0.1770 -0.0239  0.1249
28474W        W45322  11.139   9.848  14.808 -0.1822 -0.1179 -0.0677
28475W        W45323   4.848   6.296   4.976  0.4705  0.0912 -0.3099
28476W        W45324   0.669  15.290  17.387  0.0433  0.2883 -0.0719
28477W        W45325  15.623   4.785   1.308  0.2291  0.3270 -0.2975
28478W        W45326   8.466   6.510  12.152 -0.2309  0.2518 -0.3416
28479W        W45327   0.890   4.357   1.660 -0.0678 -0.0295 -0.0531
28480W        W45328   3.185  10.043  13.693 -0.1664 -0.1541 -0.0447
28481W        W45329   8.504  12.767   1.302 -0.0310  0.0516 -0.0275
28482W        W45330   6.990   1.250  12.365 -0.1028 -0.0867 -0.1343
28483W        W45331  15.303   9.948   3.644  0.0225  0.1010  0.1885
28484W        W45332  12.980  15.137  12.169 -0.1492 -0.1461  0.1495
28485W        W45333  11.100   5.654   1.028 -0.0054 -0.0753  0.1210
28486W        W45334   0.998   3.184   5.957  0.0030 -0.1242  0.0332
28487W        W45335   7.581   5.421   0.428 -0.0658  0.0754 -0.1509
28488W        W45336   2.996   1.259   3.699 -0.0475  0.0056 -0.3543
28489W        W45337  13.308   9.545  14.219  0.0191 -0.0534 -0.0839
28490W        W45338  12.209  17.091   0.411  0.2761 -0.1130 -0.0050
28491W        W45339   6.363  10.745  14.413  0.1094 -0.0474  0.0668
28492W        W45340   6.539  15.425  14.266 -0.2120  0.3609 -0.1296
28493W        W45341   4.566  10.117   0.881 -0.1162  0.1015 -0.1916
28494W        W45342   9.614  11.389   1.736 -0.0292  0.3498  0.3031
28495W        W45343   0.635   5.995  14.579  0.0957 -0.4057 -0.1507
28496W        W45344   0.750   8.601   3.173  0.1248 -0.4128  0.0147
28497W        W45345   0.374  13.861  16.176  0.1026  0.0313 -0.0060
28498W        W45346   1.633   4.088  16.680 -0.1023 -0.1623  0.1093
28499W        W45347  12.524  16.376  15.327 -0.1558  0.0470 -0.0645
28500W        W45348   5.674   8.755  14.279  0.1954 -0.0553  0.1690
28501W        W45349   1.998  15.746  14.042 -0.1985  0.0645 -0.1822
28502W        W45350  10.808   8.688  16.054  0.3468  0.0731  0.0698
28503W        W45351   2.003   3.448   3.333 -0.0836 -0.0343 -0.1790
28504W        W45352   2.564  14.382   0.288 -0.2004 -0.1567 -0.1563
28505W        W45353   2.956   8.483   5.279  0.1530  0.2205  0.2104
28506W        W45354   6.309  10.001  16.989  0.1511 -0.0047 -0.2898
28507W        W45355  15.402   7.710  13.888  0.0957 -0.0708  0.0259
28508W        W45356   9.767   2.654  16.402 -0.1415  0.2212  0.3190
28509W        W45357  15.415   3.937  17.659  0.0402  0.0681 -0.0591
28510W        W45358   7.166  10.561  12.985 -0.1265  0.0327  0.0476
28511W        W45359  11.751   5.416  13.848 -0.0270  0.1524  0.0974
28512W        W45360  10.291   4.129  15.242 -0.2943 -0.0782 -0.1815
28513W        W45361  11.816  14.585   2.129  0.2114  0.0256  0.1206
28514W        W45362   3.207   5.887  14.511 -0.0155  0.0602  0.3642
28515W        W45363  12.554   4.274   0.499  0.5096  0.2652 -0.0924
28516W        W45364   4.631  12.285  12.169 -0.1329 -0.0096 -0.1629
28517W        W45365   9.987   4.707  16.904 -0.3302  0.0499  0.1648
28518W        W45366   4.679   6.431  14.212 -0.2084 -0.2201 -0.0268
28519W        W45367  12.551   5.548   5.778  0.2730 -0.4092  0.0284
28520W        W45368   0.827  16.530   3.624  0.0024 -0.1016 -0.0617
28521W        W45369   6.586  14.310   4.270  0.2257  0.4764  0.1674
28522W        W45370  13.228  15.419   2.744 -0.0944 -0.0925 -0.0593
28523W        W45371  10.402  14.633  14.514  0.0787 -0.1193  0.1240
28524W        W45372   6.667   5.275  13.112  0.0123 -0.0496 -0.1065
28525W        W45373  10.985   9.496  16.250 -0.0279  0.0813  0.1512
28526W        W45374  12.297  11.973  12.765 -0.0526 -0.2369 -0.0162
28527W        W45375   2.048   1.604   5.494  0.0522  0.1475  0.1160
28528W        W45376   6.662   7.259  13.262 -0.0999 -0.2658 -0.1314
28529W        W45377  16.491   2.357   5.462 -0.2463  0.2738  0.2692
28530W        W45378   4.149   5.578   2.702  0.3892 -0.0182  0.2218
28531W        W45379  14.437  16.994   2.960  0.2316  0.1598  0.3312
28532W        W45380   6.426  12.889   3.471 -0.1326  0.2628  0.3912
28533W        W45381   1.321  12.426  15.930 -0.0297  0.0190  0.0814
28534W        W45382   6.045  14.845  17.199  0.1334 -0.0693 -0.0310
28535W        W45383   4.009  12.438  12.614  0.2006  0.0313  0.3048
28536W        W45384   4.198   0.366   1.298 -0.0615  0.0195  0.0366
28537W        W45385  13.216   1.222  14.456  0.2279  0.1044  0.0770
28538W        W45386  15.789  13.837  17.387 -0.4220  0.0043 -0.2585
28539W        W45387   8.212   0.142  13.608 -0.0468 -0.0770  0.2526
28540W        W45388  11.202   3.248  14.720  0.0139  0.0813 -0.0132
28541W        W45389   9.180   7.423  17.171 -0.1343  0.0703 -0.0359
28542W        W45390   1.264   6.582   5.063  0.2044  0.0469  0.2023
28543W        W45391   0.015   5.424   2.950  0.1099  0.1462  0.4134
28544W        W45392   5.941  13.389  15.211 -0.2493 -0.3015 -0.1648
28545W        W45393   2.409  12.855  16.262 -0.1009  0.0032  0.0926
28546W        W45394   1.479   6.632  17.455 -0.2291  0.0429 -0.0444
28547W        W45395   6.061   7.736   3.541 -0.3118 -0.3348  0.1420
28548W        W45396  10.538   1.331  15.234  0.1925  0.3549 -0.1655
28549W        W45397   3.951   8.878   2.746 -0.2178 -0.2672  0.1448
28550W        W45398   0.366   3.106  12.633  0.0125 -0.0982 -0.2649
28551W        W45399  16.695  15.275   1.575  0.2319  0.0750  0.3482
28552W        W45400   9.102   7.869  13.265  0.1474 -0.0101  0.0900
28553W        W45401   0.986   3.623   1.052  0.2281  0.0220 -0.0885
28554W        W45402  15.491  13.305   2.756  0.0690  0.0078 -0.1399
28555W        W45403  11.518   4.009   3.687  0.2488 -0.3041 -0.0798
28556W        W45404   1.472  11.473  16.614  0.0484  0.1332  0.1431
28557W        W45405   1.287   8.916  15.332  0.0940  0.2260  0.0280
28558W        W45406   8.737   5.487  17.557 -0.3511  0.0205 -0.0637
28559W        W45407  14.636   1.222  14.324 -0.0653  0.3733  0.0105
28560W        W45408   0.766   6.147  17.383  0.1265 -0.2458 -0.0046
28561W        W45409  15.716   9.516   3.755 -0.1448 -0.0037 -0.0442
28562W        W45410   0.079   0.159  14.441 -0.0061 -0.0389 -0.1747
28563W        W45411  13.659  12.143  13.875  0.0425  0.2913 -0.0419
28564W        W45412  10.974   8.063   1.157  0.0760 -0.2025  0.2281
28565W        W45413   2.710   2.382   5.132  0.1501  0.0109  0.2362
28566W        W45414   4.966   0.712   0.346 -0.1829 -0.0012  0.1628
28567W        W45415   5.436  11.589   6.070  0.1710 -0.2274  0.0446
28568W        W45416  14.898   0.898   5.451  0.0721  0.0397 -0.1289
28569W        W45417   0.315  15.148  17.712  0.0412  0.1568 -0.1354
28570W        W45418   2.476  13.983   2.993 -0.3211 -0.2331  0.0800
28571W        W45419   5.349  14.763  15.850  0.0333 -0.3583  0.3310
28572W        W45420   2.338   5.495  15.390 -0.4145 -0.1134 -0.2883
28573W        W45421   4.451   4.280  13.793 -0.0032  0.0695 -0.1156
28574W        W45422  13.033  14.444   0.253 -0.1352 -0.2699  0.2616
28575W        W45423  11.893  15.828   0.006  0.1347 -0.0688  0.0519
28576W        W45424   3.989  13.802   0.101  0.2169  0.2513 -0.0818
28577W        W45425   8.015  12.158  13.189  0.1618  0.1286  0.2063
28578W        W45426  14.842   4.956  11.460 -0.0301 -0.3412  0.0071
28579W        W45427  14.628   7.467  16.861 -0.4333 -0.0701  0.0476
28580W        W45428  16.368  14.769   3.179 -0.2661 -0.1732 -0.4144
28581W        W45429  14.584  11.360  13.417  0.0231 -0.0121  0.1339
28582W        W45430  13.788   1.394   1.893 -0.0822 -0.0705  0.0511
28583W        W45431  13.206   7.933   5.206  0.1743 -0.0633 -0.2343
28584W        W45432  14.741  15.169  12.240 -0.1388 -0.0306  0.0416
28585W        W45433  14.739   0.547   1.234 -0.1434 -0.0007  0.0674
28586W        W45434  16.442   6.432   2.913  0.2789 -0.0974 -0.2430
28587W        W45435   6.334  17.034  12.215  0.1023  0.3695 -0.0338
28588W        W45436  12.727  16.834  14.617 -0.1159 -0.4847  0.2139
28589W        W45437   0.251  12.470   5.728  0.1422 -0.4661 -0.1776
28590W        W45438  15.944   8.640   0.171  0.0678  0.1312  0.0571
28591W        W45439   0.808  13.878  15.975  0.1713  0.0109  0.0746
28592W        W45440  10.469   3.424   3.328 -0.0702 -0.0430 -0.1544
28593W        W45441  10.156  10.681   0.469 -0.1503 -0.0691  0.3449
28594W        W45442  14.660  12.156   5.619 -0.1568  0.0713 -0.0396
28595W        W45443  11.532   2.684   0.894 -0.0744 -0.0866  0.3890
28596W        W45444   4.188  11.073  12.764 -0.0893 -0.0157  0.0935
28597W        W45445   7.118   1.190  14.528 -0.0095 -0.0617  0.1500
28598W        W45446   3.372  16.290   4.145  0.0757  0.3376  0.0431
28599W        W45447   2.660   4.053  17.208  0.1036 -0.1899 -0.0711
28600W        W45448  12.328   8.369   2.082  0.2163  0.0166  0.0001
28601W        W45449   9.215   2.221   0.619  0.0217 -0.0251 -0.0250
28602W        W45450  15.758   0.276   0.245 -0.1363  0.0424  0.1546
28603W        W45451  13.479  15.941  16.059  0.1437  0.0253  0.1173
28604W        W45452  10.855   8.429   3.109 -0.1182  0.1267 -0.1741
28605W        W45453  15.544  14.281   1.164 -0.1497  0.1741 -0.4937
28606W        W45454   4.806  11.774  17.766 -0.4996 -0.0179  0.1606
28607W        W45455   6.256   8.142   1.543 -0.0697 -0.0573  0.0501
28608W        W45456   9.897   7.036  15.750  0.3532  0.0904  0.2611
28609W        W45457   2.291   0.477  12.818 -0.0946 -0.1709 -0.1439
28610W        W45458  10.158   3.906   3.155  0.1599 -0.0756  0.0832
28611W        W45459  12.313   0.882   5.854 -0.3871  0.2622 -0.1804
28612W        W45460  10.205  13.970   2.264 -0.1207  0.0566 -0.2969
28613W        W45461  12.130  17.121  15.851 -0.3197 -0.3322 -0.2704
28614W        W45462   7.329   3.232  14.215  0.2205  0.1824  0.0574
28615W        W45463   1.069   4.391   5.265  0.0223  0.2221  0.2161
28616W        W45464  12.154  13.503  12.145  0.1206 -0.2993 -0.2500
28617W        W45465   4.207   6.966   0.525 -0.0907  0.4342 -0.1249
28618W        W45466   7.138  10.933  15.652  0.1380 -0.1151 -0.1536
28619W        W45467   6.451  15.887   1.743 -0.2331  0.0601  0.1444
28620W        W45468   4.342   9.638  13.313 -0.0739  0.1468  0.2733
28621W        W45469   7.824   9.636   4.968  0.1472  0.1220 -0.2456
28622W        W45470   7.147   1.873  13.855  0.0555 -0.2293 -0.3081
28623W        W45471  12.196   1.281  13.513  0.0591  0.2082  0.1690
28624W        W45472   9.408  10.679  16.981  0.0117 -0.0225  0.2704
28625W        W45473  14.684   7.130  17.268 -0.0976  0.1558 -0.0570
28626W        W45474  14.955  14.741  17.066  0.0250 -0.1094  0.3478
28627W        W45475   1.399   4.069   3.237 -0.0484 -0.0539  0.1800
28628W        W45476  10.798   6.930   4.827  0.1661  0.1451  0.2549
28629W        W45477   1.445   6.147   5.313  0.0668 -0.0055 -0.2798
28630W        W45478   2.470  14.852  17.177  0.1123 -0.1107  0.0231
28631W        W45479   0.886  12.339  16.847  0.2117 -0.2719 -0.2543
28632W        W45480  13.718   6.248  17.327 -0.0872 -0.1753 -0.1921
28633W        W45481  10.531   1.980   2.948  0.0552  0.1622 -0.1360
28634W        W45482   7.433   4.837  14.240 -0.2033  0.3469 -0.3424
28635W        W45483   0.878  16.997   1.013 -0.1016 -0.3151 -0.0839
28636W        W45484   9.043  14.792   5.310 -0.4638  0.3857  0.2634
28637W        W45485  14.627   4.330   4.481  0.2406 -0.2472  0.1701
28638W        W45486   4.999  16.117   5.626  0.2097 -0.2008  0.2063
28639W        W45487  16.964  16.479   1.302 -0.0917  0.1783 -0.1639
28640W        W45488  15.570   1.607  16.880 -0.1696 -0.3418 -0.0238
28641W        W45489   9.016   7.202   3.305  0.0339 -0.0144  0.1418
28642W        W45490   3.612   5.495   4.778 -0.0529 -0.4959  0.1500
28643W        W45491  10.802   3.061   0.944 -0.1346 -0.3562  0.1785
28644W        W45492   9.838   6.254   5.383 -0.2968  0.2216 -0.2459
28645W        W45493  14.579  15.749   3.528 -0.1809  0.0017  0.1848
28646W        W45494   9.018   9.944   0.538 -0.0935  0.2049  0.1837
28647W        W45495   9.536   1.249   0.503 -0.1019  0.0250 -0.0573
28648W        W45496   7.304  14.565  16.770 -0.1371  0.1213 -0.1925
28649W        W45497   3.912  11.681  13.405  0.1610  0.0488 -0.1771
28650W        W45498   6.795  13.325   3.759  0.2040  0.0737  0.2330
28651W        W45499  13.914   9.665  12.376 -0.1938 -0.3259 -0.1939
28652W        W45500   5.260  11.104  16.376 -0.1162  0.0626  0.0380
28653W        W45501   0.797   7.847   3.881  0.2646 -0.0183  0.3669
28654W        W45502   8.762  10.545  14.150  0.1492 -0.2417 -0.0880
28655W        W45503   1.832  12.722   3.086 -0.1755 -0.1812 -0.1357
28656W        W45504   6.199   0.598   2.166 -0.0190  0.3451  0.0892
28657W        W45505  16.840   3.186  16.812  0.1341 -0.2190  0.0247
28658W        W45506  10.443   1.650  12.812 -0.0588 -0.1348 -0.2330
28659W        W45507  12.058  11.772   3.016  0.1537  0.0762 -0.2082
28660W        W45508   0.008  11.778   2.126 -0.0825  0.2307 -0.5992
28661W        W45509   3.342   8.186  11.695  0.0199 -0.1791  0.4587
28662W        W45510   6.525   5.917  17.051 -0.0292 -0.1193  0.0122
28663W        W45511   3.929   7.743  17.161  0.1496  0.0308  0.1435
28664W        W45512   5.727   2.225  11.270  0.0908  0.1658  0.0561
28665W        W45513   5.410   0.492   4.347 -0.0290 -0.3428 -0.4615
28666W        W45514   1.173  11.787  14.590  0.0097  0.2428 -0.2910
28667W        W45515   7.020   8.575   5.126 -0.0037  0.1916  0.2400
28668W        W45516   6.669   4.149  12.701  0.0285  0.4032  0.2498
28669W        W45517   3.487   5.143  17.281  0.3243  0.0618 -0.0733
28670W        W45518   7.773  11.758  16.069  0.3848 -0.0696  0.0122
28671W        W45519   2.732  11.980   1.641  0.0302  0.0563 -0.1797
28672W        W45520   9.460  11.522  16.048  0.4451 -0.2691  0.0776
28673W        W45521   7.440  16.485   5.415  0.0065 -0.2742 -0.2169
28674W        W45522   2.355   1.467  16.630  0.1576 -0.1212  0.0411
28675W        W45523   8.804   7.304  13.855 -0.2069  0.2608 -0.1221
28676W        W45524  16.591  10.235  14.170  0.0623  0.0437  0.0616
28677W        W45525   1.565   9.180  13.521  0.0986  0.2842 -0.2125
28678W        W45526   0.995   0.456  15.922 -0.0960 -0.2581 -0.1818
28679W        W45527  14.411  14.484   1.228 -0.2054  0.1730 -0.0446
28680W        W45528  15.175   9.281  14.289 -0.2367  0.1723  0.1918
28681W        W45529   6.375  11.709  12.111 -0.0800  0.1965  0.0322
28682W        W45530   4.324  14.774  14.225 -0.0048  0.3299  0.3990
28683W        W45531   3.031  16.544   0.623 -0.2672 -0.1390  0.1908
28684W        W45532  13.207   1.345  17.153 -0.0129 -0.2835 -0.1045
28685W        W45533   8.432   4.175  11.526  0.0769  0.2395 -0.0077
28686W        W45534   8.861  13.466  12.349 -0.1271  0.0599  0.0342
28687W        W45535   7.655   9.930  17.533  0.3642 -0.1006 -0.0209
28688W        W45536  10.555  14.869  13.393  0.0618 -0.0081  0.2059
28689W        W45537  15.605   9.971   3.164  0.0683 -0.2383  0.2515
28690W        W45538   0.464   2.724  12.286 -0.3790  0.1128 -0.2393
28691W        W45539  11.799  15.366  16.595  0.0096 -0.0353  0.0913
28692W        W45540   3.119   0.747   2.235  0.4458  0.1171 -0.3685
28693W        W45541   5.151   1.622  15.906 -0.1021 -0.2571 -0.2018
28694W        W45542   2.742  10.097  15.765  0.1043 -0.1384  0.0141
28695W        W45543  12.490   2.851  11.640 -0.1542 -0.0456 -0.1962
28696W        W45544   0.198   5.257  17.388  0.1235  0.0516  0.0476
28697W        W45545   7.143   5.428  13.165 -0.3121  0.4570  0.0382
28698W        W45546   2.447   0.309   5.732  0.0265  0.1011  0.0093
28699W        W45547   5.075  11.499   0.843 -0.0613  0.3373 -0.2205
28700W        W45548   1.347   1.495   3.257 -0.1544  0.2065 -0.0807
28701W        W45549   9.155   9.484   4.501 -0.3674  0.1909 -0.1129
28702W        W45550   8.596  15.615  12.236  0.0389 -0.1433 -0.0528
28703W        W45551  16.719  14.004  16.379 -0.2552  0.0945  0.0198
28704W        W45552   6.578   0.416  13.555 -0.2251 -0.3023 -0.5475
28705W        W45553  13.773  15.473  17.244 -0.0638  0.1437  0.0891
28706W        W45554   9.206   7.571   0.288  0.0743 -0.2540 -0.1868
28707W        W45555   1.090   4.988   4.304  0.1940 -0.1657 -0.5064
28708W        W45556   3.571   8.553   0.592  0.0596 -0.1982  0.3492
28709W        W45557   9.607   5.064   1.105  0.0716 -0.2855 -0.3410
28710W        W45558   0.039  12.516  17.640  0.0411 -0.4018  0.1453
28711W        W45559  16.477   7.905   4.210 -0.0146 -0.0643  0.0484
28712W        W45560   9.968  12.188   0.724  0.2433 -0.0400  0.1001
28713W        W45561   4.863   5.256  12.189  0.2434 -0.2402 -0.2216
28714W        W45562  12.703   5.646   4.882 -0.0952 -0.0294 -0.1168
28715W        W45563  10.888   9.183   0.600 -0.0005  0.2050 -0.2573
28716W        W45564  13.719  14.486  15.716  0.1138  0.0315 -0.0353
28717W        W45565   0.074   3.461  15.629  0.2393  0.1671  0.0927
28718W        W45566   5.860   6.468  15.851 -0.4570 -0.2061 -0.0530
28719W        W45567   6.142   1.881  14.814  0.1010  0.0152  0.3770
28720W        W45568   8.969   8.936  17.219 -0.2057  0.0255  0.0648
28721W        W45569   5.110  13.123  14.028  0.0223 -0.3005 -0.0865
28722W        W45570  12.025  12.389   3.597 -0.0231  0.2784 -0.0487
28723W        W45571  12.458  16.843   2.324  0.1137  0.1979  0.0748
28724W        W45572  15.768  13.672  16.137  0.0159 -0.0373  0.1782
28725W        W45573  10.719  13.491   1.540 -0.1833 -0.1089  0.0051
28726W        W45574   6.159   0.575   3.756  0.3226  0.0825 -0.0519
28727W        W45575   6.042   3.826   4.517  0.1566  0.2652 -0.0798
28728W        W45576   5.890  14.392  17.082 -0.3525 -0.3723  0.1925
28729W        W45577  11.549   6.892   2.886 -0.0920 -0.0547 -0.1150
28730W        W45578   8.634   8.155   3.142  0.2888 -0.2199  0.2015
28731W        W45579   0.066  10.602  12.109  0.0625  0.0105  0.0908
28732W        W45580   3.648   6.413  13.024  0.1777 -0.1688  0.2786
28733W        W45581  11.254   8.817  16.982 -0.0380 -0.0171 -0.0288
28734W        W45582   9.020  15.254  17.008 -0.1076 -0.1175 -0.1319
28735W        W45583  15.639   1.185  13.257  0.3531  0.0618  0.0365
28736W        W45584   6.066  11.985   5.039  0.1464 -0.0365  0.0289
28737W        W45585   6.086   6.618   0.855 -0.1999 -0.1076  0.0714
28738W        W45586  11.648   4.342   5.640 -0.0872 -0.0120  0.0722
28739W        W45587  14.732   4.052  11.851 -0.0957  0.3679  0.5045
28740W        W45588  16.986   3.717  16.734  0.0886 -0.1445  0.1145
28741W        W45589   2.884   4.598  13.113 -0.3189 -0.0659 -0.3175
28742W        W45590   2.724   1.800   3.560  0.1636  0.0898  0.1775
28743W        W45591  14.669   1.354   3.694  0.1819  0.0503 -0.0155
28744W        W45592  15.265  15.620   1.897 -0.1487  0.1221  0.1357
28745W        W45593   5.401   7.657   0.225  0.2654 -0.0885  0.1290
28746W        W45594   3.913  10.052  15.400 -0.3548  0.3111  0.0661
28747W        W45595   1.754   0.463   2.990 -0.0220  0.0440  0.0688
28748W        W45596  12.810  15.688   4.322 -0.2080 -0.0045 -0.0076
28749W        W45597  12.675  14.124   1.335  0.2702 -0.5586  0.1854
28750W        W45598   2.753   8.317  16.572  0.2558 -0.0101  0.1246
28751W        W45599  13.296   3.943  13.388 -0.2745 -0.1422  0.0349
28752W        W45600   9.614   9.086   0.569 -0.1513 -0.0604  0.0879
28753W        W45601  15.751   3.896   0.684 -0.1591  0.0847  0.2173
28754W        W45602  13.451  10.815  15.237 -0.0892 -0.1604 -0.0322
28755W        W45603   6.794  15.236   1.154  0.0673  0.1653  0.0730
28756W        W45604   6.872  10.536   2.659 -0.0216  0.1362  0.1369
28757W        W45605   2.810   1.636   4.017 -0.0310  0.0252 -0.0948
28758W        W45606  16.514   0.221   0.449  0.2364  0.1559 -0.0347
28759W        W45607   5.063  16.822  11.614  0.2669 -0.1221  0.0512
28760W        W45608   7.879   1.631  15.535 -0.0985 -0.1169 -0.1668
28761W        W45609  11.923   7.948  12.802 -0.2277 -0.0066 -0.0630
28762W        W45610   3.113   6.468   3.457 -0.1515 -0.0640  0.0871
28763W        W45611   0.466  16.969   0.663 -0.0858  0.2189 -0.0298
28764W        W45612  12.571  14.617  13.818 -0.2081 -0.0112  0.1248
28765W        W45613   5.484  16.002   5.489  0.0620  0.0634  0.0727
28766W        W45614   0.962  14.594  13.815 -0.0497  0.2506 -0.1939
28767W        W45615  16.706   7.157  13.424  0.0796 -0.2492  0.1347
28768W        W45616   4.714   2.094   3.757 -0.0623 -0.0614 -0.0331
28769W        W45617  10.679  12.092   3.440  0.0305 -0.3255  0.0754
28770W        W45618   8.709   9.954   2.901  0.3511  0.0976  0.1826
28771W        W45619  11.439  16.171   0.472  0.0456  0.1536 -0.0592
28772W        W45620  12.817   2.653  12.624  0.1603  0.2432 -0.0499
28773W        W45621   5.743  12.113   0.574  0.2393  0.0324  0.0003
28774W        W45622  11.621   0.857   2.646  0.0910 -0.0232 -0.0980
28775W        W45623  15.307   5.605  11.960 -0.3682 -0.3277 -0.0057
28776W        W45624   1.857   0.711  16.438  0.3451  0.1322 -0.1023
28777W        W45625  16.476   6.032  14.226  0.2940  0.2330  0.0515
28778W        W45626   2.189  14.533   5.798  0.2257 -0.3905 -0.0383
28779W        W45627   0.589  16.664  15.703  0.2271  0.0722  0.2425
28780W        W45628   3.438  10.654   4.823  0.1402  0.0688 -0.4327
28781W        W45629  16.595   6.316   4.168  0.0400 -0.1255  0.1144
28782W        W45630  10.842   0.868  10.753 -0.1790 -0.0199 -0.1332
28783W        W45631  14.777   2.171  13.295 -0.1641  0.1834 -0.0797
28784W        W45632  14.197  11.287   0.843  0.1860  0.0926 -0.0780
28785W        W45633  14.428  12.012   5.193 -0.0441 -0.1007 -0.0689
28786W        W45634   4.918  10.784   2.660  0.0099  0.0729 -0.2378
28787W        W45635   9.206  12.075  11.569  0.4015 -0.1978 -0.0322
28788W        W45636  13.906   2.997   3.662 -0.0675  0.0109  0.1155
28789W        W45637   3.632  10.952   6.613 -0.1029  0.2513  0.1006
28790W        W45638  16.123   4.619   3.105  0.2933 -0.0813 -0.1933
28791W        W45639   3.687   3.383   5.288 -0.2299  0.2821 -0.1208
28792W        W45640   3.933  15.816  12.457 -0.3205 -0.2716 -0.0992
28793W        W45641  10.127   4.326  13.182  0.0615 -0.1282 -0.1077
28794W        W45642   7.319   3.667  17.760  0.1363 -0.0412  0.1715
28795W        W45643  16.099   6.479   4.708  0.1999 -0.1152 -0.2190
28796W        W45644  11.269   6.373  13.726 -0.2588  0.0420 -0.3328
28797W        W45645   4.989  11.103   2.296 -0.4087 -0.0673  0.1133
28798W        W45646  15.857  16.013   5.714  0.3359 -0.2973 -0.0036
28799W        W45647  11.664   3.975   4.373  0.0294 -0.0960 -0.4221
28800W        W45648   7.739   5.754  13.848 -0.1538 -0.1707  0.1838
28801W        W45649   0.062  13.307   3.192  0.0453 -0.0064 -0.1176
28802W        W45650   2.849  13.690  13.564  0.2914  0.4098 -0.1220
28803W        W45651   0.781   8.765  17.103 -0.0052 -0.1045  0.2083
28804W        W45652   1.032   0.971   3.880 -0.1830  0.0117  0.3443
28805W        W45653   9.069  12.418  15.961 -0.4031  0.3466 -0.0122
28806W        W45654   1.607  12.072  13.961 -0.0695  0.1158  0.1420
28807W        W45655   2.573   9.265  13.740  0.0906  0.1955 -0.1960
28808W        W45656  15.785   0.301  16.943  0.0611  0.1665  0.0462
28809W        W45657   0.695   1.552  15.031  0.2695 -0.0852  0.2815
28810W        W45658   5.230   1.532   0.054  0.0630  0.0649  0.2182
28811W        W45659  15.281   6.747  16.812 -0.0058  0.1837  0.2205
28812W        W45660   3.520  14.470  15.797  0.0599 -0.0184 -0.2236
28813W        W45661   2.393  14.594  16.331 -0.2596  0.1244 -0.2453
28814W        W45662   1.476   2.061   1.465  0.1897  0.3125 -0.1151
28815W        W45663  14.852  13.966  17.489 -0.1069  0.1341 -0.4210
28816W        W45664  16.843   5.729  14.618  0.1266  0.2020  0.1679
28817W        W45665   1.885   5.004  15.358  0.0932  0.2927 -0.1577
28818W        W45666   7.066  17.070   1.371  0.2655 -0.3115 -0.1224
28819W        W45667   1.910  10.219   6.067  0.1638 -0.0883  0.2118
28820W        W45668   9.128   7.821  15.145  0.0999  0.1501  0.0225
28821W        W45669   4.083   5.201  13.715 -0.4012 -0.1086 -0.1709
28822W        W45670   1.620   5.581   4.249  0.1410 -0.1766 -0.0838
28823W        W45671   0.095   6.443   2.142 -0.2969  0.2989  0.1355
28824W        W45672   8.712   8.554   2.265 -0.1201  0.3482  0.0926
28825W        W45673   8.692  14.101  12.896 -0.3070  0.2189 -0.0270
28826W        W45674   7.540  15.003   3.301  0.3141  0.0213 -0.0016
28827W        W45675   8.784   9.297  12.244 -0.3476 -0.0717  0.2937
28828W        W45676   1.751  13.857  14.237  0.0755 -0.2423  0.0687
28829W        W45677   8.379  14.305  17.373  0.0560 -0.3423 -0.2161
28830W        W45678   0.816  11.292   1.776 -0.1035  0.0053  0.1664
28831W        W45679   2.516   5.409   6.580  0.1808 -0.2711 -0.0422
28832W        W45680   8.584   5.619   4.027 -0.0513  0.1145 -0.1185
28833W        W45681  15.134   4.136   2.579 -0.0937  0.0019 -0.0667
28834W        W45682   6.693   7.807  12.318 -0.1306 -0.0198 -0.3316
28835W        W45683  13.933   2.403   1.251  0.3846 -0.1103 -0.0014
28836W        W45684  16.728  10.489   0.548  0.0352  0.0430  0.2166
28837W        W45685  10.978   9.670  12.278  0.3148 -0.2107  0.1048
28838W        W45686   3.713   5.683   5.400  0.2002  0.0831 -0.1647
28839W        W45687   3.552  10.542   2.580 -0.0342  0.0202 -0.0945
28840W        W45688  15.945   9.171  17.632 -0.2610 -0.0853 -0.1553
28841W        W45689  16.707  10.538  13.173 -0.1404  0.3235  0.0690
28842W        W45690  13.197   4.836  13.244 -0.2837 -0.0793 -0.1016
28843W        W45691   5.681   1.721   0.413 -0.0144  0.2933 -0.2926
28844W        W45692   9.200   9.834  15.455 -0.0742 -0.0770  0.0084
28845W        W45693   1.338  15.360  16.611 -0.0681 -0.2088 -0.0219
28846W        W45694  11.049  14.693   2.637 -0.0602  0.0814 -0.1900
28847W        W45695   3.671   4.512   0.637 -0.0524  0.1945  0.0228
28848W        W45696   1.661   7.940   3.496  0.0738 -0.2403 -0.0488
28849W        W45697   7.302  10.913  13.982 -0.0914 -0.0010 -0.1026
28850W        W45698   3.883  14.723   1.435  0.0112 -0.0186 -0.0640
28851W        W45699   7.378   9.674   0.766  0.0232 -0.1643 -0.0286
28852W        W45700  12.330  12.747   5.048  0.0825 -0.3014  0.2721
28853W        W45701   1.722   3.135  14.323 -0.2691 -0.4507  0.1529
28854W        W45702  16.236  10.417  12.329 -0.1279  0.0328 -0.1556
28855W        W45703   0.537   9.932  15.309  0.5841 -0.3291 -0.1075
28856W        W45704   1.691  12.599  17.356  0.1988 -0.1099  0.0933
28857W        W45705   8.714   0.408  17.479 -0.0530  0.1369 -0.2612
28858W        W45706  12.350  13.225  16.759  0.0374 -0.1764  0.1412
28859W        W45707  10.654   0.791  12.165  0.0256  0.0195 -0.0097
28860W        W45708  11.098  16.043   3.179 -0.1763 -0.2823  0.0552
28861W        W45709   5.343   1.567   4.452  0.1663 -0.3237  0.1474
28862W        W45710  16.566  14.743  16.110  0.0662 -0.2742  0.0109
28863W        W45711   7.070   3.098  13.634 -0.5096 -0.0215 -0.3363
28864W        W45712   2.130   4.068  17.076  0.2239  0.2863 -0.1386
28865W        W45713   3.214   0.963   5.380 -0.0723 -0.0590  0.0301
28866W        W45714  13.093   3.678  11.396  0.2380 -0.2586 -0.1076
28867W        W45715  11.772   8.932  13.492 -0.1071  0.1441  0.0675
28868W        W45716  13.232   7.636   4.719  0.0995 -0.2091  0.2746
28869W        W45717   0.201   5.261   4.744  0.0778  0.0196  0.1399
28870W        W45718   9.075   6.684  14.565 -0.0336 -0.1085  0.3880
28871W        W45719   2.230  16.597  12.799  0.0503 -0.0403  0.1304
28872W        W45720   2.544   6.597  16.150 -0.0398  0.4048  0.3374
28873W        W45721  12.088   7.324   5.155  0.2367  0.2768  0.0175
28874W        W45722   1.476  14.188   5.317  0.3348  0.1873 -0.0113
28875W        W45723  10.617   2.388  14.563  0.3187 -0.0445  0.2947
28876W        W45724   9.202  11.804  13.061 -0.0823 -0.3288  0.2414
28877W        W45725  15.850   6.075   0.932 -0.0178  0.2331 -0.4008
28878W        W45726  10.838  11.240  14.189 -0.3432  0.0019  0.0110
28879W        W45727  14.688  11.917   4.755 -0.0044 -0.2563  0.0751
28880W        W45728   0.140   8.729   6.820 -0.3766  0.0048 -0.0719
28881W        W45729   2.592   7.207  11.621  0.2076 -0.1105  0.0154
28882W        W45730  14.079  14.044   4.095 -0.0263  0.2350  0.2866
28883W        W45731  10.643   8.952  13.182  0.0770 -0.0019 -0.1667
28884W        W45732  15.059  14.724   1.630 -0.1955  0.1317  0.0222
28885W        W45733   3.271  15.727  17.747  0.1307  0.2973  0.0595
28886W        W45734  12.087  15.211  12.481  0.1536 -0.3197 -0.3448
28887W        W45735  11.631  12.575  17.352 -0.0510 -0.2034  0.1061
28888W        W45736   4.114  15.523   5.677 -0.0825  0.0389 -0.3241
28889W        W45737   4.741   1.181   1.348  0.0383  0.0913  0.0670
28890W        W45738  16.340   0.862   5.662  0.3676  0.2485  0.0979
28891W        W45739   0.214   4.024   0.011 -0.1760  0.0364 -0.1683
28892W        W45740   0.697   4.126  15.813  0.1661 -0.1968  0.3384
28893W        W45741  12.774   3.818   4.930 -0.2373 -0.0603 -0.3528
28894W        W45742   9.798  16.499  11.839  0.0875 -0.1434 -0.1306
28895W        W45743   0.961  14.892  14.593 -0.0581 -0.1334  0.2308
28896W        W45744  12.658   3.188  12.960 -0.2683  0.1845 -0.0993
28897W        W45745  11.690   8.883   5.013  0.0058 -0.2968  0.1665
28898W        W45746   5.250  17.135  12.659 -0.0473  0.0864  0.0966
28899W        W45747  14.917   2.551   4.272  0.0169 -0.1481 -0.1735
28900W        W45748  12.568   7.767   0.514 -0.0119 -0.0900  0.0304
28901W        W45749   5.552   4.601   4.881  0.1578 -0.0610 -0.0083
28902W        W45750   2.181   5.032   5.183  0.1862 -0.1754 -0.2373
28903W        W45751   0.942   9.263  15.143 -0.1937  0.0779  0.1155
28904W        W45752  16.337   3.128   1.441  0.0350 -0.1758 -0.0143
28905W        W45753   4.626   3.857   5.656  0.0030  0.0206 -0.1191
28906W        W45754  15.748   5.630  17.419 -0.0878 -0.0161  0.0983
28907W        W45755  17.155  16.656   3.552  0.0950  0.0142  0.0632
28908W        W45756   4.250   8.864  12.721 -0.1947 -0.0096 -0.4018
28909W        W45757  15.008   2.122   3.247 -0.1333  0.1551 -0.1617
28910W        W45758  16.706   7.991  17.159 -0.1440  0.0982  0.1816
28911W        W45759  12.248  13.717  16.802  0.0673 -0.2106 -0.4186
28912W        W45760   8.857   4.378   1.431 -0.2614  0.0232 -0.1591
28913W        W45761  12.977  15.538   2.077  0.0519 -0.1363  0.0475
28914W        W45762   3.218  11.890   5.734 -0.0436 -0.1676 -0.0947
28915W        W45763   2.843   2.521  17.684  0.2610  0.0219 -0.0164
28916W        W45764  10.023  16.122  12.866  0.0586 -0.0251  0.0603
28917W        W45765  16.275   6.197   3.393 -0.1283  0.1998 -0.1465
28918W        W45766   8.460  17.133   4.459 -0.0129  0.0288 -0.0152
28919W        W45767   0.537  10.098   5.977 -0.0344 -0.1782 -0.5080
28920W        W45768   6.092   6.543   3.968 -0.1064 -0.1008 -0.0882
28921W        W45769   6.088   3.525  13.039 -0.1214 -0.0586 -0.0503
28922W        W45770   7.502  12.156   1.324  0.0533  0.2106  0.1247
28923W        W45771   0.882   9.279  14.647  0.1231  0.0001  0.2158
28924W        W45772  14.316   7.542  12.990  0.0040 -0.0739 -0.0871
28925W        W45773   1.114  15.453   5.555 -0.1339  0.0136  0.0787
28926W        W45774  12.361  17.142  12.723 -0.1930  0.0388 -0.0249
28927W        W45775  13.094  11.261   0.420  0.0291  0.0983 -0.1294
28928W        W45776  13.075   5.556  12.092 -0.1218  0.2014 -0.0097
28929W        W45777  11.058  16.021  14.289 -0.0603  0.0747 -0.3760
28930W        W45778   4.613  12.721  15.336  0.1487 -0.2252  0.0112
28931W        W45779  13.722   0.613  13.055 -0.0751 -0.0937 -0.0101
28932W        W45780  11.236   4.510  12.046 -0.0517  0.1543 -0.1323
28933W        W45781   6.352  12.772  15.783 -0.4729  0.3463 -0.0842
28934W        W45782   9.782  11.542  14.574 -0.2916  0.3864  0.0645
28935W        W45783   0.180  15.444  15.724  0.2541 -0.0132  0.1547
28936W        W45784  12.499   4.191  17.725  0.0980  0.0330  0.3525
28937W        W45785   1.498   1.454  13.131  0.1554 -0.3146  0.0364
28938W        W45786   6.949  14.405   0.175  0.2511  0.2765 -0.1107
28939W        W45787   0.461  11.926   4.668 -0.1745  0.2690  0.3122
28940W        W45788  13.670  10.832   1.387 -0.0962  0.1925  0.0588
28941W        W45789  11.888  14.369  12.304  0.3074 -0.1076  0.0023
28942W        W45790   5.894   0.684  13.987 -0.1653  0.0995 -0.0765
28943W        W45791   5.834   3.501   4.119 -0.0591 -0.1983 -0.0144
28944W        W45792  11.992   1.392   4.007  0.1588  0.2485  0.0132
28945W        W45793   9.231   6.345   5.121 -0.3666  0.0296  0.2636
28946W        W45794   9.108  10.323  12.319  0.2049 -0.2699 -0.0331
28947W        W45795   6.582   4.434   4.089  0.1824  0.0992 -0.0192
28948W        W45796   1.250  15.653   3.277 -0.0167  0.0908 -0.0211
28949W        W45797   4.833  13.987   2.736  0.2515  0.0824 -0.0415
28950W        W45798  15.254   2.405  17.655 -0.0010  0.1690 -0.0291
28951W        W45799   9.966   4.373  14.721  0.1409  0.0859 -0.0336
28952W        W45800  13.399  16.419   2.195 -0.2870  0.2330 -0.1590
28953W        W45801   5.160   4.359  15.329 -0.1056 -0.0885 -0.2691
28954W        W45802   2.602  11.522  15.809 -0.0458 -0.1533 -0.2499
28955W        W45803   7.479   1.842  14.665 -0.2597  0.1458  0.1383
28956W        W45804  15.626   9.128  12.624 -0.1854 -0.1248 -0.2473
28957W        W45805   4.068   7.489  12.978  0.3765  0.2194  0.0337
28958W        W45806  16.203   7.287  13.465  0.5049  0.2232  0.0077
28959W        W45807   8.630   1.348   4.361  0.0787  0.5525 -0.0173
28960W        W45808  14.826  12.064   4.297 -0.2242  0.0464 -0.1200
28961W        W45809  16.373   8.735  13.927 -0.0313  0.0601 -0.1031
28962W        W45810  11.753   9.751  13.350  0.0327  0.0674 -0.0572
28963W        W45811  17.120  14.740   0.719  0.1242 -0.1280 -0.1540
28964W        W45812  16.420   6.992   0.617  0.0988 -0.0978  0.2470
28965W        W45813  14.923   3.835   3.353  0.2307 -0.1820  0.1216
28966W        W45814   6.918   2.402   0.593  0.1591  0.0381  0.0869
28967W        W45815  14.034  14.174  12.795  0.1176 -0.2160 -0.0535
28968W        W45816   0.995   8.550   2.300 -0.1760  0.0556  0.2862
28969W        W45817   4.808  15.868  15.256 -0.0351 -0.3377 -0.4002
28970W        W45818   4.860   4.613   4.453  0.0123  0.1042 -0.4079
28971W        W45819  16.787   2.740   4.240 -0.2062  0.4752  0.1205
28972W        W45820   5.028  11.809  13.481 -0.0057  0.1731  0.3115
28973W        W45821  15.479   5.480   2.245  0.0460 -0.2038 -0.0671
28974W        W45822  13.240   2.494  13.852  0.1923  0.2040  0.0106
28975W        W45823   5.192  14.718   4.031 -0.0529  0.0228 -0.0069
28976W        W45824   4.524   3.868   0.446  0.1890  0.2480 -0.0631
28977W        W45825  13.417   5.175   2.264 -0.2123 -0.2282 -0.0646
28978W        W45826   6.930   4.160  17.580  0.0613  0.2578  0.1161
28979W        W45827  10.308  15.247   4.565  0.1533 -0.1934 -0.1684
28980W        W45828   4.074  12.366   3.215 -0.1269  0.1145  0.0332
28981W        W45829  12.456   8.715   5.271 -0.0157  0.2669 -0.0628
28982W        W45830   4.690   8.916   5.562 -0.2974  0.0891  0.0847
28983W        W45831   1.971   0.618  14.863  0.0323 -0.0944 -0.2919
28984W        W45832   6.116  11.202   2.328  0.2495 -0.0187 -0.0779
28985W        W45833  16.825  14.774   4.554  0.3973 -0.0714  0.1569
28986W        W45834  14.970  10.734   1.327  0.0683 -0.0755  0.0509
28987W        W45835   5.897  11.805   0.195  0.0710 -0.2255  0.0439
28988W        W45836   6.041  13.869   6.138  0.2747  0.2654  0.5701
28989W        W45837  14.787   0.774  16.843 -0.0254 -0.2851 -0.0113
28990W        W45838  15.548   1.949   2.539  0.2721  0.2339  0.0609
28991W        W45839   0.392   3.720   3.264 -0.5327 -0.1691  0.1544
28992W        W45840  14.233   4.171  13.630 -0.3900 -0.4217  0.0883
28993W        W45841   8.312   5.685   2.807  0.1900  0.0244  0.2133
28994W        W45842   5.758  16.286   1.011 -0.1457 -0.2337 -0.3236
28995W        W45843   0.993   8.058   3.284  0.2217  0.2518 -0.1765
28996W        W45844  11.916  10.720   2.161 -0.3049  0.1706  0.0344
28997W        W45845   5.044   2.326   4.465  0.2328 -0.1664 -0.2496
28998W        W45846  14.553  12.433   4.425  0.0790 -0.0656  0.1490
28999W        W45847  14.411  16.677   2.022  0.1453 -0.0224  0.1465
29000W        W45848   6.071   4.778  17.326  0.1641  0.1330  0.2225
29001W        W45849  12.874   4.618  14.741  0.0909  0.0020 -0.1581
29002W        W45850  15.898   8.679  17.020  0.2020 -0.1680 -0.3233
29003W        W45851  12.775  11.741  15.799  0.1231 -0.0748 -0.2483
29004W        W45852   6.132   4.811   1.426  0.0976 -0.0635 -0.1456
29005W        W45853  15.274  16.278  12.961 -0.1654  0.0244 -0.0816
29006W        W45854   1.063   9.970   5.983 -0.0012  0.1361 -0.3023
29007W        W45855   9.229   8.437   1.923  0.0439 -0.2722 -0.1222
29008W        W45856   7.260  11.261  11.976 -0.0788 -0.1932  0.1114
29009W        W45857   6.561   0.167   5.622 -0.3585 -0.0419 -0.0175
29010W        W45858   8.567  10.100   5.529 -0.2305  0.1727 -0.1616
29011W        W45859   7.578   6.314   0.686 -0.1913  0.1241 -0.0475
29012W        W45860   7.188   9.058   3.243  0.2019 -0.1025  0.3968
29013W        W45861  14.151   3.624  13.849 -0.1036  0.1700  0.0213
29014W        W45862   3.791  12.300  15.732  0.2076 -0.2904  0.0554
29015W        W45863  15.305  13.856   0.387 -0.1714 -0.1026 -0.1400
29016W        W45864  12.794   1.500   0.724 -0.1314  0.2457 -0.3216
29017W        W45865   9.198   0.665  17.123 -0.0410 -0.0106 -0.1375
29018W        W45866  10.777   8.230   2.204  0.1255  0.1745  0.2654
29019W        W45867   8.049   9.368  14.587  0.0246  0.1428 -0.0159
29020W        W45868  16.593  11.692   1.707 -0.0209  0.1903 -0.0049
29021W        W45869   9.679   6.604   3.520 -0.0545  0.1716 -0.0154
29022W        W45870   5.654   3.476   0.278 -0.0579  0.0181 -0.2277
29023W        W45871   2.771  13.700   1.679 -0.2228  0.1047  0.0284
29024W        W45872   3.680  11.053   3.339  0.1479 -0.2427  0.1202
29025W        W45873   2.681  11.314   2.344 -0.2784 -0.0871  0.1902
29026W        W45874   1.707  16.220   4.632 -0.1433  0.3034  0.0533
29027W        W45875   4.629  13.382  13.100  0.0288  0.1209  0.1701
29028W        W45876  14.987  12.723  15.533 -0.0238 -0.2367 -0.0336
29029W        W45877   1.135  12.987   3.671  0.0082 -0.2830  0.1629
29030W        W45878  16.717  12.413  14.156 -0.0858 -0.3603 -0.0695
29031W        W45879   3.686   0.260  15.234 -0.0562  0.1947 -0.1313
29032W        W45880   7.904  10.956  17.292 -0.0195  0.1047  0.0393
29033W        W45881  10.003   8.211  13.244 -0.0871 -0.0042  0.1045
29034W        W45882   6.263   1.793   4.426 -0.1398  0.0506 -0.2824
29035W        W45883   1.011   6.813   4.722 -0.1553 -0.2747  0.1387
29036W        W45884   6.331   1.329  13.499  0.1793 -0.4250  0.2743
29037W        W45885  12.925   1.436   5.283 -0.2013  0.2201 -0.0606
29038W        W45886   2.410  15.182  16.066  0.0917  0.0201 -0.0273
29039W        W45887  16.336   1.405   4.201 -0.0723 -0.1915 -0.0177
29040W        W45888   5.110  13.067  15.353  0.0053 -0.3896 -0.1886
29041W        W45889   2.701   1.869   6.023  0.1521 -0.1269  0.1781
29042W        W45890   1.310   7.171  12.313  0.0852  0.0818 -0.1574
29043W        W45891   4.137   9.629  16.285  0.0511 -0.1323  0.1245
29044W        W45892   0.083  13.932  15.240 -0.0642  0.3575 -0.2101
29045W        W45893  10.911   8.513  17.767  0.1560 -0.0003 -0.1699
29046W        W45894   7.092   3.948   3.362  0.2416 -0.1457  0.0157
29047W        W45895   1.783  10.833   6.594 -0.0219 -0.0109  0.2931
29048W        W45896  11.532   2.886  13.433  0.1349 -0.0172 -0.2268
29049W        W45897  16.604  15.359   0.268 -0.2526 -0.0674  0.3133
29050W        W45898   0.649   7.698  15.000  0.0716  0.0692  0.1504
29051W        W45899  10.941   3.123   3.209  0.0421  0.0122 -0.0538
29052W        W45900   3.331  14.597  13.882  0.1436  0.2066 -0.1056
29053W        W45901   6.054  14.379  14.710  0.3236 -0.0627  0.3120
29054W        W45902   0.151   0.255  13.618  0.1224  0.2566 -0.0523
29055W        W45903  13.383  13.696   0.876 -0.1201 -0.1677  0.0609
29056W        W45904   9.442  12.295   4.802 -0.2050 -0.1875  0.0941
29057W        W45905  15.965   4.608   5.829 -0.2338 -0.0469  0.0711
29058W        W45906   0.003   5.690  17.104 -0.0472 -0.2151  0.0454
29059W        W45907   8.330   9.856  16.990 -0.1690 -0.1620 -0.1475
29060W        W45908  10.240   0.353  11.638  0.2597  0.0616  0.1314
29061W        W45909  16.069   7.075  11.791 -0.1934  0.4088 -0.0902
29062W        W45910   1.050   6.316  12.996  0.4559 -0.0074 -0.3930
29063W        W45911   4.060   8.969  13.501  0.3306  0.0404 -0.1075
29064W        W45912   5.649  13.729   0.019 -0.3309  0.1138  0.0125
29065W        W45913  11.654  13.837   0.163  0.0144 -0.1250  0.2793
29066W        W45914  13.723  10.237  16.846  0.0066  0.2249  0.0089
29067W        W45915   7.140   1.402   1.408  0.1265 -0.2979 -0.1025
29068W        W45916  11.448  16.887  13.777 -0.1992 -0.0364 -0.0899
29069W        W45917   8.710   2.373  14.513 -0.2236  0.2581 -0.0272
29070W        W45918  14.657   5.723  17.763  0.2008 -0.0383  0.1287
29071W        W45919  15.753   2.658  17.279 -0.1691  0.0831 -0.3025
29072W        W45920  15.856   3.749   1.528  0.1477 -0.5571  0.2984
29073W        W45921  14.417   5.993  12.343 -0.2509 -0.4756 -0.1966
29074W        W45922  11.924  16.041   1.375 -0.4023  0.0633 -0.0056
29075W        W45923   0.165   3.548   1.568 -0.5864  0.2012  0.1300
29076W        W45924   8.471   0.369   1.935 -0.2394  0.0204 -0.1329
29077W        W45925  13.475  15.765  12.816  0.1503  0.1325  0.4072
29078W        W45926  15.414  14.815  12.759 -0.2884 -0.1250  0.0221
29079W        W45927  16.360  15.240   1.216 -0.0051 -0.2107  0.0521
29080W        W45928   3.819   6.265   5.207  0.0415  0.3933  0.0439
29081W        W45929  13.539   8.915  13.686 -0.0748 -0.0059 -0.1572
29082W        W45930  14.765   4.064   5.385 -0.0213 -0.2952 -0.1422
29083W        W45931   5.195   9.407   3.427 -0.0633  0.4237  0.3259
29084W        W45932  12.355  11.308  11.272 -0.1751 -0.2370 -0.1231
29085W        W45933   8.810  14.748   2.046  0.2545 -0.0278 -0.0431
29086W        W45934  10.797  15.882   1.828  0.1333 -0.1402 -0.0267
29087W        W45935  16.641   9.542  11.809  0.2169  0.0149 -0.0133
29088W        W45936   7.495  15.667  11.695  0.1857  0.0043 -0.3245
29089W        W45937   7.403  16.476   0.394 -0.1033 -0.2843 -0.0395
29090W        W45938   4.353  13.169   2.591  0.2436 -0.1665  0.0912
29091W        W45939   1.172  13.829  13.317 -0.3586  0.1813 -0.0397
29092W        W45940  15.905   0.461  14.357  0.0275 -0.0407 -0.0140
29093W        W45941   5.031   4.546   4.985 -0.0308 -0.1473  0.1043
29094W        W45942  10.473  16.698   1.216 -0.0732  0.3764  0.1443
29095W        W45943   2.618   2.210  16.797 -0.0895 -0.0476 -0.2379
29096W        W45944   0.617   5.033  15.545 -0.1546 -0.1565 -0.3016
29097W        W45945   3.978   0.834   4.022 -0.0081 -0.1663 -0.3521
29098W        W45946   1.141   4.609   1.268  0.2624  0.1226 -0.1112
29099W        W45947  15.697   4.433   2.230 -0.0712  0.1006 -0.0221
29100W        W45948   3.519   8.853   2.963 -0.2267 -0.1687 -0.2094
29101W        W45949   9.799   5.794   2.651 -0.1515  0.0572 -0.0379
29102W        W45950  14.029  13.953   1.873  0.1959  0.0788 -0.1811
29103W        W45951  13.140  16.869  17.634  0.0139 -0.0648 -0.1128
29104W        W45952   8.902   9.140   4.010 -0.0004 -0.0717 -0.1456
29105W        W45953  16.952   7.348  12.958  0.3287 -0.2855  0.2516
29106W        W45954  10.455  16.797  14.621 -0.0500 -0.1071  0.3725
29107W        W45955   2.477   9.648   0.053 -0.0544 -0.0617 -0.0538
29108W        W45956   2.344   5.015  15.187 -0.1175  0.1436  0.4843
29109W        W45957   7.614  10.805   1.585  0.3358 -0.1009  0.2243
29110W        W45958   1.681   8.264  14.815 -0.0959 -0.0688  0.5408
29111W        W45959  10.662  16.497   2.859 -0.0901  0.0371 -0.5063
29112W        W45960  11.255  15.088  14.070  0.1382  0.2280 -0.0117
29113W        W45961  14.629   2.026  15.431 -0.0931  0.0458 -0.1118
29114W        W45962   3.309   1.278  13.178 -0.0902  0.0096 -0.6406
29115W        W45963  14.347   9.726  15.461 -0.0551 -0.0314  0.1667
29116W        W45964   2.400   4.484  14.270  0.4777  0.1296 -0.0071
29117W        W45965  16.359  13.585  13.140 -0.1025  0.2258  0.0863
29118W        W45966   7.949   3.153  13.409 -0.0806  0.1423 -0.1576
29119W        W45967   8.878   1.990   1.741 -0.0031  0.0379 -0.1422
29120W        W45968   2.209  11.440  13.484  0.0310  0.3400  0.1610
29121W        W45969   6.694   2.516   5.570 -0.4265 -0.0028  0.0306
29122W        W45970  14.146  14.378   1.647 -0.0731  0.1856 -0.3852
29123W        W45971   8.157  15.321  17.625  0.2450 -0.2299  0.0938
29124W        W45972   5.619  10.747  16.268 -0.0339  0.0420 -0.0787
29125W        W45973  12.203  16.176  14.458  0.0410 -0.1403 -0.0110
29126W        W45974  15.097  16.053   4.278  0.1397 -0.3753 -0.1038
29127W        W45975   2.681  15.802   2.878 -0.0112  0.2532  0.0651
29128W        W45976   3.360  12.628  17.577 -0.0234  0.0724 -0.1623
29129W        W45977  15.326   3.323  13.825 -0.1889  0.0496 -0.0792
29130W        W45978   2.329   7.964   2.455  0.1216  0.2197  0.0961
29131W        W45979  16.593   9.066  12.021  0.3154 -0.0155  0.2384
29132W        W45980  12.972  10.070  15.423  0.0378 -0.2092  0.0047
29133W        W45981   9.782   3.283  13.867 -0.1612  0.3781  0.2297
29134W        W45982   0.473   2.654  16.218 -0.0147 -0.2056  0.0190
29135W        W45983   0.895  15.714  12.670 -0.3321 -0.1718 -0.3115
29136W        W45984  14.477  15.119  14.690  0.1215 -0.1860 -0.0846
29137W        W45985   1.582  14.754  14.649 -0.1528  0.2759 -0.1928
29138W        W45986  15.179   0.360  13.240 -0.0965  0.1985  0.2593
29139W        W45987   3.275   8.068   5.129  0.0404 -0.1407 -0.0993
29140W        W45988  15.756  12.462  14.691  0.1900 -0.0396 -0.0915
29141W        W45989   5.297  14.125   5.301  0.2157 -0.3415  0.0587
29142W        W45990   7.706  11.914   0.385  0.1450  0.1789 -0.0751
29143W        W45991   6.950  10.702   2.181 -0.0020  0.1708 -0.0740
29144W        W45992   8.426  13.503   2.502  0.2570 -0.1709 -0.3085
29145W        W45993   0.375   6.213   4.311 -0.0679 -0.0113 -0.1504
29146W        W45994   4.048   3.186   4.905  0.1281 -0.0245  0.1346
29147W        W45995  12.578   6.311   0.437  0.0361 -0.2281 -0.0940
29148W        W45996   1.362  15.608   2.126 -0.1989 -0.3262 -0.1087
29149W        W45997   8.204  15.375  16.409  0.1379  0.0719  0.1979
29150W        W45998   2.343  15.919  15.424  0.1243 -0.1186 -0.1178
29151W        W45999  13.768   2.097   1.865 -0.2949 -0.1018  0.0784
29152W        W46000  14.003  16.439   0.600 -0.2359  0.2897  0.0614
29153W        W46001   2.790   5.783  16.485 -0.1969 -0.0597  0.0492
29154W        W46002   5.521   2.310  13.519 -0.0380 -0.0394  0.1225
29155W        W46003  14.779   9.873   1.096  0.1030 -0.1770  0.0226
29156W        W46004   7.052   2.229   4.213 -0.2375 -0.2527 -0.1518
29157W        W46005   0.044  13.854   3.263 -0.3025 -0.0291 -0.4169
29158W        W46006   9.241   5.008  14.450 -0.0537 -0.0203  0.2436
29159W        W46007   9.109   9.039   0.525 -0.3598 -0.2374 -0.2110
29160W        W46008   9.897  11.241  16.045  0.2921 -0.0811 -0.1168
29161W        W46009  13.365  15.067   1.895  0.3479 -0.2428  0.1082
29162W        W46010   2.928   6.905   3.678 -0.4016  0.2478  0.1338
29163W        W46011  16.148   4.437  15.923  0.3476  0.2179 -0.2805
29164W        W46012  12.128   3.646   3.447  0.1829 -0.2431 -0.1429
29165W        W46013   8.948  14.596  14.242 -0.1953 -0.0084  0.0152
29166W        W46014   9.643   1.822  11.453  0.1610 -0.1130 -0.0988
29167W        W46015  10.198  12.130   1.275 -0.1981  0.0180  0.1116
29168W        W46016   4.685   7.801   5.471 -0.0679 -0.4334 -0.1891
29169W        W46017   4.386   8.269   0.736 -0.1407  0.0689  0.0438
29170W        W46018   4.826   8.790  13.659 -0.0004 -0.0831  0.1346
29171W        W46019  12.846   3.319   5.253  0.1036  0.1957 -0.0791
29172W        W46020   7.950   8.980   4.961 -0.0218 -0.3153 -0.0613
29173W        W46021  13.415   2.860  14.707 -0.0162 -0.2368 -0.0210
29174W        W46022  16.762   5.751  17.401  0.2169 -0.0596  0.0786
29175W        W46023  16.678   6.114   1.537  0.2242  0.0960  0.1352
29176W        W46024   0.790   5.318  16.719 -0.5219  0.1543 -0.0074
29177W        W46025  16.717   6.824   2.603  0.0460 -0.0581  0.0380
29178W        W46026   9.850   2.124  13.878  0.1247 -0.1778  0.2256
29179W        W46027   3.826   4.296  17.435 -0.0799  0.3577  0.0821
29180W        W46028  14.419   0.587  12.305  0.1243  0.2533  0.1078
29181W        W46029   4.947  12.885  14.456  0.2836 -0.3271 -0.3397
29182W        W46030   1.259  15.411  13.962  0.1342  0.0109 -0.2432
29183W        W46031  11.491  12.559   1.151  0.0678  0.2941 -0.3643
29184W        W46032   0.398   8.503  15.639  0.1105 -0.1443 -0.0263
29185W        W46033   4.310  12.794   5.544  0.0630 -0.1168 -0.0019
29186W        W46034   1.648   1.095  16.168 -0.0243  0.0109  0.2347
29187W        W46035   3.790  10.798  12.970 -0.0254  0.1871  0.1717
29188W        W46036   2.427   1.948  12.257 -0.4835 -0.1515  0.2511
29189W        W46037  16.296   4.731   4.087  0.0033 -0.1000 -0.1564
29190W        W46038  12.749  16.752  14.023 -0.1097  0.1480 -0.1273
29191W        W46039   0.180  10.254  14.405 -0.1948 -0.1896 -0.0621
29192W        W46040   7.921   5.829  12.930 -0.1226 -0.0078 -0.4254
29193W        W46041   3.748   2.331  16.661  0.0331 -0.0868 -0.0661
29194W        W46042   4.508  16.071   1.417 -0.0155  0.3576 -0.0616
29195W        W46043   8.539   7.035  16.506  0.0256  0.1098 -0.0872
29196W        W46044  14.277  14.061  13.347  0.1778  0.1462  0.2313
29197W        W46045   8.859  12.598  14.609  0.2588  0.0684  0.0023
29198W        W46046   3.865   5.194   5.248  0.1354  0.0080  0.0449
29199W        W46047  14.248   0.203  13.140 -0.2324  0.0208  0.2120
29200W        W46048   0.339   3.030  16.553  0.1136  0.0579 -0.4965
29201W        W46049   2.167  12.439   2.200 -0.0622 -0.0982  0.0578
29202W        W46050  15.440   7.661   5.338 -0.0993  0.0821 -0.1520
29203W        W46051  14.224  14.943   1.519  0.0022  0.2475 -0.0507
29204W        W46052  10.214   4.572  15.482  0.1598  0.2001 -0.0650
29205W        W46053  10.147  14.318  14.753 -0.1239  0.0145 -0.1547
29206W        W46054   0.017  15.540   0.451 -0.1454  0.2785  0.0293
29207W        W46055   1.809   5.446  15.492 -0.2109  0.0645  0.0531
29208W        W46056   3.582   3.019  16.437  0.0581  0.1850 -0.0038
29209W        W46057  13.646  11.114   2.581  0.1519 -0.0348 -0.0357
29210W        W46058   9.104   1.191  13.695  0.2229  0.2448 -0.1599
29211W        W46059   8.253   5.518  16.295 -0.3352  0.1024  0.0203
29212W        W46060   8.860  13.034  17.431  0.0167  0.2883  0.0544
29213W        W46061  11.088   1.093  15.536 -0.0776 -0.2454 -0.1675
29214W        W46062  13.044  12.803  13.537  0.4079  0.0381  0.1627
29215W        W46063   4.349  14.702   4.505 -0.2151 -0.1629 -0.2117
29216W        W46064   3.366  15.872  14.619  0.0026  0.0258 -0.1835
29217W        W46065   3.301   7.305  14.068 -0.2289 -0.1780  0.0907
29218W        W46066  16.291   9.934  17.766 -0.3825 -0.2759  0.0745
29219W        W46067   4.760  14.710   2.469 -0.0372  0.4577  0.0527
29220W        W46068   1.984   8.449  16.327  0.2600 -0.1593 -0.0763
29221W        W46069  10.055  12.532  13.730  0.1379  0.0039 -0.2988
29222W        W46070   3.607  17.065  15.753  0.0206  0.0187  0.2293
29223W        W46071   0.562  13.532   1.110  0.1612  0.1563  0.1611
29224W        W46072   0.180  13.781   1.913  0.0780 -0.3012  0.1639
29225W        W46073  15.860   7.717  17.590  0.1770  0.0559 -0.0189
29226W        W46074  17.108  11.019  17.537 -0.0794  0.2126 -0.3456
29227W        W46075  14.368   2.616   1.501 -0.1977  0.0984  0.0296
29228W        W46076   1.102   4.783   2.845 -0.0403  0.4637 -0.0502
29229W        W46077   3.419   1.348  17.341 -0.1923  0.0039  0.1520
29230W        W46078  15.367   9.476  16.977  0.2654 -0.3444  0.0540
29231W        W46079  12.145   4.397  13.768  0.0871 -0.2308  0.2283
29232W        W46080   5.027   1.369   2.855  0.0068  0.2994 -0.0918
29233W        W46081   4.261   0.035  15.095 -0.0769  0.2582 -0.0064
29234W        W46082   7.138   7.573   0.412  0.1358 -0.0107 -0.1930
29235W        W46083   9.071  12.110  11.099 -0.0399  0.1404  0.1003
29236W        W46084   8.325   1.237   3.282  0.0021 -0.1396 -0.1351
29237W        W46085  12.855   2.241   2.027  0.0785 -0.0517 -0.1733
29238W        W46086   2.070   3.140   5.143  0.0772  0.1679  0.1361
29239W        W46087   9.830   2.894  13.480 -0.4056  0.1600 -0.0334
29240W        W46088   6.632  16.457  14.161  0.1209  0.3521  0.1986
29241W        W46089   7.185  10.638  12.468  0.0825 -0.1158  0.0818
29242W        W46090   4.198   2.966   0.737  0.1251 -0.2805 -0.0063
29243W        W46091  13.671   7.886  16.260  0.3508  0.1198  0.0854
29244W        W46092   4.318   1.165   1.688  0.2839  0.3606 -0.1009
29245W        W46093   3.281   9.557  14.465 -0.3358  0.2106 -0.1687
29246W        W46094  12.942   5.059  12.310  0.0301  0.4473 -0.1157
29247W        W46095  15.948   3.993   4.299  0.0554  0.1670  0.1353
29248W        W46096   7.970  12.490  16.746 -0.0230  0.0562 -0.0243
29249W        W46097   0.688   2.742  14.282  0.2423 -0.1156 -0.3568
29250W        W46098   8.531   6.319   4.138 -0.1264  0.1792 -0.3230
29251W        W46099   7.999  12.510  14.118 -0.0410 -0.0149  0.2265
29252W        W46100   4.381   6.295   3.150 -0.3560  0.0232 -0.0529
29253W        W46101  13.953   9.547  17.224  0.0169 -0.0840  0.1621
29254W        W46102   5.167  14.410   5.744  0.1467  0.0532 -0.1029
29255W        W46103   0.923  11.616   5.161 -0.1601 -0.0563  0.1070
29256W        W46104  10.670   8.476   4.596  0.2163 -0.0737  0.3042
29257W        W46105  14.921   2.658  13.407 -0.1906  0.0170  0.0146
29258W        W46106   8.248  15.506   0.837  0.3309 -0.0295 -0.1351
29259W        W46107   0.371   9.243  13.935 -0.3098 -0.1850 -0.1413
29260W        W46108   1.381   2.873   1.597  0.0303  0.3779 -0.0482
29261W        W46109   9.594   8.316   2.795  0.0836  0.0129  0.0157
29262W        W46110   9.905  10.702  14.986 -0.1457 -0.0236 -0.0218
29263W        W46111   5.335   3.538   2.758 -0.2118  0.1725  0.0746
29264W        W46112   8.271   8.427   1.989  0.3332 -0.1460 -0.2146
29265W        W46113  15.656   5.880  16.454  0.1209  0.0298 -0.0920
29266W        W46114   3.173   6.296  12.919  0.2478  0.0238 -0.0059
29267W        W46115  14.500   1.820  13.758 -0.1718 -0.0920  0.3203
29268W        W46116   5.939   2.786   3.690 -0.2552  0.1390  0.2210
29269W        W46117   8.720  16.157  14.253  0.0315  0.2710  0.0771
29270W        W46118   7.854   4.655   4.384 -0.0887 -0.2459 -0.3164
29271W        W46119   1.562   1.531   5.469  0.2499 -0.0550  0.0341
29272W        W46120   6.802   2.776   2.511 -0.1145 -0.0049 -0.0612
29273W        W46121  13.323   3.128   1.952 -0.1943 -0.1100  0.0077
29274W        W46122  12.657  14.394   4.238  0.0327  0.0167  0.1979
29275W        W46123   6.471  15.641   3.979 -0.0930 -0.1041  0.1383
29276W        W46124  11.417   9.364  16.637  0.0123  0.0669  0.2295
29277W        W46125   4.134   6.448   1.930  0.1099 -0.1066 -0.0239
29278W        W46126   2.513  10.751   3.411 -0.2030 -0.2187 -0.2730
29279W        W46127   3.831   8.136   2.144 -0.0380 -0.3479  0.0090
29280W        W46128  14.292   9.614  16.192 -0.0300 -0.1294  0.3650
29281W        W46129  15.509  10.206  12.711 -0.1783  0.0193  0.1453
29282W        W46130  13.800  14.990   3.931  0.0174  0.3057 -0.0043
29283W        W46131   8.133   6.206  15.749  0.0200 -0.0111 -0.0222
29284W        W46132  14.012  15.342  16.033  0.0727  0.2831  0.1677
29285W        W46133   0.869   6.595  13.408  0.3573 -0.2261  0.0555
29286W        W46134  13.318   9.134   3.765  0.2394  0.2581 -0.0973
29287W        W46135  12.155  11.155   3.710  0.2057  0.0113 -0.0044
29288W        W46136  11.443  16.365  12.217 -0.1983 -0.1223 -0.0021
29289W        W46137  14.734  11.812   0.488 -0.3058 -0.1712 -0.0464
29290W        W46138  10.169   3.730  16.543 -0.0328  0.0217  0.1962
29291W        W46139  11.833  16.875  16.534  0.1069 -0.0463  0.2299
29292W        W46140   4.252   6.418   4.975  0.1384 -0.0738  0.0395
29293W        W46141  10.177  14.132  17.038  0.2708 -0.0718 -0.0311
29294W        W46142   1.698   9.032  14.039 -0.2132  0.3510  0.0339
29295W        W46143  14.343   8.501   5.098 -0.1295 -0.0156 -0.2602
29296W        W46144   7.036   4.560   0.316 -0.0726 -0.1835  0.1250
29297W        W46145  13.533   8.611  16.948 -0.2825 -0.1850 -0.3145
29298W        W46146  10.736  12.343  15.186  0.1898  0.2114  0.2139
29299W        W46147   7.120  13.370  13.287  0.0040 -0.3426 -0.0953
29300W        W46148   0.897  15.229   2.735  0.1777 -0.3126  0.0697
29301W        W46149   9.329  15.970   2.738 -0.0741 -0.2343  0.1231
29302W        W46150  10.659  11.528   3.534  0.1507 -0.1638 -0.1213
29303W        W46151   4.694   5.790   3.975  0.1456  0.1631 -0.1891
29304W        W46152  13.902  11.738  16.424 -0.2991 -0.1166  0.3293
29305W        W46153   1.625  15.187   4.342 -0.1821 -0.2041 -0.1928
29306W        W46154   8.515   4.007   3.345 -0.2035 -0.2813  0.1914
29307W        W46155  10.089   8.137   5.743 -0.0330 -0.4077 -0.0811
29308W        W46156  16.171   0.623   0.298  0.1447 -0.0685  0.1486
29309W        W46157  12.464   3.023  13.964 -0.1409 -0.1485  0.0502
29310W        W46158  14.641   8.207  12.069 -0.2852 -0.2717  0.1460
29311W        W46159  14.023   8.810  16.632  0.0682 -0.1535 -0.2626
29312W        W46160   2.076   5.090   2.172  0.0386  0.0305 -0.3740
29313W        W46161   7.593  14.727  12.378 -0.1194 -0.3131 -0.0282
29314W        W46162  13.766  14.270  14.574 -0.0595 -0.0652 -0.0064
29315W        W46163  10.932  14.245   2.444  0.3854  0.0342  0.1446
29316W        W46164   9.218   5.524   4.555  0.0197  0.0810 -0.3976
29317W        W46165   7.241   4.644   1.344 -0.2481  0.1703  0.0654
29318W        W46166  15.802  15.602  15.378 -0.0492  0.0017  0.0695
29319W        W46167   3.106   9.893  14.894  0.1503 -0.0279 -0.1217
29320W        W46168   0.208   2.080   1.562 -0.1942 -0.0172 -0.0857
29321W        W46169  17.114   4.104  12.701 -0.0177  0.1653 -0.0580
29322W        W46170  11.620   4.510   4.788  0.0759  0.0819 -0.0701
29323W        W46171   0.134   4.578  12.532 -0.1796  0.2040 -0.2265
29324W        W46172   7.929   9.333   2.974 -0.1543 -0.0536  0.2744
29325W        W46173   5.297  12.711   4.565 -0.0908 -0.0590 -0.1255
29326W        W46174  14.196   2.085  11.884 -0.2146 -0.0611 -0.1334
29327W        W46175   2.829   3.543   2.297 -0.1165  0.3266 -0.0277
29328W        W46176  14.838  15.034   0.673 -0.0227 -0.1895 -0.0208
29329W        W46177   7.285   9.554  14.418  0.0970 -0.2201 -0.0381
29330W        W46178   1.715  10.993  14.979  0.0525 -0.0622  0.1029
29331W        W46179  13.356  12.758   5.382 -0.0728  0.0614  0.2368
29332W        W46180   7.528  13.260  12.403 -0.2063 -0.3117 -0.3169
29333W        W46181   6.621  13.274  13.487 -0.0773 -0.2117 -0.0270
29334W        W46182  16.112   5.019  12.571 -0.2497  0.0472 -0.0407
29335W        W46183   8.808  16.819   3.282  0.1130 -0.1129  0.0144
29336W        W46184   0.637  11.788   3.167  0.1357 -0.0961 -0.2805
29337W        W46185   5.023   8.644   3.408  0.2620 -0.1206  0.4599
29338W        W46186  15.186   5.388  12.446  0.1237 -0.2401  0.0573
29339W        W46187  16.495   3.804  17.094 -0.3112 -0.4522  0.0779
29340W        W46188   9.209  16.095   4.143  0.2348 -0.1473  0.0768
29341W        W46189   3.778   5.744  14.921 -0.0734  0.1504 -0.0598
29342W        W46190   5.119   5.217   2.759  0.4393  0.0634  0.0548
29343W        W46191  13.124   5.218   3.427 -0.3311 -0.1168  0.3109
29344W        W46192   2.880  11.444   4.584 -0.3318 -0.3464  0.1002
29345W        W46193   4.958   0.238   3.426 -0.0273  0.1254 -0.0446
29346W        W46194  11.432   0.393   2.660 -0.0908 -0.1239  0.3467
29347W        W46195   8.044  10.876   0.630  0.1112  0.0312 -0.1713
29348W        W46196   8.311  12.576   2.737 -0.2482 -0.0650  0.0036
29349W        W46197  10.747   4.537   2.646 -0.1146  0.1845  0.1655
29350W        W46198   6.929   6.973  15.005  0.1911 -0.4254  0.1314
29351W        W46199  11.524   4.474   0.749  0.1217 -0.1473  0.0147
29352W        W46200   9.819   0.492   0.369 -0.0695  0.0139 -0.1886
29353W        W46201   7.565  15.461   3.538 -0.0395 -0.2675  0.0201
29354W        W46202   5.974  15.594   1.545  0.0892 -0.1196 -0.1742
29355W        W46203   6.592   7.051  16.961 -0.0515  0.1299 -0.1908
29356W        W46204   5.600   9.575   2.319 -0.1932  0.0270 -0.2218
29357W        W46205   9.608   9.091  13.031 -0.2533 -0.1147  0.2390
29358W        W46206   2.121   1.044  17.440  0.1097  0.1261 -0.0971
29359W        W46207   5.200  13.486  17.746  0.0277  0.0971  0.0921
29360W        W46208   4.478   8.877   1.311  0.2174 -0.1152  0.0346
29361W        W46209   8.299   8.735   5.247  0.1805 -0.4936  0.2536
29362W        W46210   7.588   4.483  14.652  0.1744  0.2133  0.2299
29363W        W46211  11.314   7.529  15.426  0.1000 -0.2467  0.0795
29364W        W46212  12.865   0.564   4.874 -0.0261  0.3757  0.0488
29365W        W46213   3.473  15.526   3.694 -0.1554 -0.0552 -0.0439
29366W        W46214   7.317   4.821   3.076 -0.0021  0.1071  0.1446
29367W        W46215  16.798   4.941  13.201 -0.0851 -0.2765  0.0734
29368W        W46216   9.255   8.870   3.669 -0.1011 -0.1886  0.0790
29369W        W46217   4.768   4.817   5.355 -0.0230 -0.4282  0.0156
29370W        W46218  11.853  14.339   1.714  0.1108 -0.1090  0.1248
29371W        W46219   1.368   9.793   5.068  0.0408 -0.1775  0.0450
29372W        W46220  12.417   2.185  13.327 -0.2079  0.0066 -0.2341
29373W        W46221   3.136   0.052   1.470 -0.0460 -0.2027 -0.4365
29374W        W46222   8.621  12.206   3.505 -0.3282  0.2495  0.1258
29375W        W46223  12.292  11.325   4.172  0.0048 -0.2119 -0.2914
29376W        W46224   1.823   9.641  14.043 -0.5210 -0.1924 -0.0126
29377W        W46225  12.106   0.025   4.592  0.1082 -0.0402  0.1096
29378W        W46226   9.636  14.895  13.896  0.0664  0.1347 -0.6063
29379W        W46227  12.755   5.255   2.109  0.2665  0.0677 -0.0622
29380W        W46228  15.093  10.476   0.240  0.1629 -0.0812  0.2481
29381W        W46229  14.583   8.901   3.709 -0.0922 -0.2910 -0.0042
29382W        W46230   6.543   1.779  15.589  0.2526  0.2059 -0.2376
29383W        W46231  12.873   3.814   5.400 -0.1544 -0.0013 -0.1616
29384W        W46232   7.954  14.349   4.103 -0.3193 -0.0299 -0.0979
29385W        W46233   9.096   2.846  16.252  0.0247  0.3094  0.0055
29386W        W46234   2.073   4.762  12.805 -0.1530  0.1823  0.0140
29387W        W46235   7.248   7.057  13.992  0.0816 -0.2246 -0.1102
29388W        W46236  14.503   3.206  12.809 -0.1357  0.0824 -0.0834
29389W        W46237  14.318   8.130  17.457 -0.0378  0.2273  0.2540
29390W        W46238   9.119   1.231   0.309 -0.0263  0.0609  0.1379
29391W        W46239  13.561   7.550  15.550 -0.3648  0.2673 -0.0323
29392W        W46240  10.279  13.948  13.851  0.0452  0.0563 -0.0298
29393W        W46241   4.197  11.255   4.996  0.1409 -0.0891 -0.0606
29394W        W46242   4.682  11.812   2.799  0.0254 -0.0945 -0.2401
29395W        W46243   4.354   1.108   0.599  0.1593  0.2367  0.2109
29396W        W46244  12.560  12.380  14.967  0.0094 -0.1019  0.3022
29397W        W46245  14.747   5.146  14.983  0.1363  0.1367 -0.1542
29398W        W46246   6.939  11.813   4.993  0.1381 -0.1380 -0.1989
29399W        W46247   7.470   4.257   3.225  0.1872 -0.2886  0.2628
29400W        W46248   0.303   6.899  16.692 -0.0011  0.1193  0.0252
29401W        W46249   5.268  15.457  15.250 -0.0534 -0.0963 -0.0822
29402W        W46250   4.072  11.986   6.302 -0.3176 -0.1136  0.2693
29403W        W46251   4.906   1.825   4.617  0.1306 -0.2417  0.0727
29404W        W46252   5.044   9.912   3.924 -0.2583  0.2173 -0.2776
29405W        W46253   8.670   3.281  16.732  0.1820 -0.1845 -0.1308
29406W        W46254   1.379   5.447  12.799  0.2052 -0.3535  0.0546
29407W        W46255   1.584   2.089  13.453  0.0518 -0.0628  0.2211
29408W        W46256   4.808  10.439  16.314 -0.1600  0.1164 -0.4149
29409W        W46257   7.797   8.587  14.600 -0.0710  0.1145 -0.1114
29410W        W46258   4.797  12.390   6.373 -0.0506  0.4022  0.3293
29411W        W46259   6.216  13.931  16.266  0.3345 -0.1170  0.1624
29412W        W46260  10.448  14.799  11.710 -0.0872 -0.0001  0.1843
29413W        W46261   8.889   2.122  14.854  0.4092 -0.3459 -0.0885
29414W        W46262  15.588  13.543  13.226 -0.0200  0.1026  0.0175
29415W        W46263   9.689  14.954   2.990 -0.0540  0.2677  0.0543
29416W        W46264  15.940  10.472   5.296  0.0938  0.0522 -0.1169
29417W        W46265   6.189  13.150  12.749 -0.0485 -0.0762  0.1291
29418W        W46266   1.571  11.626  14.389 -0.3452  0.0461 -0.3301
29419W        W46267   0.393   5.572  12.789  0.0742 -0.1486  0.0541
29420W        W46268   6.605  15.731   4.662 -0.2977 -0.1293  0.0045
29421W        W46269  12.228  14.125   3.121  0.1937  0.0264 -0.3691
29422W        W46270  15.522   8.888   4.270 -0.1061 -0.1934  0.2723
29423W        W46271   3.404   6.350   1.723  0.1837 -0.0626  0.3235
29424W        W46272   9.517  15.815   3.807  0.2598 -0.1959  0.1152
29425W        W46273   2.890   1.507   5.195  0.0754 -0.3748 -0.0378
29426W        W46274   9.394  13.519   0.688 -0.2287 -0.1121  0.0147
29427W        W46275   4.758   3.566  11.761 -0.0424 -0.1084  0.0204
29428W        W46276  15.239  11.201  14.688 -0.0759 -0.0394 -0.1212
29429W        W46277   3.291   5.887   1.967 -0.0626 -0.0306 -0.1308
29430W        W46278   7.185   1.969   4.986  0.1343  0.2093 -0.0748
29431W        W46279  16.604  15.580   2.534  0.1130 -0.0218  0.0178
29432W        W46280   7.117  14.682   3.055  0.0226 -0.0071 -0.3520
29433W        W46281   1.127  13.443   4.115 -0.0964  0.0521 -0.1070
29434W        W46282   7.361   2.997  12.841 -0.1302  0.0479 -0.0356
29435W        W46283   6.043   9.206   0.187 -0.1144  0.0552 -0.0253
29436W        W46284  16.536  12.033  16.973  0.0277  0.1716  0.3829
29437W        W46285   2.287   3.104   5.675 -0.0652 -0.1937 -0.0670
29438W        W46286  11.292  10.545  14.639  0.2790  0.1076  0.1273
29439W        W46287   4.169   6.316  17.282 -0.0329 -0.0794 -0.0990
29440W        W46288  16.756  11.082   3.383  0.0030 -0.0798  0.1784
29441W        W46289   2.767   1.378  13.155  0.1065 -0.1324  0.2348
29442W        W46290  10.216  16.177   1.346  0.0899 -0.0534 -0.0109
29443W        W46291   3.235   4.318  14.340 -0.1173  0.2534  0.2290
29444W        W46292   6.322   1.412   2.598  0.1579 -0.0317 -0.1163
29445W        W46293   9.559   0.835   0.153  0.0074  0.3467  0.0241
29446W        W46294   7.499   6.972   3.492 -0.2523  0.0383 -0.5923
29447W        W46295  11.444   9.920   4.756  0.1838 -0.1505 -0.1551
29448W        W46296   4.533  14.253   2.207 -0.2463 -0.0054 -0.0897
29449W        W46297  11.972   0.251   0.778  0.0673 -0.0432  0.2678
29450W        W46298   1.145   7.292  14.657 -0.0875 -0.2648  0.1975
29451W        W46299  11.538   5.950  11.542 -0.1080  0.1025  0.1549
29452W        W46300   8.935   8.564   3.991 -0.0114 -0.0076  0.1112
29453W        W46301   1.723   4.136   0.630  0.1731  0.0889 -0.1739
29454W        W46302   3.022   5.284  13.828 -0.0925  0.1018 -0.0872
29455W        W46303  12.604  14.163   0.413  0.1776  0.0151  0.0273
29456W        W46304   8.506   6.563  14.541  0.0427  0.2763  0.2484
29457W        W46305  15.009   3.673  13.684  0.1674  0.0394  0.1979
29458W        W46306   9.497  14.551  15.295 -0.3764  0.2272  0.1444
29459W        W46307   7.779  15.945  15.448 -0.2412  0.0914 -0.2222
29460W        W46308   4.674  14.714  12.447 -0.0578 -0.3019 -0.1611
29461W        W46309   0.930  12.215  14.655  0.0930 -0.1408  0.0308
29462W        W46310   7.672   7.212  13.186 -0.0361  0.2625  0.0493
29463W        W46311  14.901  10.704  16.644 -0.2531 -0.0249 -0.0465
29464W        W46312  16.165  11.820  15.187 -0.1610 -0.1632 -0.2414
29465W        W46313   2.243  13.694  17.442  0.1626 -0.2350  0.0557
29466W        W46314   1.101   2.545  13.973 -0.0534 -0.1732 -0.0694
29467W        W46315  11.345  14.619   0.575  0.0060  0.0400  0.1337
29468W        W46316  10.333   0.638  13.477  0.1033  0.2129  0.0802
29469W        W46317   9.750  14.009   2.691  0.1655 -0.0298 -0.2012
29470W        W46318   5.544   8.628   3.726 -0.1158 -0.1107  0.2673
29471W        W46319   2.811  11.377  17.691  0.0770 -0.2502 -0.0266
29472W        W46320  16.273  16.625  14.818  0.2257 -0.0975 -0.2807
29473W        W46321  15.755   2.726   3.065 -0.0944 -0.2010  0.2568
29474W        W46322  16.281   9.519  16.819 -0.2585 -0.3219 -0.3346
29475W        W46323   3.166  12.054   5.240  0.2231 -0.2979 -0.0494
29476W        W46324  10.402  15.591  12.132 -0.0244 -0.3501 -0.0443
29477W        W46325   8.333  15.744   2.447 -0.0220 -0.0649  0.2921
29478W        W46326  15.337   9.697   2.284 -0.1948 -0.0702 -0.1388
29479W        W46327  15.572  12.028  16.239 -0.1443 -0.1601  0.0106
29480W        W46328  10.596  16.756  14.125 -0.2705  0.1050 -0.1793
29481W        W46329  15.607   3.399   2.437  0.1390 -0.0750  0.2260
29482W        W46330   9.691   3.952  12.637 -0.0753 -0.1243 -0.1857
29483W        W46331  10.171  11.610  14.189  0.0425 -0.0706 -0.0715
29484W        W46332   9.478   1.738  16.299 -0.1874 -0.2279  0.0389
29485W        W46333   4.770   4.094  16.535 -0.0605 -0.0539  0.1486
29486W        W46334   0.293   4.496  16.900 -0.0523 -0.0541  0.1161
29487W        W46335   5.259  10.565   3.003  0.4284 -0.3842  0.0786
29488W        W46336  15.541   2.997  16.961 -0.3042 -0.3585 -0.1581
29489W        W46337  12.734  15.721   3.826 -0.1903 -0.1419  0.0455
29490W        W46338   0.013   4.341   2.033 -0.1854 -0.1074  0.0002
29491W        W46339  17.045   7.323   3.917  0.3372  0.1805 -0.0559
29492W        W46340   3.725   6.342   0.334 -0.0833 -0.1836  0.2856
29493W        W46341   1.692   2.027  12.809  0.2106  0.0982 -0.2184
29494W        W46342   2.571   0.362  13.209 -0.4384  0.1491 -0.1425
29495W        W46343   0.931  10.510  14.767  0.2606 -0.0944  0.0345
29496W        W46344   6.348  14.573  15.522  0.0587 -0.3843 -0.2714
29497W        W46345   0.588   2.746   3.055 -0.2846  0.5187  0.0836
29498W        W46346   9.932   3.292  16.317  0.1261  0.0531  0.0277
29499W        W46347   0.771   5.011   0.695  0.2832  0.3200 -0.1281
29500W        W46348   4.165   9.672   1.477 -0.2187 -0.1049 -0.1094
29501W        W46349   9.215   5.116  15.345  0.1592 -0.0498 -0.0210
29502W        W46350   6.477   5.930  17.577 -0.1647 -0.0510  0.1401
29503W        W46351   0.114  17.089   3.400  0.1175 -0.2895 -0.1892
29504W        W46352   7.013   6.346  12.348 -0.1642  0.0088 -0.1589
29505W        W46353  12.916  10.630  14.850  0.2825  0.2972  0.1468
29506W        W46354   1.052  10.060  14.677  0.3994  0.1564 -0.1091
29507W        W46355  16.457  15.996   4.536 -0.0774  0.1864  0.1471
29508W        W46356   7.986   0.098   4.056 -0.2375 -0.0627  0.0414
29509W        W46357   3.479   3.181   2.925  0.0884 -0.1057 -0.1097
29510W        W46358  15.038  15.440   2.805  0.0179 -0.2191 -0.1938
29511W        W46359   1.548  16.292   2.243 -0.0244 -0.2762 -0.2184
29512W        W46360   3.859   6.321   0.828 -0.2106  0.0676  0.0554
29513W        W46361   0.293   6.320  15.276  0.1633  0.0532  0.1439
29514W        W46362  12.432   4.740   6.038 -0.0383 -0.0240 -0.0275
29515W        W46363   8.485   4.605   5.272 -0.1758  0.0026  0.0416
29516W        W46364   5.735  11.451  17.104 -0.1007 -0.0429  0.1716
29517W        W46365  11.058   6.648  14.207 -0.0404 -0.1064  0.2337
29518W        W46366  11.768  13.341  12.418  0.0915 -0.1194  0.0983
29519W        W46367   0.011  14.238  16.218 -0.0110  0.1116  0.2404
29520W        W46368  15.027   2.271  17.228  0.0892  0.0964  0.0749
29521W        W46369   5.690  16.447   2.706 -0.0256  0.0870  0.0076
29522W        W46370   2.124   3.345  16.271 -0.0649 -0.2111  0.1786
29523W        W46371   4.315   6.720  13.499 -0.1297  0.2334 -0.1310
29524W        W46372  10.021   2.513   0.393 -0.1023 -0.1734 -0.0668
29525W        W46373  14.627   5.096  17.481 -0.0024  0.2459 -0.2541
29526W        W46374  15.935   6.246  14.778  0.0713 -0.0459  0.0113
29527W        W46375   4.782   2.483  17.320 -0.0134  0.1668  0.2341
29528W        W46376   2.076  15.697   5.433  0.4146 -0.1054  0.3505
29529W        W46377  15.957  16.264  16.267  0.1205  0.0687 -0.3143
29530W        W46378   4.022  11.475   4.041  0.2410  0.2608  0.1896
29531W        W46379  10.355   4.446  16.460  0.1420 -0.0095  0.0669
29532W        W46380   6.358   4.099  16.222  0.1113 -0.0096  0.0407
29533W        W46381   9.879   9.392   4.208 -0.2257  0.1277  0.1021
29534W        W46382  14.827  12.356  12.563  0.0316 -0.0088  0.1244
29535W        W46383   9.298  16.778   0.017  0.2112  0.1739  0.2314
29536W        W46384   8.934  11.995   4.510  0.0967 -0.1462 -0.2527
29537W        W46385   5.480   1.746  12.598  0.3455 -0.0249  0.1172
29538W        W46386   1.961   2.190   1.229  0.2968 -0.2339  0.0107
29539W        W46387   3.252  12.237   3.997 -0.0094 -0.0494  0.1330
29540W        W46388   7.393   5.633   1.282 -0.2682 -0.6331 -0.0428
29541W        W46389   7.161   0.951   5.451 -0.0793 -0.0222 -0.0343
29542W        W46390   2.615  11.317   0.399 -0.0074 -0.0136 -0.2268
29543W        W46391   0.600   3.457  14.249 -0.3331 -0.1060  0.2180
29544W        W46392   7.293  10.001  14.797 -0.2093  0.0199  0.1997
29545W        W46393   2.240  16.506  17.179  0.1664  0.2629  0.0816
29546W        W46394   7.635  10.952   3.725 -0.0352  0.1577 -0.1338
29547W        W46395   8.395  14.014  14.525  0.1447  0.1509  0.2323
29548W        W46396  10.915   0.949  12.955 -0.1573  0.1803 -0.0368
29549W        W46397  15.375   6.875  13.697 -0.2275 -0.1683  0.0146
29550W        W46398  11.874  12.331   2.398  0.0242  0.0494 -0.2231
29551W        W46399  12.529  10.478   5.193 -0.0593  0.1333 -0.3418
29552W        W46400   8.481  15.320  13.113 -0.0213  0.2362 -0.1116
29553W        W46401   8.714  13.585   4.906 -0.1324 -0.1378  0.0699
29554W        W46402   2.955   2.864  14.093  0.1462  0.0600  0.1966
29555W        W46403   1.069   5.815  14.810 -0.2559  0.1703 -0.2881
29556W        W46404   1.166   3.929   5.359  0.2638 -0.4197  0.1937
29557W        W46405  15.452   6.292  14.913  0.2499 -0.2329 -0.1784
29558W        W46406  12.936   1.190   2.153 -0.0069 -0.5803  0.1051
29559W        W46407   3.812   5.425   3.735 -0.0404 -0.4286 -0.0135
29560W        W46408   8.351   4.200  14.408  0.0344  0.0247  0.0168
29561W        W46409  15.838  11.251   2.368  0.1480  0.0695  0.1234
29562W        W46410   1.650   6.213   4.879  0.1911  0.1450 -0.2066
29563W        W46411   1.129   3.565  15.525  0.2692  0.1796  0.2273
29564W        W46412  16.284  15.953  14.177 -0.2791  0.3125  0.0256
29565W        W46413   8.528   5.292  14.838 -0.0584  0.0688 -0.0221
29566W        W46414   9.623   1.408  14.560  0.2115 -0.1163 -0.3219
29567W        W46415  14.169   1.276   3.565  0.3462 -0.3498  0.0539
29568W        W46416  10.681  16.271  14.030 -0.2811 -0.1552 -0.2448
29569W        W46417  16.546   7.813   5.137  0.3231 -0.0661  0.2324
29570W        W46418  10.072   0.289   2.777 -0.0351 -0.1884  0.0255
29571W        W46419  10.040   6.599  17.066  0.2364 -0.4644 -0.0423
29572W        W46420   3.241  16.904  13.519  0.0504  0.2114 -0.2951
29573W        W46421   0.981  10.272  15.255 -0.2091  0.2035 -0.3312
29574W        W46422  12.812   1.836  13.367  0.1909 -0.1163 -0.0916
29575W        W46423  12.218  12.392   0.700  0.0499  0.1145 -0.3170
29576W        W46424  13.543   9.336  11.009  0.1969  0.2861 -0.2083
29577W        W46425  15.365   9.287   1.481 -0.0898  0.0002  0.0599
29578W        W46426  10.751  10.865  15.416 -0.1162 -0.1027 -0.2266
29579W        W46427  13.661   0.826  15.336  0.1300 -0.0875  0.2469
29580W        W46428  12.708  12.870   0.590 -0.1169 -0.5301 -0.0450
29581W        W46429  15.598   1.883  15.919 -0.1402  0.0767 -0.1367
29582W        W46430   6.894   0.187  16.650  0.1362 -0.0269 -0.2423
29583W        W46431  10.184   4.333  17.626 -0.1217  0.0050 -0.1013
29584W        W46432   7.202   0.900  16.086 -0.3359 -0.2023  0.0967
29585W        W46433  13.915  13.765  13.622 -0.3249 -0.0379  0.2160
29586W        W46434   0.699   6.582  15.468 -0.1359 -0.0821 -0.1383
29587W        W46435  13.697   1.943  16.572 -0.0116 -0.1013  0.1224
29588W        W46436   0.513   2.227  15.572 -0.1162  0.0715  0.3957
29589W        W46437   2.106  15.261  13.850  0.4794  0.0245  0.2899
29590W        W46438   2.821   8.238  15.569 -0.0600 -0.1416  0.2026
29591W        W46439  15.880  14.954   1.947 -0.3195  0.0140 -0.1084
29592W        W46440  13.370   5.029  17.133 -0.3327 -0.3085 -0.2400
29593W        W46441  11.545  15.407  14.475 -0.1366  0.3957  0.0949
29594W        W46442  16.834   7.006   4.739  0.1763 -0.4642 -0.3479
29595W        W46443   2.327   1.066  16.991  0.0487  0.2242 -0.1091
29596W        W46444   4.647  10.377   1.618  0.0769  0.3694 -0.1110
29597W        W46445  16.100   1.509  16.033  0.0292 -0.2965  0.1032
29598W        W46446  11.922   8.213  16.026  0.1005 -0.1552 -0.1848
29599W        W46447   8.891   5.212  15.745 -0.1505 -0.0601  0.0383
29600W        W46448  11.474  16.469  16.123 -0.1413  0.1189  0.2058
29601W        W46449   2.303   3.107  13.760 -0.0567  0.2715  0.0632
29602W        W46450   3.411  11.094   2.575  0.2005 -0.1248 -0.0244
29603W        W46451   9.069   2.384   2.587 -0.1030  0.1456  0.1898
29604W        W46452  14.599  10.341   1.168 -0.1599 -0.1623 -0.2411
29605W        W46453   2.223   0.327   2.637 -0.0480 -0.2416 -0.0081
29606W        W46454   6.730   2.170  13.189  0.2781 -0.0159 -0.1509
29607W        W46455  16.445   7.783   0.249 -0.1755 -0.1967  0.1483
29608W        W46456   8.212   0.574  16.857 -0.0169 -0.0181  0.2183
29609W        W46457   9.901  12.550  13.154  0.1700  0.0337 -0.3791
29610W        W46458   9.126  15.517  13.905  0.3778 -0.0637  0.0711
29611W        W46459   0.089   4.919  16.770  0.0169  0.1619  0.1605
29612W        W46460   5.345  15.350  17.587  0.1725 -0.0064  0.1740
29613W        W46461   9.588  15.956  12.596 -0.0314  0.0799 -0.0044
29614W        W46462  15.610   0.508  13.503  0.1175  0.0509  0.0346
29615W        W46463  16.509   9.205  13.885 -0.0102 -0.0234 -0.0858
29616W        W46464   0.564   3.623  15.568  0.0155 -0.0140 -0.2046
29617W        W46465   1.792   3.092   0.876 -0.1644  0.1093 -0.1602
29618W        W46466   5.108   9.152   0.615 -0.5430 -0.0121 -0.0634
29619W        W46467   7.702   2.804   1.485 -0.0465 -0.1162 -0.0842
29620W        W46468  10.951   8.064  14.269 -0.3536 -0.1055  0.5016
29621W        W46469   8.151   1.575   5.589 -0.2645 -0.0098  0.2682
29622W        W46470   2.559  12.146   3.441 -0.0521  0.1197  0.1427
29623W        W46471  12.000  15.309  13.017 -0.0631  0.3779  0.0428
29624W        W46472   7.273   4.616   5.237 -0.0765 -0.0335  0.0526
29625W        W46473   6.810   7.936   2.917 -0.0110 -0.1178  0.0138
29626W        W46474  10.474   8.284   3.373  0.1350  0.0985 -0.0736
29627W        W46475  10.848   9.492  13.334  0.1091 -0.2010  0.1361
29628W        W46476  13.951  16.960   3.963 -0.1645 -0.1352  0.2491
29629W        W46477   2.713  10.949  13.454  0.0079  0.0034 -0.0785
29630W        W46478  16.320  14.273   3.168  0.0326  0.1511 -0.0362
29631W        W46479  15.639   1.024  16.695 -0.1715  0.1282 -0.2128
29632W        W46480  14.668  10.870  13.520  0.0924 -0.0344 -0.0867
29633W        W46481  13.030  10.338  16.459  0.1602  0.0359  0.0241
29634W        W46482   4.097   8.418  14.294 -0.0160  0.1857  0.0228
29635W        W46483  15.561  10.791  12.762  0.2077  0.3768  0.1807
29636W        W46484   3.400   5.061   1.386  0.0463 -0.4038  0.0832
29637W        W46485  10.642  16.028   5.180 -0.1922  0.1548 -0.2257
29638W        W46486   8.948  13.563  13.897 -0.1635 -0.1895 -0.2301
29639W        W46487   1.613  11.162  12.911  0.1085 -0.3006 -0.1180
29640W        W46488   5.638  12.221   4.764 -0.1666 -0.0251 -0.2278
29641W        W46489   8.687  11.986   0.132  0.1403  0.0576  0.1126
29642W        W46490   3.322  13.740   3.046  0.2012 -0.1201  0.2293
29643W        W46491   6.076   4.589   0.649 -0.0080  0.1766  0.0565
29644W        W46492   4.573   8.978   1.893  0.1148  0.0085  0.0885
29645W        W46493  14.279  14.131  14.579  0.2170 -0.2070 -0.2611
29646W        W46494  11.997  14.193  13.304 -0.0144  0.0615 -0.0230
29647W        W46495  16.652   1.447  15.106  0.0935 -0.1195 -0.1941
29648W        W46496   6.122  16.185  16.371 -0.1345 -0.0191  0.1100
29649W        W46497  14.721   7.213  16.396 -0.0446  0.1152 -0.0541
29650W        W46498   7.166  16.711  17.659 -0.1598  0.0482  0.3107
29651W        W46499   0.937  14.994   5.591 -0.2549 -0.0097  0.2622
29652W        W46500   4.394  16.853  12.607 -0.1247  0.0257 -0.0411
29653W        W46501  10.986  14.372   5.421  0.0077  0.2059  0.1432
29654W        W46502   4.883  11.344   0.427  0.1604  0.4063 -0.2695
29655W        W46503   9.180   1.850  13.168  0.0387  0.1447 -0.0538
29656W        W46504   7.378   2.178   2.012  0.0186 -0.2250 -0.1494
29657W        W46505  10.255  15.656  13.035  0.1569  0.3784 -0.0349
29658W        W46506  16.487  16.609   2.654 -0.1521 -0.0314 -0.1443
29659W        W46507  16.577  16.326  14.494 -0.0530 -0.2790 -0.4214
29660W        W46508   7.540   6.185  12.601  0.1374 -0.0612 -0.1356
29661W        W46509  11.414   7.901  12.893 -0.0903  0.0852  0.1943
29662W        W46510  11.120   7.451  12.358  0.4025  0.1830 -0.2742
29663W        W46511   2.417   3.481  13.510 -0.2326 -0.1451  0.1193
29664W        W46512  16.737   7.365   0.201  0.0567  0.2083 -0.3185
29665W        W46513   5.926  12.018  14.892  0.0827  0.1384 -0.1484
29666W        W46514  11.042  11.486   0.766  0.1751 -0.2034  0.1147
29667W        W46515  15.691  11.736  12.712 -0.0011  0.0078  0.0719
29668W        W46516  11.945  15.362  14.805 -0.2665  0.1658 -0.0953
29669W        W46517   9.760  13.317  13.787  0.3296 -0.0228 -0.0591
29670W        W46518  10.039  13.079  15.402 -0.1413  0.1778 -0.1558
29671W        W46519  12.935  11.356  13.136 -0.0386 -0.4676 -0.0489
29672W        W46520   6.703  12.222   0.389  0.0751  0.0574 -0.0791
29673W        W46521  15.060   8.713   3.672  0.0567  0.2563  0.0465
29674W        W46522  14.541  12.639   2.648 -0.1615 -0.0446  0.0359
29675W        W46523   6.137  16.388  13.985 -0.1176  0.1038  0.2528
29676W        W46524  14.025   8.631   4.201  0.0745  0.0779  0.1776
29677W        W46525   8.704   2.006   2.489 -0.0710  0.0529 -0.0823
29678W        W46526   3.056   5.529   4.795  0.1646 -0.0552 -0.0227
29679W        W46527   4.290   1.978   1.062  0.1166  0.4002 -0.1629
29680W        W46528   8.965   8.361  13.715 -0.3093 -0.4753 -0.2126
29681W        W46529   8.386   8.207  17.210 -0.0526 -0.1178  0.0095
29682W        W46530  12.554   7.520  13.480  0.0675  0.0594 -0.0042
29683W        W46531  15.720   8.046   3.377  0.1452 -0.1386 -0.1254
29684W        W46532   8.916   3.223   2.030 -0.0915 -0.1516  0.1217
29685W        W46533   9.018   4.354   0.940 -0.1761 -0.0482  0.2542
29686W        W46534   8.720   3.994   1.189 -0.0050  0.0556  0.1131
29687W        W46535  13.355  10.867  17.120  0.2116  0.2904 -0.2455
29688W        W46536  10.345   6.980  17.021 -0.0123  0.0321 -0.0421
29689W        W46537   6.921   2.177  17.036  0.0428 -0.1741 -0.3157
29690W        W46538  12.479   2.133  17.494  0.0120 -0.0379 -0.0211
29691W        W46539   0.859   8.240   4.873  0.0368  0.0357  0.1786
29692W        W46540  12.425   0.231  17.784 -0.3127  0.0074 -0.4220
29693W        W46541  11.720   9.931   5.762  0.0665 -0.1772 -0.0303
29694W        W46542   8.935   6.197  14.762  0.0043  0.1338  0.0545
29695W        W46543   0.730   6.020   2.732 -0.0563  0.1505  0.0144
29696W        W46544   2.424   2.815   0.123  0.0343 -0.2691  0.1136
29697W        W46545   3.862   9.523   1.044 -0.0731 -0.0883  0.0780
29698W        W46546   7.180  12.312  16.352  0.0888 -0.0236  0.1978
29699W        W46547  12.346  17.099  11.291 -0.0883  0.0318  0.0122
29700W        W46548   7.620  10.948  15.498 -0.0936 -0.1199 -0.1337
29701W        W46549  12.662   6.182   3.063  0.1077 -0.1553  0.1733
29702W        W46550   4.710  12.556   2.386  0.0938  0.0631  0.2251
29703W        W46551   4.937   0.432   4.684 -0.0858 -0.2063 -0.0735
29704W        W46552  12.372   3.370  17.167 -0.0459 -0.2171  0.2776
29705W        W46553  16.836   2.518   2.730  0.1132 -0.0066 -0.2223
29706W        W46554   8.517   2.398  16.654 -0.1775  0.2104 -0.1980
29707W        W46555  15.368  11.081  13.851  0.1671 -0.2164 -0.0446
29708W        W46556   7.400   4.280   0.037  0.0721  0.1555 -0.0918
29709W        W46557  10.625  15.719  14.414 -0.1169  0.0752 -0.3777
29710W        W46558  12.619   3.632  13.252 -0.1626 -0.1518  0.1100
29711W        W46559  14.029  10.632  14.630  0.2145  0.1303  0.0954
29712W        W46560   9.178   4.268  17.645 -0.3147 -0.2864 -0.3147
29713W        W46561  15.222  16.260   2.284  0.0906  0.1153 -0.1578
29714W        W46562  10.618  11.434  11.468  0.0488  0.1393  0.1992
29715W        W46563   7.679   1.838  16.696 -0.2111  0.0933  0.0603
29716W        W46564   9.486   0.296  14.774  0.1313 -0.1806  0.0720
29717W        W46565   5.221   7.406  16.205  0.1435  0.2775  0.3272
29718W        W46566  14.328  11.622   4.904  0.1545  0.1935  0.1559
29719W        W46567   6.139   3.244   3.727 -0.1539  0.3661  0.0849
29720W        W46568  12.167   7.790   1.928  0.0182 -0.1967 -0.1530
29721W        W46569   3.128  13.324   2.871  0.1298 -0.3259  0.0918
29722W        W46570  12.913   3.920   1.519  0.2306  0.3647 -0.2556
29723W        W46571  12.844  12.892   1.126  0.0731  0.0789  0.0425
29724W        W46572  11.100   3.075  16.611 -0.1871 -0.1472  0.1577
29725W        W46573   7.433   9.147  15.166 -0.0027  0.3254  0.0899
29726W        W46574   8.489   2.416   3.155 -0.1518  0.0970  0.1945
29727W        W46575   6.580   0.914  13.192  0.2209  0.0161  0.1176
29728W        W46576  10.941   6.064  16.894  0.2762  0.4507 -0.2494
29729W        W46577  14.273   8.233  16.710 -0.0040  0.1886 -0.3629
29730W        W46578   4.291  16.795   1.883 -0.1559 -0.0127  0.1374
29731W        W46579   7.041   0.533  17.513  0.1179  0.2446  0.3278
29732W        W46580   4.929   6.352  12.463 -0.1859  0.3555 -0.0926
29733W        W46581  11.038   4.599  13.007 -0.0856  0.1448 -0.0607
29734W        W46582   7.424   7.695  16.230 -0.0618  0.2326  0.2266
29735W        W46583   3.227   8.775  13.355  0.4574 -0.1638 -0.1062
29736W        W46584   1.098   3.410   5.565  0.0050 -0.0395 -0.0318
29737W        W46585   7.371   2.341   4.602 -0.2224 -0.0327  0.0631
29738W        W46586   4.738   4.051  13.400  0.1398  0.2616 -0.0023
29739W        W46587   1.630   6.374  14.458  0.2149 -0.2419  0.1514
29740W        W46588  15.837  10.401   5.828 -0.0146  0.0453 -0.1973
29741W        W46589  11.809   7.906   4.260  0.2845 -0.4231  0.2198
29742W        W46590  10.095   5.241  12.566  0.0198 -0.3580  0.1620
29743W        W46591  16.376  11.222  16.618  0.1235  0.0300 -0.0477
29744W        W46592   8.383   0.258   1.367 -0.0371  0.1872 -0.1818
29745W        W46593   8.533   6.098  12.501 -0.0553 -0.0648  0.2116
29746W        W46594   6.433   6.384  13.141 -0.0126  0.0203  0.2800
29747W        W46595  13.162  13.812  16.306  0.0930  0.1798 -0.2739
29748W        W46596  10.911   7.732   5.468  0.0764 -0.0535 -0.0015
29749W        W46597  10.953  14.147   4.225 -0.0961  0.0485 -0.3211
29750W        W46598  14.421   2.898  14.533  0.0286 -0.0713  0.0349
29751W        W46599   6.892  13.139  13.878 -0.3200 -0.0506 -0.1443
29752W        W46600   9.719  15.863   1.317  0.1797 -0.0671  0.0627
29753W        W46601   1.391   8.207   5.042  0.3955 -0.1884  0.1144
29754W        W46602   0.863  16.131  16.373  0.4232  0.0762 -0.2630
29755W        W46603   9.771  14.452   4.181 -0.1104 -0.1633  0.0585
29756W        W46604   8.180   7.773  15.804  0.4258 -0.0090 -0.0215
29757W        W46605  10.337  10.632   5.419  0.0943  0.1271 -0.0922
29758W        W46606   2.444   9.681  12.904 -0.0233 -0.1514  0.0289
29759W        W46607   6.415  11.603  16.458  0.1462 -0.2711 -0.0331
29760W        W46608  16.360   9.976   0.513  0.1003  0.1970 -0.0639
29761W        W46609   1.310   6.477   3.937  0.0820  0.1064 -0.0054
29762W        W46610   3.075  13.621   0.456 -0.0788 -0.2000  0.1070
29763W        W46611  15.747   9.924  17.631  0.0142 -0.0482 -0.3465
29764W        W46612   2.152  11.125   4.578  0.0481  0.0470  0.2412
29765W        W46613   0.605  11.541   0.455  0.1167 -0.1710  0.1992
29766W        W46614   9.493   8.492  17.224  0.1998 -0.0428 -0.0017
29767W        W46615   6.741   8.905  15.836 -0.0722  0.0720 -0.0958
29768W        W46616   4.454  13.787   5.096 -0.0685 -0.2197 -0.0737
29769W        W46617   9.103  15.129   2.878 -0.3517 -0.0766 -0.0039
29770W        W46618   4.751   7.161   4.393 -0.0651  0.0791 -0.0976
29771W        W46619  15.237  16.079   3.223  0.0410 -0.0766  0.0477
29772W        W46620   5.458   4.883  13.755 -0.2480 -0.1594  0.1688
29773W        W46621   7.771  15.315   4.776  0.1208  0.0568 -0.0630
29774W        W46622   3.359   7.446   1.752 -0.0395 -0.5363  0.3262
29775W        W46623   1.631   4.932  15.852  0.0567 -0.2051 -0.1119
29776W        W46624   5.812   9.328  16.791  0.1651  0.1128 -0.0654
29777W        W46625   6.362  11.287   1.380 -0.1386 -0.0311 -0.2152
29778W        W46626  16.772   2.151   5.891  0.0530  0.0558  0.0284
29779W        W46627   5.198   6.755   1.793  0.0890 -0.2790 -0.2619
29780W        W46628  12.124  16.348   4.158 -0.0369 -0.0222  0.1600
29781W        W46629   4.716  12.158  13.401  0.0214  0.1019  0.1311
29782W        W46630  14.823   9.677  12.929  0.1491  0.0505 -0.1697
29783W        W46631   5.924   7.264   1.952  0.2777 -0.0522 -0.1113
29784W        W46632   9.931   5.069   5.268 -0.3794 -0.2330 -0.2385
29785W        W46633   2.313  14.822   1.387 -0.2519 -0.1168  0.0314
29786W        W46634   1.140   5.199   1.127 -0.0192  0.1111 -0.1122
29787W        W46635   2.772   2.843  14.646  0.1001 -0.0302  0.1530
29788W        W46636  13.442   6.212  12.639  0.4885  0.1487  0.3145
29789W        W46637   9.910   5.329  14.716  0.0701  0.2159 -0.0816
29790W        W46638  16.975   0.683  17.350  0.2088  0.0709 -0.0910
29791W        W46639   8.069  11.335   3.952  0.0263 -0.1506 -0.0234
29792W        W46640   7.097   9.390  16.969 -0.0762  0.1090 -0.3541
29793W        W46641   6.766   5.833  12.170  0.0695  0.1003  0.1684
29794W        W46642   6.967  16.766  14.711  0.0548  0.0057 -0.2773
29795W        W46643   5.655   9.351  15.712  0.0796 -0.2006 -0.0306
29796W        W46644  12.459  16.409  13.338 -0.4263 -0.1681 -0.1592
29797W        W46645   2.528  11.014  14.341 -0.0713  0.2164 -0.1203
29798W        W46646   0.953   6.798   2.586  0.2209  0.0450 -0.0439
29799W        W46647  15.234   0.015   3.384  0.1228 -0.0465 -0.2411
29800W        W46648  16.212  15.263   1.757 -0.0217 -0.1553  0.0346
29801W        W46649  11.872   9.202   4.655  0.1559  0.2396 -0.0555
29802W        W46650   8.221  16.566   1.519 -0.1142  0.1882  0.0116
29803W        W46651   2.699   7.977   2.103 -0.2293 -0.0423  0.0290
29804W        W46652   5.906  11.414  13.422  0.0128 -0.2170 -0.3105
29805W        W46653  11.735  15.835  16.504  0.4386 -0.1151 -0.1787
29806W        W46654   8.637  13.796  12.123  0.3340 -0.0371 -0.0055
29807W        W46655   7.035   6.153   5.149  0.1269 -0.0170 -0.0241
29808W        W46656   6.733   9.129  17.231 -0.2132  0.2994 -0.0848
29809W        W46657  16.143  14.849  12.327  0.2076  0.0525 -0.0138
29810W        W46658   3.393   7.668  17.175  0.1329  0.1982  0.0192
29811W        W46659  12.483   7.011  13.381  0.0379  0.0211 -0.1030
29812W        W46660   9.247  10.433   3.802  0.1844 -0.0647 -0.1264
29813W        W46661   2.290  11.915   1.157 -0.1022 -0.5010 -0.2487
29814W        W46662   5.310   1.063   0.217  0.0794 -0.5495  0.3244
29815W        W46663   1.415   2.022  15.313  0.2815  0.0548 -0.0839
29816W        W46664   8.445   8.604   4.202  0.1387 -0.0014  0.0557
29817W        W46665   9.180   3.990   2.659 -0.1958  0.0863  0.2435
29818W        W46666   7.996   1.897  11.407  0.5662 -0.0507 -0.3488
29819W        W46667  10.598  10.551   1.265 -0.0340  0.1580  0.2342
29820W        W46668   2.565   3.358   0.884 -0.3541 -0.1967 -0.0114
29821W        W46669   8.591   3.555  15.425 -0.0218 -0.1355  0.0873
29822W        W46670  14.790  12.774   3.083 -0.0783 -0.0754  0.0163
29823W        W46671  10.343  16.187   2.474 -0.0699 -0.0896  0.3969
29824W        W46672   8.639  14.087   4.886 -0.1946 -0.3364  0.1117
29825W        W46673  14.607   6.004   3.056  0.2347 -0.1667 -0.0086
29826W        W46674   1.016   1.547  12.223  0.1662  0.1656 -0.1194
29827W        W46675  12.989   5.134  14.479  0.1237 -0.1534  0.1832
29828W        W46676   1.401  16.474   6.384  0.2926 -0.3441  0.1806
29829W        W46677  11.753  14.860  13.778 -0.2052 -0.2128 -0.1871
29830W        W46678   0.747  10.931  16.343 -0.1665  0.2864  0.1789
29831W        W46679   3.589   0.301   1.515  0.0306  0.2242  0.0363
29832W        W46680   4.620  11.054  13.393  0.1560  0.0463  0.2246
29833W        W46681  10.868   4.486   2.051  0.1783  0.1981  0.0515
29834W        W46682   4.421   5.000  13.297  0.0837  0.2303  0.2264
29835W        W46683   3.662  12.515  13.773 -0.3588 -0.1982 -0.0421
29836W        W46684   7.968   9.573  16.002 -0.4408 -0.0964  0.0673
29837W        W46685   2.588   8.996   5.452  0.4940  0.1285  0.2823
29838W        W46686   7.134   2.127   3.302 -0.1114  0.0620  0.0407
29839W        W46687  14.009   0.097  16.979  0.2907  0.1953 -0.3547
29840W        W46688   2.119   9.039   1.059  0.3617  0.1421 -0.1686
29841W        W46689   4.567   3.323  16.015  0.2295 -0.5939 -0.2188
29842W        W46690   7.349   6.361  15.107 -0.2832 -0.0640  0.0240
29843W        W46691   2.678  12.162   5.117  0.3450 -0.1768  0.0563
29844W        W46692  16.595   3.133   3.224  0.3049  0.1211  0.1899
29845W        W46693   4.202  15.123  12.533  0.0158  0.1116 -0.2055
29846W        W46694   7.505  16.174  12.603 -0.2692 -0.0450 -0.2571
29847W        W46695  12.104  10.232  14.994  0.4314  0.0621 -0.2444
29848W        W46696  10.443  11.871  13.431  0.1306  0.0902 -0.0868
29849W        W46697  11.065   2.189  17.155 -0.0062  0.1174  0.3032
29850W        W46698  10.248   4.128  10.965  0.2707  0.0106 -0.0648
29851W        W46699   3.852   8.222   4.900  0.1643  0.0826 -0.0589
29852W        W46700   2.417  12.064  15.104  0.0963 -0.0377 -0.0075
29853W        W46701   7.278  15.534   2.523 -0.0543  0.1484  0.1713
29854W        W46702  12.981   7.323  14.558  0.0285  0.0702 -0.1545
29855W        W46703  14.529   4.048  15.374  0.2578  0.1020 -0.2420
29856W        W46704   7.761   5.018  15.609 -0.0267  0.1364 -0.0178
29857W        W46705   1.483  15.181   3.720 -0.3079 -0.2082  0.3326
29858W        W46706  13.814   8.509  15.373 -0.1024  0.2996 -0.0281
29859W        W46707   8.319  15.111  13.689 -0.2155 -0.4861  0.1660
29860W        W46708   3.024   1.405  17.030  0.1088  0.2040 -0.1297
29861W        W46709   9.092   7.424  12.941 -0.2004 -0.1842  0.1452
29862W        W46710   4.898  15.140  16.600 -0.1239 -0.0140 -0.0171
29863W        W46711  11.110  13.968  14.897 -0.0482 -0.1083  0.0516
29864W        W46712   2.912  15.694   2.388 -0.0046  0.1134 -0.2383
29865W        W46713   8.232  15.627   4.009 -0.0344 -0.3625  0.3111
29866W        W46714   1.448  10.217   2.247  0.4595 -0.2030 -0.1170
29867W        W46715   3.994  12.439  14.161  0.0416  0.0418  0.1411
29868W        W46716   7.291   9.950   3.041  0.0556  0.0224  0.0105
29869W        W46717  10.239  11.726  16.938 -0.0287  0.3483 -0.0727
29870W        W46718   3.989  16.126   3.204  0.0155  0.0316 -0.2629
29871W        W46719   1.577   3.814   0.304  0.0773 -0.0503 -0.0884
29872W        W46720   1.498   3.365  17.433 -0.0078  0.3609  0.1467
29873W        W46721  16.117  10.854   4.893 -0.1014 -0.3319 -0.1409
29874W        W46722  12.005   3.145   2.306 -0.1345  0.0383  0.0848
29875W        W46723   7.377   4.849   0.128  0.0157  0.1118  0.2643
29876W        W46724   8.715  14.757   1.033 -0.0505  0.1417  0.0333
29877W        W46725   7.925   1.200  17.264 -0.1056 -0.1232 -0.0348
29878W        W46726  15.986   7.488  15.422  0.0754  0.2659  0.0085
29879W        W46727   0.727  15.220  14.867 -0.1108  0.3381  0.1637
29880W        W46728  16.653   5.719  16.871 -0.1859  0.0371  0.0378
29881W        W46729  15.350  13.841  15.027  0.1093  0.1243 -0.2760
29882W        W46730   4.327  12.027  15.077 -0.0472  0.0628 -0.1348
29883W        W46731  14.745   5.337   5.952  0.2541  0.4334 -0.1080
29884W        W46732   5.647  14.342   3.612  0.0482 -0.1638 -0.1417
29885W        W46733   4.071   5.107   0.773  0.1296 -0.2711 -0.3595
29886W        W46734  10.650   1.860   0.709  0.2880 -0.1928 -0.2375
29887W        W46735   9.131  10.305   5.002 -0.0567  0.0264  0.1148
29888W        W46736  11.145  10.376   4.515  0.0588  0.0347  0.2973
29889W        W46737   3.904  13.253   6.266  0.0436  0.3386 -0.1844
29890W        W46738   5.947  11.532   3.044  0.0656 -0.0004  0.1625
29891W        W46739   8.982  16.353   3.321  0.2181 -0.1101  0.0306
29892W        W46740  10.916   8.465  17.175  0.1980 -0.2797 -0.0268
29893W        W46741   8.949   5.348   3.885 -0.1775  0.1431  0.0301
29894W        W46742   6.876  17.126  14.304  0.2788 -0.1130  0.2072
29895W        W46743   2.471   5.121   3.340 -0.2337  0.0132  0.1700
29896W        W46744  10.996  15.352   0.310 -0.0444 -0.1145  0.0316
29897W        W46745   0.737   9.948  17.438  0.3154 -0.1139  0.0900
29898W        W46746   1.881   9.539   5.286 -0.1663 -0.2777  0.1844
29899W        W46747  11.268   3.341   1.648 -0.0737 -0.0085 -0.4602
29900W        W46748  11.548   2.943   1.678  0.0942 -0.1306 -0.4089
29901W        W46749   6.492   9.250  13.541 -0.2465 -0.0559  0.0997
29902W        W46750  14.131   3.307  14.544  0.2665 -0.1729  0.0189
29903W        W46751   9.504  10.433  14.973  0.2026 -0.2227  0.0019
29904W        W46752  16.715  13.317   4.903 -0.1274  0.1796  0.0155
29905W        W46753  14.871   4.061   4.861  0.0601 -0.0055 -0.2794
29906W        W46754   3.666   8.117   2.731 -0.2946  0.3520  0.0253
29907W        W46755   7.196  11.192   5.718  0.0199 -0.2610 -0.1001
29908W        W46756   6.423  10.831  16.868  0.1837 -0.2047 -0.1515
29909W        W46757  11.099   8.431  12.857  0.2999  0.0722  0.2777
29910W        W46758   2.603   0.128  15.908 -0.1216  0.2201  0.4548
29911W        W46759   4.977   0.534  14.749 -0.4049  0.0149  0.3039
29912W        W46760   3.432   4.949   0.453  0.2132  0.0263 -0.1516
29913W        W46761   9.343   5.594   4.010 -0.2165  0.2491  0.0223
29914W        W46762   9.882   7.630   3.469  0.0176 -0.1302  0.0162
29915W        W46763  10.268   8.004   4.841  0.1847  0.0244 -0.0461
29916W        W46764   6.574  12.497  14.199 -0.1003  0.0033  0.1689
29917W        W46765   6.327   5.828  11.675  0.3321 -0.3986 -0.1206
29918W        W46766   1.783   0.261   4.053  0.2146  0.0154 -0.2774
29919W        W46767  11.386   1.004   3.939  0.2288 -0.1167  0.0439
29920W        W46768   4.108   7.139  13.327  0.0323  0.0369 -0.3477
29921W        W46769   6.521  16.867   5.347 -0.1298  0.0040 -0.1432
29922W        W46770   1.487  15.120   0.698 -0.2100  0.3868 -0.0241
29923W        W46771   8.488   0.623   3.721  0.1519 -0.2115 -0.1401
29924W        W46772   2.504   0.102  14.880  0.0810 -0.3444 -0.1711
29925W        W46773  12.146   1.504  10.037  0.1848  0.1423  0.2081
29926W        W46774   0.617   7.017  17.376  0.1872 -0.0448 -0.3199
29927W        W46775   7.155   9.948  16.239 -0.0733 -0.1178  0.0626
29928W        W46776  12.186  15.792  12.201 -0.2145 -0.0398  0.0985
29929W        W46777  13.643  16.949   0.057 -0.1618  0.1986 -0.2300
29930W        W46778  14.708  11.382  12.592 -0.0278 -0.1726 -0.2324
29931W        W46779   2.895   4.033  13.040 -0.0229 -0.0347  0.3272
29932W        W46780   3.166  13.306   1.683 -0.1527  0.0572  0.0818
29933W        W46781   5.043   1.252  13.264  0.0816 -0.1614 -0.0700
29934W        W46782  13.723  16.606  11.289  0.0238 -0.0153 -0.1417
29935W        W46783  13.044   6.120  12.188  0.4985 -0.0457  0.4460
29936W        W46784  11.423   9.088  16.140 -0.0535  0.1328 -0.1263
29937W        W46785  13.628  13.562  16.201 -0.1992  0.0466 -0.2504
29938W        W46786   9.348   5.384  11.685 -0.0423  0.2657  0.0037
29939W        W46787   2.639   5.141   2.866  0.1267 -0.0386 -0.0416
29940W        W46788   9.770  10.666   3.961  0.6095 -0.3011 -0.0006
29941W        W46789   3.359  11.840   1.921  0.2982  0.2638  0.0241
29942W        W46790   5.959   1.390  14.947  0.2220 -0.0925  0.2343
29943W        W46791   7.412   5.899   0.379  0.1013  0.2300  0.0093
29944W        W46792   9.458   6.902  12.898  0.0702 -0.0265  0.1901
29945W        W46793   1.120  15.731   0.592 -0.1370 -0.0850  0.1130
29946W        W46794  16.788   9.078  15.145 -0.2604 -0.4626 -0.4419
29947W        W46795   7.868  13.430   0.819 -0.2583  0.0908 -0.2166
29948W        W46796  10.495   1.799   2.175 -0.0803 -0.4570 -0.2070
29949W        W46797  10.590  13.653  17.716 -0.0651 -0.1488  0.1977
29950W        W46798  12.284   0.890  13.182  0.1347  0.3915 -0.3951
29951W        W46799   7.665  14.499  15.000  0.1826  0.0708  0.1740
29952W        W46800  14.664  14.402  12.997  0.0667 -0.1216  0.2702
29953W        W46801   6.208  12.553   5.979 -0.2023  0.1523 -0.0403
29954W        W46802  10.739  16.504   4.015 -0.0253  0.3639  0.0627
29955W        W46803  12.841   2.598  15.328  0.0942  0.0704 -0.0543
29956W        W46804  15.664  11.510  14.475  0.2449  0.0604 -0.0089
29957W        W46805   2.076   5.295  15.865 -0.2206  0.2179  0.0155
29958W        W46806   2.360   2.277   4.368 -0.0336 -0.1335  0.0823
29959W        W46807   6.664  14.545   3.073  0.3101  0.0744  0.1389
29960W        W46808   7.575  15.401  12.205 -0.0084 -0.1682  0.2818
29961W        W46809  11.734  14.991  14.230 -0.3661 -0.0482 -0.2426
29962W        W46810  13.194  17.130   1.068  0.0142 -0.2157 -0.0352
29963W        W46811   7.386  13.394   4.963 -0.0397  0.0616 -0.0031
29964W        W46812   0.572   0.302  14.333  0.2761 -0.2052  0.0664
29965W        W46813   0.367  14.013   2.911 -0.0883  0.0387 -0.2280
29966W        W46814   9.119   6.937  15.094  0.1199 -0.2542  0.3596
29967W        W46815  13.266  16.296  15.738  0.1310  0.1879 -0.4741
29968W        W46816   6.227   7.381   6.644 -0.3194  0.0426 -0.0239
29969W        W46817  11.084   6.362   6.359 -0.0133 -0.2261 -0.2301
29970W        W46818   7.536   1.334  15.885  0.2232  0.2473 -0.3315
29971W        W46819   0.701   8.691  12.323 -0.1466 -0.0048  0.3153
29972W        W46820  12.186   6.417   3.050 -0.2720 -0.2379 -0.3740
29973W        W46821  13.602   0.446   2.136  0.4031 -0.1715 -0.2427
29974W        W46822   4.822  14.873   0.154 -0.0025 -0.1645  0.0849
29975W        W46823   4.938   5.364  15.169  0.1242  0.2700 -0.1287
29976W        W46824   4.429   1.259   5.441  0.0089 -0.0108  0.1255
29977W        W46825  16.636   8.738  17.524 -0.2325 -0.2377  0.0035
29978W        W46826   2.932  10.521  16.264  0.1629  0.0983  0.3043
29979W        W46827  14.060  13.613   1.502 -0.2598  0.3675 -0.0040
29980W        W46828  12.381   5.502   4.361  0.0981 -0.2085 -0.0545
29981W        W46829  10.421   8.337  15.307  0.5624 -0.1768  0.4274
29982W        W46830   7.035  15.560  16.049  0.0836 -0.0685 -0.2186
29983W        W46831   4.870   2.499  13.302  0.0207 -0.0443  0.1794
29984W        W46832   3.633   7.304  13.263 -0.0687 -0.0764  0.1105
29985W        W46833  14.735   6.506   1.682  0.1333 -0.0868 -0.2002
29986W        W46834  11.434  11.937   5.421  0.0587 -0.1019  0.0265
29987W        W46835  10.612  15.047   0.681 -0.2047  0.2654 -0.0088
29988W        W46836  11.055   8.852  17.445  0.0314 -0.0709 -0.4155
29989W        W46837  11.265   4.184   4.676 -0.1167  0.1090 -0.0114
29990W        W46838   4.496   9.002  13.223 -0.1485 -0.0511  0.1982
29991W        W46839   2.273   7.775  15.245 -0.0100  0.0192  0.3391
29992W        W46840   5.255   4.876   4.616 -0.1313  0.1634 -0.0513
29993W        W46841   7.588   5.991  15.483 -0.2240 -0.1002  0.1072
29994W        W46842   5.813  12.699   4.602 -0.2720  0.0779  0.1136
29995W        W46843   7.708   5.991  11.792 -0.1496 -0.1388  0.1063
29996W        W46844   5.200  13.971  15.284  0.0396 -0.2030  0.2299
29997W        W46845   7.412  12.376   0.240 -0.0504  0.1095  0.0243
29998W        W46846   8.276  16.825  14.399 -0.0877 -0.1357 -0.1311
29999W        W46847  13.757   8.521   0.996  0.1024 -0.1071  0.0905
30000W        W46848   3.792  13.912  17.416 -0.3380 -0.0339  0.2015
30001W        W46849  10.128   5.238  15.557  0.2393  0.4210  0.1459
30002W        W46850  10.786  11.189   4.275 -0.1154 -0.0484 -0.0036
30003W        W46851   9.438  11.821   1.633 -0.0849  0.1539  0.0707
30004W        W46852   0.847   7.440  12.939 -0.1587 -0.1831 -0.0168
30005W        W46853   7.100  15.956  13.370  0.0727  0.0544  0.1611
30006W        W46854   1.226  15.780   3.831 -0.4482  0.1475  0.1828
30007W        W46855   3.884  14.429  15.478 -0.0755  0.4834  0.1456
30008W        W46856   3.417  15.736   1.195 -0.2970  0.0003  0.1034
30009W        W46857  12.638   5.084  14.872 -0.1918  0.0539 -0.0913
30010W        W46858  17.036   4.476  14.872  0.0711  0.1665 -0.2402
30011W        W46859   6.455   3.414  16.516  0.0084 -0.1133 -0.1008
30012W        W46860  10.309  12.660   4.746  0.2676 -0.0434  0.0195
30013W        W46861  13.608  15.329   0.743 -0.3179  0.0522  0.0707
30014W        W46862   2.642   8.944  14.088 -0.2275  0.1964  0.0021
30015W        W46863  12.385   2.228   3.955 -0.0926  0.2637 -0.1991
30016W        W46864  15.457  14.914  15.899  0.1111 -0.1341 -0.0902
30017W        W46865   5.290   8.624  14.660  0.2879 -0.3353 -0.1353
30018W        W46866   3.916  12.465  16.560 -0.2313 -0.3212 -0.0390
30019W        W46867   5.121   5.103   5.081 -0.5286 -0.1106 -0.0038
30020W        W46868   1.702  13.748   5.137 -0.1262  0.0721  0.0308
30021W        W46869   7.273  13.049   1.792 -0.2709 -0.1798 -0.0957
30022W        W46870  14.275  16.706  16.047  0.0569 -0.3057 -0.0656
30023W        W46871   4.060   8.640   0.779 -0.2864 -0.1059 -0.0535
30024W        W46872   7.839  15.416   1.147  0.1141 -0.0238 -0.0247
30025W        W46873   7.925   6.463   5.419 -0.0512 -0.1101  0.1208
30026W        W46874   6.815  10.225   1.596 -0.0256 -0.1871  0.1883
30027W        W46875   5.256  15.730  12.998 -0.2477  0.3049 -0.0342
30028W        W46876  15.990  16.588  17.376 -0.0541  0.6516  0.1245
30029W        W46877  16.839   3.661  12.841  0.0985 -0.0667 -0.0650
30030W        W46878  13.504   6.209   0.045  0.2954  0.2511  0.0217
30031W        W46879   9.733  11.532   3.357 -0.0490  0.1744  0.2978
30032W        W46880  13.268   0.351  13.078  0.0629 -0.3218  0.2705
30033W        W46881   2.158   1.165   2.672  0.1568  0.1842  0.2500
30034W        W46882   4.409   2.818  16.045 -0.1685 -0.1846 -0.0298
30035W        W46883   7.429   5.323  14.094  0.0141 -0.0605  0.1830
30036W        W46884   6.513  13.966   3.211 -0.3740 -0.2916  0.3580
30037W        W46885   1.702   3.871  17.569  0.1292 -0.1414  0.1137
30038W        W46886   1.070  11.671   1.988 -0.1759 -0.2331 -0.1177
30039W        W46887   4.620   3.150  13.794  0.0603  0.1704  0.0635
30040W        W46888   4.966   9.204  16.359  0.0707  0.2186 -0.0704
30041W        W46889  13.082   5.850  16.901 -0.0174  0.1239  0.2415
30042W        W46890   6.225  14.892  16.137 -0.1158 -0.1794 -0.1322
30043W        W46891  11.815   0.943  17.372 -0.1912  0.0165 -0.2314
30044W        W46892  10.623   5.806  14.218  0.1876  0.0183  0.3248
30045W        W46893   4.659   3.975  12.529 -0.0036 -0.0332  0.1130
30046W        W46894  12.093   3.547   5.389  0.0012  0.3657  0.1024
30047W        W46895  11.384   6.075   3.903  0.2835  0.2284  0.1018
30048W        W46896   9.092  10.304   2.877  0.1388 -0.2025 -0.2114
30049W        W46897   0.880  17.114  12.775  0.0101 -0.0645 -0.1390
30050W        W46898   7.480  14.187   0.933  0.0076 -0.0751  0.0858
30051W        W46899   6.372  12.316   2.023  0.0367 -0.1646 -0.1849
30052W        W46900   9.279  14.009  17.630  0.2123 -0.3178  0.1287
30053W        W46901   2.539  15.004   1.815 -0.4155  0.1934  0.0496
30054W        W46902   0.127   8.885   0.459  0.0250  0.0637  0.2193
30055W        W46903   9.636   1.407  12.476  0.0918  0.2639  0.0222
30056W        W46904  14.043   5.530   1.227 -0.2577 -0.0473  0.0479
30057W        W46905  13.085  14.336   3.432 -0.1718  0.1547  0.1103
30058W        W46906  10.746   5.063   1.917 -0.1924  0.1316  0.1804
30059W        W46907   6.304   8.408  14.866 -0.0609 -0.3376  0.0302
30060W        W46908   9.140   4.598  12.133 -0.4833 -0.1060 -0.2101
30061W        W46909  14.514   8.068  15.892  0.0134  0.2943  0.1548
30062W        W46910   0.002   6.694   0.613  0.3183 -0.0602 -0.2319
30063W        W46911   2.944  11.026   1.416  0.2465 -0.0474  0.4063
30064W        W46912   1.681  15.351   4.816 -0.1089  0.0102  0.0335
30065W        W46913  15.813   9.562  16.223 -0.1109  0.1202  0.2927
30066W        W46914  14.709   5.048  13.228  0.4804 -0.0670  0.2114
30067W        W46915   2.090   7.823   4.693 -0.0259  0.2457  0.0981
30068W        W46916  12.264   9.252   0.864  0.1610  0.0602 -0.1392
30069W        W46917   0.955   5.337   5.399 -0.0601 -0.0355  0.0643
30070W        W46918   3.221   4.984   3.829 -0.0970 -0.0072  0.1110
30071W        W46919   8.969   0.684  14.396  0.0924  0.2843  0.3543
30072W        W46920   4.702  13.247  15.080  0.0612  0.1600 -0.4212
30073W        W46921  12.995   4.499  16.569  0.0398  0.0724 -0.1693
30074W        W46922  14.541   9.359   2.436 -0.0579  0.2849 -0.0425
30075W        W46923  13.729   9.954  17.677 -0.0175 -0.0086  0.0124
30076W        W46924   5.590   3.987  15.432  0.0058  0.3245  0.1826
30077W        W46925   2.339   3.339   0.036  0.2693 -0.2452  0.2050
30078W        W46926  15.556   7.460  15.754 -0.1221 -0.5288  0.1950
30079W        W46927  16.838  10.238   5.189 -0.2544  0.0223  0.1720
30080W        W46928   7.307   7.526   1.911  0.0082  0.0458  0.1578
30081W        W46929   4.971  13.136   3.711  0.0046 -0.0122 -0.0618
30082W        W46930  11.391   5.349   5.085  0.1614 -0.0046  0.1279
30083W        W46931  12.415   5.205  15.307 -0.0467 -0.1958 -0.1673
30084W        W46932  10.767  10.664   4.456  0.1342 -0.4604 -0.3189
30085W        W46933  15.649  14.230  14.748  0.0526  0.2276 -0.0548
30086W        W46934  10.514  14.281  16.217 -0.1930  0.3646 -0.1199
30087W        W46935   9.293   9.045  16.382  0.1629  0.1025  0.1262
30088W        W46936  14.841  10.476  15.319 -0.1521 -0.2028 -0.4043
30089W        W46937   2.272   0.443   1.262 -0.1432  0.0349 -0.1848
30090W        W46938  14.883   0.319   3.553 -0.2702  0.0274 -0.0488
30091W        W46939  12.726   2.375   5.137 -0.0671 -0.1936 -0.1499
30092W        W46940   3.042   4.720  16.040  0.2641  0.2746 -0.1221
30093W        W46941  16.342   0.729  17.616 -0.0805 -0.1054 -0.0056
30094W        W46942   6.647   5.880   0.852 -0.0139  0.3074  0.1257
30095W        W46943   9.113   3.514  15.021 -0.0337  0.1050 -0.2228
30096W        W46944  11.396   9.528   1.137  0.0877 -0.2213  0.0604
30097W        W46945  16.439  11.615   4.997  0.0133  0.0077  0.0452
30098W        W46946  16.456   9.080   4.144  0.0888 -0.2113  0.2780
30099W        W46947  10.419   5.506   2.803 -0.0370 -0.0808 -0.0645
30100W        W46948   3.269   7.185   5.027 -0.1738  0.1414  0.1512
30101W        W46949   0.031   1.837  16.304  0.1259  0.0097  0.0164
30102W        W46950  13.744  10.457   2.324  0.0397 -0.2353  0.1600
30103W        W46951  15.911   4.592  14.937 -0.1125 -0.0355 -0.4599
30104W        W46952   7.845   4.015   4.535 -0.3360 -0.0289 -0.1739
30105W        W46953  16.201  14.847   3.913 -0.1347  0.0409  0.1162
30106W        W46954   1.940   7.267   1.413 -0.1140  0.3140  0.2819
30107W        W46955  13.102   8.334   4.296 -0.0299  0.1526  0.0859
30108W        W46956  12.629  12.906  15.555  0.1144 -0.0257 -0.1976
30109W        W46957   9.623   1.763   2.692 -0.0490 -0.1270 -0.0772
30110W        W46958  14.207   7.077   4.697  0.1830  0.0142 -0.0214
30111W        W46959   6.677  15.640  15.269 -0.1530  0.0661 -0.0903
30112W        W46960  12.546  13.633   0.552  0.3469  0.1617 -0.1046
30113W        W46961   2.699   5.563  15.752  0.3202  0.0389 -0.1182
30114W        W46962   6.017  15.600  14.617 -0.2077 -0.0964  0.0265
30115W        W46963  14.696  14.180   4.142 -0.2069 -0.0656 -0.0222
30116W        W46964  13.184   9.060  11.166  0.0329  0.0271 -0.0778
30117W        W46965   1.197   8.849  16.559 -0.2140 -0.0868  0.1043
30118W        W46966   1.530   5.935  14.674 -0.1245 -0.5014  0.1328
30119W        W46967   7.268   2.249   0.885 -0.3040  0.0019 -0.1346
30120W        W46968  16.532   7.195  14.951 -0.2438  0.0501 -0.1945
30121W        W46969   4.140  10.546   5.494  0.2175 -0.0087  0.0677
30122W        W46970   0.978   4.284  17.705 -0.0633 -0.1321 -0.0469
30123W        W46971   3.940  13.416  15.584 -0.2216  0.3402 -0.0840
30124W        W46972   3.172   6.891   0.497 -0.1157 -0.0702  0.0485
30125W        W46973   8.761  13.057  13.941  0.0546 -0.0318  0.1190
30126W        W46974   1.963  16.655   2.185  0.0138 -0.2688 -0.0319
30127W        W46975   6.324  15.036   4.799 -0.1568  0.1326 -0.0772
30128W        W46976   6.260   1.139  17.605 -0.2103 -0.1687 -0.2058
30129W        W46977   3.428   1.450  15.737  0.1450  0.0138  0.0773
30130W        W46978  11.535  10.692  15.051 -0.2680  0.0254  0.2931
30131W        W46979   4.821   5.229   3.218  0.1520 -0.3267  0.1686
30132W        W46980  14.413   7.014   3.412 -0.2327 -0.0894  0.0080
30133W        W46981   8.105  11.993   0.788 -0.0355  0.1960 -0.1089
30134W        W46982  11.655   8.196  12.374 -0.1594  0.3764 -0.2337
30135W        W46983  11.734   7.513  11.985  0.0840  0.2698 -0.0166
30136W        W46984   1.194   6.549  14.187 -0.3952  0.2006 -0.5758
30137W        W46985   3.067   7.504   2.905 -0.0526  0.0106 -0.1081
30138W        W46986   8.475   4.610   4.012  0.4465  0.3436  0.1034
30139W        W46987  11.331   5.242   3.015 -0.3939  0.2551  0.2859
30140W        W46988   9.908   2.421   4.161  0.0177  0.0145 -0.1430
30141W        W46989  15.461  10.315   5.390  0.2509  0.0026  0.1406
30142W        W46990   5.377  16.959  13.210  0.3500 -0.1489 -0.0399
30143W        W46991  10.071   0.840  13.858  0.4136 -0.2021  0.5008
30144W        W46992   0.119   7.597   2.947 -0.1081  0.1328 -0.1474
30145W        W46993   2.085   1.209   4.638  0.1440 -0.0258 -0.3381
30146W        W46994   1.670   5.937   0.564 -0.0982  0.2982 -0.1716
30147W        W46995   9.857   1.337  11.617 -0.1381  0.1690 -0.2714
30148W        W46996   6.855   3.832  17.241 -0.1747 -0.2247 -0.2173
30149W        W46997   0.272   9.442   5.539 -0.0575  0.0441  0.0871
30150W        W46998   4.115  13.905   2.010 -0.1165 -0.1872  0.2579
30151W        W46999   5.495  11.537  16.591  0.2750  0.0353  0.0516
30152W        W47000  14.135   1.392  16.811  0.1097 -0.1605  0.2003
30153W        W47001   0.163   3.030  17.062  0.4556 -0.2116  0.0861
30154W        W47002  14.554   4.210  17.347 -0.2922 -0.0611  0.0428
30155W        W47003  10.998  11.354  16.125  0.2183  0.0111  0.1069
30156W        W47004   9.027  10.172  14.418  0.2040  0.1800  0.3318
30157W        W47005   5.976  13.180  15.725 -0.5289  0.0208 -0.0262
30158W        W47006   4.879   6.718  14.623 -0.3366  0.2460  0.0355
30159W        W47007   8.667  14.722  17.150 -0.2064  0.1771  0.1641
30160W        W47008   6.651   7.352  15.382 -0.0145  0.0662 -0.1969
30161W        W47009  14.134  15.938  14.929  0.1812  0.1115  0.2180
30162W        W47010   4.951  12.590  13.427  0.2816 -0.0318 -0.2139
30163W        W47011  10.001   1.717   1.341 -0.0449 -0.1899  0.0015
30164W        W47012  10.091  13.411   5.362 -0.4155 -0.0392  0.1561
30165W        W47013  16.145   4.367  14.350  0.0512  0.0649  0.0198
30166W        W47014   4.539   7.809   4.962 -0.0380  0.3645  0.2020
30167W        W47015  16.883  15.961   1.046 -0.1568  0.0917  0.2662
30168W        W47016   2.049  11.484   5.414 -0.1181  0.0588  0.1908
30169W        W47017   2.414   4.703   2.949  0.1812 -0.3099 -0.1282
30170W        W47018  15.056  11.359  12.970 -0.0305  0.3055 -0.1037
30171W        W47019  10.119   9.276  14.437  0.1205 -0.0467  0.1325
30172W        W47020  15.754  15.430   3.927  0.1686  0.2333 -0.0828
30173W        W47021   2.603  13.792   2.201  0.1356 -0.0152  0.1420
30174W        W47022   1.134   0.357  15.464  0.1119  0.1139  0.4811
30175W        W47023   3.917   1.338  17.082  0.0917  0.1438 -0.1054
30176W        W47024  11.425  10.172  12.870 -0.0376 -0.1515  0.2714
30177W        W47025   2.344  11.194   3.182 -0.3014  0.1291 -0.2463
30178W        W47026   6.582   1.285  17.226  0.3028 -0.1828  0.1308
30179W        W47027   4.337   3.303   1.838  0.0602  0.1042 -0.0527
30180W        W47028  12.304  14.612  16.520 -0.0671  0.2571 -0.1756
30181W        W47029   8.387   1.413   2.322  0.0999 -0.1162  0.0126
30182W        W47030   5.177   9.284   4.286  0.0985  0.1602 -0.0373
30183W        W47031  10.282   6.752   3.835 -0.0330  0.1620  0.1925
30184W        W47032   5.615   6.465  13.634 -0.1351 -0.1066 -0.2804
30185W        W47033  15.431  16.983  16.081 -0.0021  0.1042 -0.1243
30186W        W47034  10.443   6.691   1.397  0.2752 -0.1438 -0.2679
30187W        W47035   3.658   7.598  14.401  0.0782 -0.1033 -0.1399
30188W        W47036   5.979  11.019   5.503  0.0218 -0.1281 -0.3042
30189W        W47037  10.059   7.787   4.015  0.0100  0.2811  0.1989
30190W        W47038   7.429   1.916  15.193 -0.1787 -0.0066  0.1242
30191W        W47039   3.310  11.323  17.158 -0.0252  0.1008  0.0597
30192W        W47040  14.192   9.677   3.212  0.1019  0.0411 -0.0054
30193W        W47041  10.064   5.786  16.977  0.1207 -0.2990 -0.0063
30194W        W47042   2.478  16.377  15.655 -0.3049 -0.0440 -0.0602
30195W        W47043   6.339  11.594  13.649 -0.0042  0.1980 -0.3489
30196W        W47044  12.828  14.620  16.216 -0.4374 -0.3344  0.0537
30197W        W47045  10.661   4.454  14.118  0.0674  0.2351  0.0910
30198W        W47046  14.928   5.161  12.067 -0.1301 -0.2935  0.0880
30199W        W47047  17.005   9.500  17.175  0.2000  0.0384  0.1252
30200W        W47048   5.407   3.117  13.604 -0.0478  0.4783 -0.1026
30201W        W47049   0.654   0.263   0.706  0.0620  0.1593  0.0999
30202W        W47050  12.627   2.221   2.895 -0.3120 -0.1196  0.0864
30203W        W47051   5.727   8.428  14.925 -0.1694 -0.2477  0.3088
30204W        W47052   4.226   7.101  16.587 -0.1016 -0.0116  0.1866
30205W        W47053   6.422  16.679  17.639 -0.0703 -0.0781 -0.0869
30206W        W47054   6.614   0.219  15.888  0.0843  0.1815 -0.2726
30207W        W47055   4.009   9.697   3.039 -0.0690 -0.0661  0.0116
30208W        W47056   8.087   3.948   3.585 -0.0255  0.3253 -0.0916
30209W        W47057   4.356   5.138   4.530 -0.2582  0.0793 -0.0882
30210W        W47058   7.369   8.627  14.291  0.0602 -0.0845  0.0836
30211W        W47059  14.759   8.587   1.190 -0.0751 -0.0158 -0.0795
30212W        W47060   5.283   4.186  17.553  0.0606 -0.2305 -0.2567
30213W        W47061  16.746   0.445  14.270 -0.1359  0.1999 -0.5209
30214W        W47062   3.758   6.000  17.028  0.1867 -0.0357 -0.1544
30215W        W47063   9.689   7.755  11.333 -0.0495  0.4267 -0.3463
30216W        W47064   1.268   8.162   3.751 -0.3039 -0.0451  0.3706
30217W        W47065  14.973  12.835  17.014  0.0156 -0.0424 -0.0143
30218W        W47066   1.682  15.773   2.576 -0.2101  0.3373 -0.2335
30219W        W47067   4.663   7.370  16.607 -0.0040 -0.0268  0.1689
30220W        W47068   2.116  16.170  16.079  0.1442 -0.1917 -0.0610
30221W        W47069  10.252  16.884   0.195  0.3007  0.0744 -0.3491
30222W        W47070   6.646   0.477  15.025  0.0248  0.3093  0.0356
30223W        W47071   3.317   4.712   2.027  0.0798 -0.2821 -0.3355
30224W        W47072   3.101   7.356   4.578  0.4013  0.0688 -0.1514
30225W        W47073   8.256   1.720   0.674  0.0899  0.0301 -0.1680
30226W        W47074   4.511   0.608  13.090  0.0903 -0.2100 -0.0556
30227W        W47075   7.548  10.581   1.151  0.2635  0.3066  0.2508
30228W        W47076  10.569   1.922  15.340 -0.2497 -0.2072 -0.1139
30229W        W47077   7.300   2.534  12.790  0.1154 -0.0970 -0.1910
30230W        W47078   3.837  11.312   0.939  0.1157 -0.2272  0.0899
30231W        W47079   0.516   2.936   0.933  0.1601 -0.0719  0.4717
30232W        W47080   3.606  10.524   2.069  0.0353 -0.0340 -0.1001
30233W        W47081   1.684   3.423  16.084  0.0281  0.1907  0.2391
30234W        W47082   4.214   9.678   0.698  0.1305 -0.0503 -0.1515
30235W        W47083  15.555   0.195   4.853 -0.1370  0.3235 -0.0879
30236W        W47084   7.115  12.768  16.700 -0.0860 -0.2046 -0.0761
30237W        W47085   3.663  12.945   0.029 -0.1285  0.1500 -0.0282
30238W        W47086  11.045  13.448  14.893  0.0652  0.1434  0.1662
30239W        W47087   0.391   4.629  16.399  0.1547 -0.0014 -0.1671
30240W        W47088   0.370   7.759  15.417  0.0053 -0.3527  0.2598
30241W        W47089  11.219   8.032  14.656 -0.0094  0.1071  0.4304
30242W        W47090  11.960  13.988   4.327  0.2419  0.1169 -0.0104
30243W        W47091  13.054  11.235  16.215 -0.1269 -0.1229 -0.2618
30244W        W47092  16.143  15.846   2.470  0.2307  0.3619  0.0693
30245W        W47093  12.294   0.510  16.012 -0.2734 -0.1280  0.1752
30246W        W47094   9.320   4.652  15.118  0.1144 -0.1042 -0.0095
30247W        W47095   9.868   0.280   1.639  0.0475 -0.0422  0.0219
30248W        W47096  13.402  16.146  14.244 -0.0599  0.1867  0.1144
30249W        W47097   0.136  13.992   4.445  0.2382 -0.4508  0.3231
30250W        W47098  10.749   7.968  17.116  0.1761  0.2222 -0.1175
30251W        W47099   5.936   4.666  13.818 -0.5421  0.0076  0.0965
30252W        W47100  15.596   2.253   4.956 -0.1629 -0.2973  0.1301
30253W        W47101  15.747  10.651   0.471  0.1344  0.2353  0.0873
30254W        W47102  11.064   1.911   2.044  0.2057 -0.1012  0.0511
30255W        W47103   7.099   5.710   3.327  0.1743  0.1599  0.0081
30256W        W47104   9.585   8.408  13.653 -0.3611 -0.0351  0.1053
30257W        W47105  11.214  16.050  17.648 -0.0256 -0.1056 -0.1829
30258W        W47106  12.476   6.179   4.950 -0.3478 -0.0530  0.0707
30259W        W47107   7.699  15.600   0.051  0.2656 -0.4649  0.4338
30260W        W47108  15.351   6.047  14.078  0.0723  0.4206  0.2214
30261W        W47109   1.976  13.244  14.346  0.1028 -0.1451 -0.0905
30262W        W47110   5.613   2.553   3.276 -0.1804 -0.1930 -0.0344
30263W        W47111   3.430  14.864   1.491 -0.0594 -0.0237  0.1612
30264W        W47112  11.688   7.985   2.094 -0.1709 -0.1456 -0.1145
30265W        W47113   4.635   6.667   5.208 -0.0950 -0.0794  0.1261
30266W        W47114   2.640   6.984   3.253 -0.0580 -0.0870 -0.3863
30267W        W47115   9.037  10.860   2.769 -0.0582  0.0421  0.2247
30268W        W47116  12.516   7.374  17.168  0.3343 -0.0350 -0.3439
30269W        W47117  12.368  16.744   4.915  0.1270  0.0272  0.1647
30270W        W47118   6.853   9.244  13.142  0.0343 -0.1994  0.4950
30271W        W47119  15.457   8.436   2.968 -0.0278 -0.1805 -0.1809
30272W        W47120  16.668   8.959   1.534  0.1653  0.0466 -0.1233
30273W        W47121   6.942   5.233   3.342 -0.0354 -0.2628 -0.1928
30274W        W47122  10.335   5.228  11.546 -0.1653 -0.2983 -0.0512
30275W        W47123  10.447   3.095   1.870  0.0662  0.0202 -0.0045
30276W        W47124  16.211   8.739   5.227 -0.0257  0.1744  0.0361
30277W        W47125  15.578  10.757  11.325 -0.0364  0.2048 -0.2386
30278W        W47126  12.380   9.196   2.598 -0.3252  0.0060 -0.0496
30279W        W47127   7.256  15.221  15.253  0.0038  0.2180 -0.0221
30280W        W47128   1.850   7.556   6.420  0.0630  0.1016 -0.4545
30281W        W47129   5.117  10.331  14.984 -0.4564  0.2964  0.0969
30282W        W47130  15.817   4.090  16.153 -0.0211  0.3159  0.0451
30283W        W47131   0.215   3.368   2.143  0.3690  0.1895 -0.0482
30284W        W47132   5.369  12.512  14.774  0.1967  0.1003  0.1473
30285W        W47133  14.025   4.459   2.804  0.1245  0.1882  0.0035
30286W        W47134   6.825   5.587  17.304 -0.1487 -0.0459  0.2894
30287W        W47135   2.585   9.764   2.169  0.1807 -0.0168  0.1246
30288W        W47136   6.544   6.883   4.886 -0.1613 -0.0079 -0.3803
30289W        W47137   7.471  12.867  12.739 -0.0214 -0.0237 -0.0770
30290W        W47138  13.057  15.782  15.780 -0.3273 -0.2179  0.1014
30291W        W47139   5.144   4.655   2.715  0.2501  0.2715  0.0555
30292W        W47140  13.249  14.328  16.442 -0.2781 -0.1621 -0.3228
30293W        W47141  14.397   6.024  17.253  0.1656 -0.2451 -0.1764
30294W        W47142   3.651   7.398  17.499  0.1290  0.0430  0.0269
30295W        W47143  14.286   0.134   5.414 -0.0476 -0.1299  0.0269
30296W        W47144   3.325  16.231   7.260 -0.1111 -0.1439  0.3415
30297W        W47145   3.545   2.939   4.755  0.0575  0.0874 -0.2919
30298W        W47146   8.579  14.569  15.007 -0.0853  0.1234 -0.0246
30299W        W47147  10.270   6.287  15.826  0.2550  0.0758 -0.0033
30300W        W47148   1.300  16.345  14.029  0.0657 -0.2525 -0.2933
30301W        W47149   5.096  14.170   4.083 -0.1934  0.3860  0.0411
30302W        W47150  10.044   7.846  15.457  0.1235 -0.3776  0.0792
30303W        W47151  11.117   7.483  12.880  0.0202 -0.0357  0.1620
30304W        W47152   9.423   2.886   1.041  0.3853 -0.3457  0.3841
30305W        W47153  13.460   3.501  17.226 -0.2001  0.2046  0.2494
30306W        W47154  15.774  11.253   1.603 -0.1736  0.3018 -0.0137
30307W        W47155  16.812   8.471  17.089  0.2014  0.0042  0.0977
30308W        W47156   4.250   9.131   0.676  0.1043 -0.0885  0.2428
30309W        W47157  14.377   9.683  12.685 -0.1094 -0.2670 -0.2469
30310W        W47158   8.524   4.371  15.681 -0.0179  0.0037  0.3914
30311W        W47159  13.980   2.868  14.379 -0.1335  0.0249  0.0203
30312W        W47160   0.293  15.236  13.955 -0.1913  0.1379  0.2026
30313W        W47161  13.508  10.538  13.943  0.4403 -0.2112 -0.0049
30314W        W47162   8.389  11.511   4.765 -0.2115 -0.2462  0.0913
30315W        W47163   3.427   8.854  15.185  0.2882  0.3605 -0.1529
30316W        W47164  15.842   2.896  16.081 -0.2074 -0.2214  0.1188
30317W        W47165  15.408   7.737  13.059 -0.1191  0.1084  0.0806
30318W        W47166   8.364   0.474   0.107 -0.2229 -0.0502 -0.2810
30319W        W47167   3.851   5.846   1.074  0.2907  0.1385  0.1594
30320W        W47168  10.517   8.251  11.980 -0.1311  0.0603  0.1511
30321W        W47169   5.502  11.367  14.145  0.0733  0.1006 -0.0105
30322W        W47170  13.666   9.611   4.540 -0.0728 -0.0636  0.2597
30323W        W47171  12.252  14.286   4.057  0.4158 -0.0199  0.0381
30324W        W47172  10.171   6.480   3.432  0.0813 -0.1445 -0.0998
30325W        W47173   0.062  12.655  15.683  0.0713 -0.1710 -0.0966
30326W        W47174  13.102   8.180   4.784  0.2979 -0.2150 -0.0040
30327W        W47175   6.097  10.144  15.425 -0.0647 -0.2422 -0.0292
30328W        W47176   1.307   2.104   2.438 -0.0773  0.0450  0.0596
30329W        W47177   1.009   9.612  14.306 -0.0978  0.3201 -0.0090
30330W        W47178  12.059   4.067   2.406  0.0219 -0.0281  0.2257
30331W        W47179   3.281  10.825   1.836  0.2210  0.1265 -0.0348
30332W        W47180   0.380   2.688   4.804  0.0468 -0.0607 -0.3149
30333W        W47181   6.019  13.980  15.781  0.0486 -0.0065 -0.3829
30334W        W47182   6.379   5.017   2.838 -0.1364 -0.0591  0.1564
30335W        W47183   9.423   9.864  16.513 -0.0422  0.0491  0.1654
30336W        W47184   5.628   9.980  17.491  0.3264  0.1427 -0.0413
30337W        W47185   4.697  13.088   5.855 -0.5343  0.1256  0.1949
30338W        W47186  10.548   2.781  12.301  0.1638 -0.1266 -0.1566
30339W        W47187   6.434   9.485   2.107  0.3297 -0.0776 -0.0902
30340W        W47188  12.018  10.434  17.006 -0.0269 -0.1269 -0.0214
30341W        W47189  14.273   5.481   0.264  0.0129 -0.1874 -0.0666
30342W        W47190  15.103  13.159  15.911 -0.1047 -0.1420 -0.1420
30343W        W47191   1.036   2.182  16.698 -0.1559  0.0545  0.0209
30344W        W47192  14.911   6.202  15.047  0.0317 -0.1680 -0.3457
30345W        W47193   2.561  14.370  12.934 -0.4035 -0.1359 -0.0611
30346W        W47194   8.964  16.975  16.814  0.0499 -0.0528  0.1965
30347W        W47195  13.216   1.292  12.626 -0.1232 -0.0003  0.2976
30348W        W47196  12.964  11.001  15.679 -0.0374 -0.1314  0.3150
30349W        W47197   8.798   3.285  12.100 -0.3219  0.1641 -0.1931
30350W        W47198  12.433  14.359  12.876 -0.1720 -0.0912  0.2329
30351W        W47199  10.681   3.136   2.389  0.4525  0.0849 -0.0542
30352W        W47200  17.030   1.357   3.818 -0.1937  0.1949  0.1641
30353W        W47201  11.821   3.661  11.928 -0.3198 -0.0893 -0.1444
30354W        W47202  16.001   3.716  15.237  0.0741  0.0740  0.0953
30355W        W47203  10.222  12.712   5.281  0.1508 -0.3668 -0.1896
30356W        W47204   6.758  12.221   1.732 -0.0048  0.2856  0.0223
30357W        W47205  10.000  14.259  16.515 -0.2399  0.3833  0.0587
30358W        W47206   0.000   9.198   5.924 -0.0730 -0.0158  0.1085
30359W        W47207  12.238   3.288  11.667  0.1239 -0.0227  0.0482
30360W        W47208   4.641   3.879   3.957 -0.2844  0.2406 -0.4155
30361W        W47209   9.420   7.687   3.763  0.3136 -0.0580 -0.0422
30362W        W47210   7.404   9.829   2.100  0.1059  0.1200  0.1281
30363W        W47211  13.270  14.830  16.520  0.4937 -0.2416  0.1466
30364W        W47212  13.860   9.339   3.649 -0.0648 -0.0007 -0.1504
30365W        W47213   7.670  16.023  15.926  0.1335 -0.3271  0.0488
30366W        W47214  10.004  11.707   4.775 -0.3965  0.0935 -0.1726
30367W        W47215   4.018  11.600  16.057  0.0361  0.0114 -0.0456
30368W        W47216   9.394   0.988  11.476  0.0227 -0.0236  0.5605
30369W        W47217  16.227   7.826  12.287  0.2040  0.2758  0.1411
30370W        W47218  16.801   7.995   4.618  0.0557  0.1345 -0.1685
30371W        W47219   6.591  15.534  13.243 -0.2440  0.0824  0.3642
30372W        W47220   4.041  14.661  15.912  0.1295 -0.0980 -0.1070
30373W        W47221   4.299  14.184   5.334 -0.0851  0.1876  0.1269
30374W        W47222   4.249  17.018  11.660 -0.2603  0.1094 -0.2786
30375W        W47223   8.491   9.461  14.839  0.4808 -0.1357 -0.0200
30376W        W47224  14.823  12.856  13.865  0.0178  0.0631  0.0248
30377W        W47225   1.192  10.225   4.397  0.3156 -0.1888  0.0799
30378W        W47226   0.703   2.628  17.695  0.0079 -0.0656  0.1108
30379W        W47227   0.497   1.766   6.316  0.1779 -0.2068  0.1467
30380W        W47228   9.404  10.641   4.357 -0.1706 -0.1059 -0.0579
30381W        W47229   6.226   8.166   3.249 -0.2815  0.2514  0.0014
30382W        W47230  16.884  10.218   3.523 -0.0045 -0.1737 -0.0089
30383W        W47231   2.413  15.619  13.634 -0.0058 -0.2676  0.2257
30384W        W47232   2.447  10.874   1.442 -0.3501  0.0282  0.0936
30385W        W47233   6.044  12.619   5.034  0.2210  0.1533 -0.1837
30386W        W47234  11.809   8.671   5.956  0.0227 -0.1795 -0.0320
30387W        W47235  12.714   6.665  13.819 -0.0472 -0.0703 -0.3187
30388W        W47236  13.531  12.927  14.696  0.1625  0.1991 -0.0623
30389W        W47237   7.936  16.071   2.281  0.2395 -0.1633  0.3920
30390W        W47238  12.185   4.624   0.561  0.3096  0.0309 -0.0094
30391W        W47239  14.923   9.167   3.478  0.1013 -0.0202  0.3021
30392W        W47240   2.093  16.060  17.385  0.0956 -0.1208  0.1298
30393W        W47241   3.829   2.950  12.452 -0.2894  0.0784  0.1206
30394W        W47242   4.447   2.721  13.449 -0.2199  0.1392  0.1821
30395W        W47243   1.248   7.700   3.597  0.0654 -0.2853 -0.0605
30396W        W47244  15.658  11.564   4.646  0.2437 -0.2533  0.1329
30397W        W47245  16.609   7.496   3.789 -0.0605  0.0649  0.1386
30398W        W47246   9.834   2.665   2.550  0.1715  0.2736  0.1034
30399W        W47247  14.298  15.437  16.857  0.1617  0.0399 -0.0538
30400W        W47248  14.227   2.659  15.064 -0.4328 -0.1786 -0.2816
30401W        W47249  16.218   7.363  14.011 -0.0574  0.2260  0.2260
30402W        W47250   6.332  11.344   0.115  0.1052  0.1026 -0.0860
30403W        W47251   3.272  16.997  14.340  0.1411 -0.3156 -0.4188
30404W        W47252  13.420   9.906   0.690 -0.1927 -0.0564  0.2557
30405W        W47253  16.183   2.061  12.111 -0.3537 -0.1574 -0.2161
30406W        W47254  10.837  12.064   0.017  0.0502 -0.1592  0.0884
30407W        W47255   1.283  16.886   0.668 -0.0701 -0.1518  0.1850
30408W        W47256   4.634   7.717   4.209  0.1595  0.0169 -0.0364
30409W        W47257  11.094   2.436  15.877 -0.0086  0.1296  0.0723
30410W        W47258   8.572  13.296   2.014  0.0056  0.0136 -0.0335
30411W        W47259  15.463   8.619   0.301 -0.0125  0.0115 -0.0911
30412W        W47260  11.045   9.042  16.563 -0.0083  0.2708 -0.1131
30413W        W47261   6.362   4.966   2.352 -0.1027  0.1894  0.1922
30414W        W47262   6.580   4.762   0.556 -0.2920  0.1378 -0.0415
30415W        W47263  15.281  10.712  17.005  0.0407  0.3029 -0.1014
30416W        W47264   0.781   7.443   3.490  0.2086 -0.3341  0.0114
30417W        W47265   2.971  12.990  14.124  0.1163  0.1087 -0.1304
30418W        W47266   5.555   6.907   2.796 -0.0683 -0.0958 -0.3754
30419W        W47267   7.288   2.257  12.381  0.1808 -0.1310 -0.0041
30420W        W47268   1.287  13.816  15.578 -0.0138 -0.1889  0.1894
30421W        W47269   8.733  12.077  14.254 -0.2287 -0.0683  0.1973
30422W        W47270  17.141   9.194   1.428 -0.0469  0.2038 -0.3398
30423W        W47271  16.423   7.834  15.791 -0.2448 -0.3116 -0.2849
30424W        W47272   0.874   7.161  12.482 -0.1348 -0.0615 -0.2129
30425W        W47273  12.780   2.114   1.528 -0.1463 -0.1755  0.1783
30426W        W47274   8.031   8.217  13.658  0.0090 -0.0522 -0.1712
30427W        W47275   4.061  10.860   3.982  0.2414 -0.0614 -0.1915
30428W        W47276  10.993   9.146  15.875  0.3300  0.3058  0.1405
30429W        W47277  14.730  11.617  14.421  0.0443  0.0155  0.0828
30430W        W47278   0.002   8.041  17.105  0.0347 -0.4079  0.4395
30431W        W47279  13.776   0.039   0.998 -0.0046  0.0516  0.1766
30432W        W47280   8.739   9.784  14.551  0.0332 -0.3365 -0.2234
30433W        W47281  13.472  12.356  17.012 -0.1220 -0.1162 -0.2167
30434W        W47282  15.109   9.934  16.407  0.0121 -0.0443 -0.0446
30435W        W47283   9.183  16.484  14.291 -0.0513 -0.1537  0.1860
30436W        W47284   9.141  14.765   1.230  0.0742  0.2491  0.3175
30437W        W47285  13.454  13.393   3.220 -0.1475 -0.0447  0.0640
30438W        W47286   6.581   7.088   3.477  0.0617  0.1367 -0.1426
30439W        W47287   2.489  16.033   1.381 -0.0951 -0.3868  0.0751
30440W        W47288   7.671  11.647   2.244  0.3755  0.0107  0.3902
30441W        W47289  15.053   6.258   2.058 -0.1734  0.0543 -0.0249
30442W        W47290   6.372   1.392  15.286  0.1534 -0.1811 -0.1878
30443W        W47291   7.362  11.457   3.369 -0.1769 -0.0208  0.0995
30444W        W47292   7.338   3.698   1.053 -0.0643  0.2525 -0.0152
30445W        W47293  10.290  15.797  15.245  0.1489  0.0069 -0.0966
30446W        W47294  14.086   5.158   4.733  0.1752  0.1140  0.2584
30447W        W47295   0.500   8.397  13.725  0.0973  0.5994 -0.2843
30448W        W47296  10.872   4.594  16.731 -0.2358 -0.0515 -0.0123
30449W        W47297   9.588   3.580  14.927 -0.3497 -0.1137 -0.0154
30450W        W47298  17.031   8.455  17.498 -0.0950 -0.1792 -0.0824
30451W        W47299   5.727  11.250   3.796 -0.0433 -0.1749  0.2603
30452W        W47300  14.481  11.920   1.524 -0.3494  0.1270 -0.2766
30453W        W47301  10.229   3.132  15.261 -0.0474  0.1374  0.1232
30454W        W47302  14.701   5.460   3.579 -0.0761 -0.0132 -0.1008
30455W        W47303   6.147  12.633   4.238  0.0857 -0.0762  0.0311
30456W        W47304  16.432  11.984  14.130  0.2366  0.1304 -0.2419
30457W        W47305   9.540   9.728  17.052  0.0945 -0.0696  0.1644
30458W        W47306   3.108  16.385   1.140  0.0330  0.2569  0.1080
30459W        W47307  15.585   6.359  14.405  0.0138 -0.0030 -0.2862
30460W        W47308   0.790   2.158   0.095 -0.0393  0.1985  0.4086
30461W        W47309   4.207   7.463   2.231  0.0200  0.2134  0.1635
30462W        W47310   4.349  11.374  15.683  0.1069  0.0757  0.0595
30463W        W47311  15.866  14.828  17.304 -0.0838  0.1351 -0.0217
30464W        W47312   9.315  11.428   5.302  0.2013 -0.0489 -0.1020
30465W        W47313  11.262  11.397   5.443 -0.3792 -0.1414  0.0500
30466W        W47314   1.735  11.504   0.606 -0.1837  0.1463 -0.2529
30467W        W47315  10.335  17.036   2.877 -0.1078  0.2827 -0.1364
30468W        W47316   6.118   6.667  13.783  0.1594  0.1165 -0.1472
30469W        W47317  13.625  16.288   0.857  0.0230 -0.0547 -0.3610
30470W        W47318   3.825   6.554   4.654  0.0680 -0.2264  0.1454
30471W        W47319  11.399  15.744  13.489  0.3331  0.0661 -0.0897
30472W        W47320  11.413   6.172  13.282  0.2587  0.0599  0.0786
30473W        W47321  15.251   2.841   2.384 -0.1664  0.0766 -0.0361
30474W        W47322   9.499   9.118   2.207  0.3639 -0.1656  0.0591
30475W        W47323  14.873   7.182   3.181 -0.0797 -0.1516  0.2479
30476W        W47324  14.860   4.466  13.381  0.3014  0.0645  0.0765
30477W        W47325   7.808  12.232  12.301  0.1039  0.1387 -0.1984
30478W        W47326  14.104   0.905  10.912 -0.1721 -0.2491  0.0099
30479W        W47327  12.136   3.727  15.577 -0.0928 -0.2711  0.2702
30480W        W47328   7.320  12.356  16.838 -0.0778  0.0341  0.4506
30481W        W47329   2.871   6.517  17.691  0.0736 -0.1862  0.1581
30482W        W47330   9.799   8.574  15.137 -0.4804 -0.0834  0.1015
30483W        W47331   0.448   0.865  11.612 -0.0683  0.1386  0.0572
30484W        W47332  12.998  13.290   4.874  0.1344 -0.3564 -0.2013
30485W        W47333   3.146  14.392   4.101 -0.0480  0.0107 -0.1654
30486W        W47334   1.330   1.344  13.741  0.0717  0.2384  0.4203
30487W        W47335  11.925   1.296   3.466  0.3508 -0.0880  0.1912
30488W        W47336  14.089  11.079   1.343  0.0138  0.0153 -0.0468
30489W        W47337   1.558   4.651  13.221 -0.1358  0.1939 -0.0513
30490W        W47338   0.177  12.422  13.430  0.0913 -0.1974 -0.1431
30491W        W47339   4.549  14.324  16.832  0.0488 -0.2191  0.2765
30492W        W47340   1.717  12.511  14.767 -0.0632  0.0202 -0.1280
30493W        W47341   1.241  12.285   0.323 -0.1883 -0.0281  0.0202
30494W        W47342  12.954  12.446  17.368  0.3196 -0.1999  0.3011
30495W        W47343   8.774  10.708   0.146 -0.0437  0.2346 -0.1689
30496W        W47344   4.945   9.925  16.216  0.2303 -0.3121 -0.1958
30497W        W47345  12.375   1.345  13.084 -0.1461 -0.2232  0.1545
30498W        W47346   5.768   0.328   0.940  0.2105 -0.1094  0.0332
30499W        W47347   6.695   9.632   1.549  0.1121 -0.1369  0.0266
30500W        W47348   2.749   8.437  17.130  0.1458  0.0569 -0.2157
30501W        W47349   3.012   7.613   0.877  0.1922 -0.0247  0.2706
30502W        W47350  14.912   4.497   0.262 -0.1432  0.1097 -0.0816
30503W        W47351   8.525   0.598  13.104 -0.2335 -0.0827 -0.3548
30504W        W47352   8.633  13.707  13.174  0.0990 -0.3576 -0.0016
30505W        W47353   8.438  11.482   3.282 -0.3134 -0.0587 -0.3051
30506W        W47354  14.301   2.546   2.320 -0.3079  0.0888 -0.0126
30507W        W47355  13.981   8.161   1.902  0.3241  0.2999 -0.0289
30508W        W47356   9.576   0.272  13.957  0.0302 -0.0707 -0.2227
30509W        W47357  14.724   0.435  15.381  0.2131 -0.0678  0.2373
30510W        W47358   7.975  15.775   4.442 -0.0018  0.1559 -0.0921
30511W        W47359   3.129   3.532  15.028  0.1771  0.1652  0.2997
30512W        W47360  16.656  13.092  16.936  0.0126  0.1501 -0.1670
30513W        W47361  14.286   0.386   1.112  0.0333 -0.2812  0.0212
30514W        W47362  12.920  15.222  17.644 -0.0886  0.1146 -0.2191
30515W        W47363  12.693   7.886   5.397 -0.0549 -0.2925  0.4641
30516W        W47364   8.066  10.737   4.082  0.0277  0.1761 -0.1023
30517W        W47365  14.790  12.370  14.863  0.3124 -0.0098 -0.2559
30518W        W47366   8.866   6.986  16.910 -0.2288  0.1371  0.3954
30519W        W47367   1.671  15.196   1.900 -0.3455 -0.2282 -0.2077
30520W        W47368   4.834  10.649  17.708  0.1343 -0.1158  0.0537
30521W        W47369  10.263   7.193  14.488  0.6207  0.2488  0.0262
30522W        W47370  14.777   1.091  13.064 -0.0591  0.1274  0.2873
30523W        W47371  13.370   1.643  16.230 -0.0783 -0.1121 -0.0719
30524W        W47372  11.680  11.049  14.520 -0.3364 -0.0063  0.3624
30525W        W47373   4.995   4.719  11.909  0.0366 -0.2840 -0.1276
30526W        W47374   7.661   5.461  13.118  0.0328  0.0684  0.2189
30527W        W47375   9.527   7.150   2.987  0.0927 -0.2482  0.0950
30528W        W47376   1.594   9.220   2.383  0.2895  0.0851 -0.2429
30529W        W47377  13.601  11.011  17.545 -0.0705 -0.0335  0.0354
30530W        W47378  13.163   5.410  17.529  0.5063 -0.0931  0.1986
30531W        W47379   1.975   4.833   1.171 -0.1500 -0.0305  0.0112
30532W        W47380   4.741   3.278   0.410  0.1474 -0.2342  0.2332
30533W        W47381  13.873   0.638   1.337  0.0486 -0.0270 -0.1460
30534W        W47382  11.767  12.845   0.749 -0.0340 -0.2715  0.1190
30535W        W47383   4.196  12.486  14.876  0.1945  0.0845 -0.1594
30536W        W47384  11.996  13.689  14.689  0.4822 -0.0193 -0.2466
30537W        W47385   7.877   9.291  16.469 -0.0867  0.0714  0.0841
30538W        W47386  14.807   2.521  13.938 -0.0921 -0.0894 -0.1816
30539W        W47387  10.574   2.328  16.730  0.0478  0.3246 -0.0096
30540W        W47388   1.292   2.729   2.316 -0.0693  0.0688  0.0762
30541W        W47389   7.529  15.673  14.411  0.2477  0.0786 -0.3508
30542W        W47390  15.495  12.134  15.652  0.2935  0.3756  0.2208
30543W        W47391  13.558   3.724  17.671 -0.3565 -0.0777 -0.1386
30544W        W47392   5.925  15.100   2.906 -0.1312  0.1036 -0.0017
30545W        W47393  11.864   7.323  16.121 -0.1352  0.1082  0.0946
30546W        W47394   4.042  12.067   0.477  0.0348  0.1256  0.0424
30547W        W47395  10.141  14.758   2.128  0.1653  0.3333  0.0274
30548W        W47396   6.686  10.805  14.833 -0.0683  0.0194 -0.0268
30549W        W47397   1.317   1.021  13.310 -0.0911 -0.1631  0.0121
30550W        W47398   4.764   3.037   0.900  0.1305 -0.1832  0.0282
30551W        W47399   4.930   7.825  13.620  0.1321 -0.0269  0.1074
30552W        W47400   0.647  14.011   0.918  0.1149  0.2109  0.1333
30553W        W47401  12.215   1.194  17.192 -0.0472  0.1226  0.1570
30554W        W47402   8.471   1.547  16.851 -0.0133  0.2051 -0.0023
30555W        W47403   2.276   0.684   0.423 -0.1561 -0.2607 -0.0439
30556W        W47404  11.301   0.098   2.176  0.1733  0.0627 -0.0176
30557W        W47405   1.557   3.019  12.170  0.0760 -0.2111 -0.2080
30558W        W47406   9.757   4.437   0.482 -0.1601 -0.1077  0.0144
30559W        W47407   4.123   1.847   0.055  0.4431  0.0656  0.2159
30560W        W47408   6.039   8.702  13.214  0.1105 -0.0468 -0.0112
30561W        W47409  12.982  11.071  12.704  0.0038 -0.0897 -0.1496
30562W        W47410  12.565  14.952   5.231 -0.1058  0.0760  0.1804
30563W        W47411   0.512  11.160   3.837 -0.0778 -0.0879 -0.1577
30564W        W47412   5.682  16.754   5.634  0.0199  0.0963 -0.0863
30565W        W47413  11.824  11.499   1.744 -0.0753  0.1581 -0.1867
30566W        W47414  13.439   6.637  13.166 -0.1139  0.0735 -0.4064
30567W        W47415   2.979  16.752   2.955 -0.3249 -0.1182 -0.1195
30568W        W47416  13.454  16.069  16.526 -0.2322 -0.2133  0.0580
30569W        W47417   8.057   7.438   0.916  0.1153  0.0025  0.0134
30570W        W47418  14.028  13.176  14.779  0.1886 -0.2023  0.0468
30571W        W47419  14.293  15.082  14.209 -0.0561 -0.1875 -0.1392
30572W        W47420  15.518   8.502   3.502 -0.0227 -0.0268  0.0091
30573W        W47421   2.680  15.325   0.646 -0.0652 -0.1766 -0.3688
30574W        W47422   2.755   8.341  14.759  0.1637  0.2398  0.2622
30575W        W47423  16.633   6.371  12.567 -0.0106  0.2027  0.0904
30576W        W47424   8.082  11.365   0.436  0.0100 -0.1409  0.1903
30577W        W47425   0.398  14.952  13.177 -0.0984  0.2166  0.0873
30578W        W47426  12.689   9.014  16.927  0.0466 -0.0731 -0.2167
30579W        W47427  10.433   3.500  16.095 -0.2311 -0.0561 -0.1183
30580W        W47428  12.242  15.486  17.721  0.1816  0.0465 -0.2136
30581W        W47429   0.219   4.325  15.172 -0.2532 -0.0957 -0.0083
30582W        W47430  16.905   4.147   2.800  0.2341 -0.1532 -0.0359
30583W        W47431   9.340   4.632   1.281  0.2028 -0.1145 -0.0903
30584W        W47432   4.076  12.622  16.009  0.1426  0.0447  0.2009
30585W        W47433  16.008   8.755   4.421  0.0414  0.0154 -0.0256
30586W        W47434   9.186   8.738  13.358 -0.0197  0.1507  0.1396
30587W        W47435   5.045   1.556  14.541  0.1153 -0.0350 -0.2058
30588W        W47436   4.346   8.285   4.940  0.1110  0.2812 -0.2655
30589W        W47437  12.587   0.822  17.119  0.0330  0.0078 -0.6285
30590W        W47438  10.701   6.098  16.012  0.0256 -0.0709 -0.1717
30591W        W47439   2.677   6.650   0.342 -0.0066  0.1977 -0.0586
30592W        W47440  12.341  10.686  14.806 -0.0827 -0.0447  0.1153
30593W        W47441   1.825   9.720   1.026  0.0329  0.1065  0.3547
30594W        W47442  14.146   4.472  17.621  0.2785  0.3299 -0.0491
30595W        W47443  13.820  16.149  13.751 -0.1514  0.2802  0.2333
30596W        W47444  13.216   3.741   3.696 -0.0671  0.1834  0.1355
30597W        W47445  12.756  12.213   3.342 -0.2672 -0.2110  0.4031
30598W        W47446   8.426   8.197   1.472  0.2468  0.2344 -0.1806
30599W        W47447  15.026  12.342  17.738  0.0390  0.0567  0.0051
30600W        W47448  12.749   8.743   4.334  0.0859 -0.3340 -0.0646
30601W        W47449   3.766   6.129  17.491  0.3968  0.0874 -0.4404
30602W        W47450  12.249   6.521  12.358 -0.2592 -0.0528  0.1321
30603W        W47451  11.642  11.041  15.446  0.2081  0.2518  0.1047
30604W        W47452  10.046  16.350   0.150 -0.1324 -0.0611  0.3436
30605W        W47453  12.994   6.631   4.099  0.0329 -0.2162 -0.0337
30606W        W47454  14.648  10.618  12.306  0.4252  0.1059  0.0915
30607W        W47455  15.218   3.556   2.659  0.2369  0.0849 -0.0674
30608W        W47456   4.559   5.961   0.760 -0.2848  0.0058 -0.0306
30609W        W47457   2.580   8.924   3.192 -0.2734  0.1686 -0.0186
30610W        W47458  13.732   7.819  12.443  0.0476 -0.3455  0.2941
30611W        W47459  14.903   0.960   1.001  0.0067 -0.1246 -0.1781
30612W        W47460   4.774   2.756  16.824 -0.2467  0.0725 -0.1383
30613W        W47461  12.927   0.592   2.429 -0.2666  0.0123  0.1231
30614W        W47462  11.097   8.424  11.526  0.1177 -0.0024  0.0903
30615W        W47463   8.252  13.877   6.505 -0.1908  0.0966 -0.2236
30616W        W47464  10.275  14.846  12.602  0.0144  0.2035  0.0251
30617W        W47465   9.635  16.044  15.853 -0.3101  0.1169 -0.0384
30618W        W47466   5.326   5.751  14.325 -0.0750 -0.0908  0.0824
30619W        W47467  11.932  10.423  11.030  0.1433  0.0819 -0.0936
30620W        W47468  15.649  14.031   0.102 -0.0712 -0.6045  0.0484
30621W        W47469   3.031   0.579  14.568 -0.2503  0.1932  0.1446
30622W        W47470  15.979   0.537  15.677 -0.1224  0.2404  0.1029
30623W        W47471   3.998  16.546   4.664  0.0985 -0.0437 -0.1672
30624W        W47472   0.328  16.512  12.818  0.1912  0.1519 -0.1972
30625W        W47473   3.206   1.801   0.629 -0.0010 -0.1268  0.2070
30626W        W47474  11.791  16.719   3.118  0.0611 -0.1385  0.3018
30627W        W47475  10.779   4.976  14.903  0.1100 -0.0645  0.1040
30628W        W47476   4.311  12.513  17.608  0.1081  0.0464 -0.3052
30629W        W47477  14.141   9.688   0.015 -0.0155  0.0973  0.0025
30630W        W47478   5.993   4.323   1.244  0.0727 -0.0436  0.1736
30631W        W47479   1.614   7.434   3.785 -0.0083  0.3267 -0.0396
30632W        W47480   2.658  10.218   2.905 -0.2862 -0.4620 -0.1105
30633W        W47481   1.578   7.258  16.283  0.3180 -0.0452 -0.0961
30634W        W47482   9.239   2.854  17.201  0.0266  0.2219  0.0897
30635W        W47483   6.186  15.214   3.891  0.4436 -0.4308  0.1576
30636W        W47484  12.920  10.549  12.730 -0.0248  0.1272  0.2665
30637W        W47485   8.419   5.834   4.681  0.0372 -0.1844  0.0039
30638W        W47486  12.399   5.368   1.209 -0.1835  0.1910  0.1516
30639W        W47487  12.725   9.371  11.328  0.1780  0.2455  0.0767
30640W        W47488   1.290   1.558  12.667  0.0240  0.0075 -0.2357
30641W        W47489   4.786   9.404  13.359  0.0561 -0.0032  0.1131
30642W        W47490   8.115  14.573  14.759 -0.1541  0.0581 -0.0636
30643W        W47491   0.315  12.827   0.709 -0.0708  0.1209  0.1283
30644W        W47492   1.248   5.990   1.533 -0.0209  0.2825  0.1116
30645W        W47493   3.042   0.851  15.410 -0.2789 -0.1569  0.0968
30646W        W47494   0.824  14.747   0.209  0.2462 -0.0977  0.0859
30647W        W47495  12.190   4.560  14.202 -0.0989  0.2420  0.0753
30648W        W47496   1.722  15.879   3.099 -0.2383  0.1506  0.2604
30649W        W47497  16.262  10.593  17.247 -0.3330 -0.3751 -0.0614
30650W        W47498   3.535  10.365  16.275  0.0481 -0.1150 -0.1372
30651W        W47499  15.423  15.904   3.647  0.0885 -0.0349 -0.1069
30652W        W47500   8.915   5.086   1.676 -0.1987  0.0428  0.2099
30653W        W47501   8.577  16.700   4.648  0.0671 -0.5068 -0.0895
30654W        W47502  11.035   5.289  13.658  0.0459  0.0444  0.0764
30655W        W47503  13.377  16.877   4.092  0.0654  0.0636  0.2568
30656W        W47504   7.797   1.569  12.274 -0.1166  0.1041  0.0483
30657W        W47505   9.599  12.373  14.759  0.0807  0.0733 -0.0365
30658W        W47506  10.605  13.464   3.419 -0.1551 -0.1312 -0.2499
30659W        W47507  12.017   5.725  11.625 -0.2069  0.3044  0.0435
30660W        W47508  16.713   4.771  17.668 -0.0833 -0.0616  0.3833
30661W        W47509   2.950   7.262  16.418  0.1977  0.1747  0.0320
30662W        W47510   1.818   7.862   6.031 -0.1192 -0.1263 -0.0581
30663W        W47511   8.531   8.910   3.794  0.1296  0.0839 -0.0021
30664W        W47512   6.882   6.251   1.981  0.0244 -0.1242 -0.2055
30665W        W47513  16.326   5.829   1.248 -0.2962 -0.1689  0.0520
30666W        W47514  11.565  12.454   5.409  0.1310 -0.1210  0.1850
30667W        W47515   3.560   7.827  12.941  0.1089 -0.0481  0.0674
30668W        W47516   6.260  11.779  17.037 -0.0110 -0.2656 -0.0480
30669W        W47517  15.124  15.267  12.622 -0.2336 -0.2066  0.1579
30670W        W47518   8.153   0.338   4.514  0.0450  0.1808  0.1915
30671W        W47519   0.102   1.255  12.466  0.3759  0.2484 -0.1079
30672W        W47520   5.507  11.651  13.242  0.0060 -0.0091  0.2355
30673W        W47521   2.035  12.505   0.761 -0.0654 -0.2175  0.0418
30674W        W47522   3.403  11.550   1.140 -0.0344  0.0653 -0.2033
30675W        W47523  13.171   0.372   3.859  0.0683 -0.4196 -0.1688
30676W        W47524  15.702   1.462  11.972 -0.0760 -0.1452 -0.0962
30677W        W47525  14.576  12.494  15.336 -0.0526 -0.3594  0.3826
30678W        W47526   9.353   7.537   3.266 -0.0162 -0.1466 -0.1864
30679W        W47527   0.100   6.916   4.496 -0.0170 -0.2097  0.1260
30680W        W47528   2.684  15.396  14.613  0.1203 -0.0101  0.3927
30681W        W47529   9.006   5.692  15.960  0.2986 -0.2370  0.3633
30682W        W47530   7.574  10.570   2.052  0.0421  0.0851  0.1094
30683W        W47531  14.655   8.909   0.830 -0.0378 -0.3951  0.2818
30684W        W47532   9.013  15.411  17.529 -0.0214 -0.3910 -0.4273
30685W        W47533   3.828  10.941  14.564 -0.1827 -0.2475 -0.3327
30686W        W47534  16.945   8.214   5.184 -0.0486 -0.0968  0.0760
30687W        W47535  12.909  10.035   4.102  0.0096 -0.0505 -0.1402
30688W        W47536   5.587   3.078  15.878  0.2115  0.3499 -0.1091
30689W        W47537  12.407   1.193  16.658 -0.3121 -0.0206  0.0266
30690W        W47538  12.755  10.916  13.601 -0.0757  0.1388 -0.2981
30691W        W47539  12.382  11.589  14.485 -0.0211  0.4568 -0.3061
30692W        W47540  12.250  16.407   1.471 -0.1905  0.1161 -0.3107
30693W        W47541  14.994   5.813   5.115  0.0281 -0.1675  0.0757
30694W        W47542  11.620   1.174   2.196 -0.1357  0.1606 -0.1184
30695W        W47543  15.455   1.031   3.387  0.1022 -0.2870 -0.2623
30696W        W47544  14.512  14.864   3.097 -0.3033 -0.0480 -0.0147
30697W        W47545   9.093  11.143  14.411 -0.2950  0.1316 -0.0205
30698W        W47546   1.836   1.528   3.030 -0.0345  0.1863  0.1495
30699W        W47547   1.331   0.846  13.828 -0.0092 -0.2252  0.1079
30700W        W47548   0.548  16.075  17.611  0.2314 -0.1278 -0.0061
30701W        W47549  13.910  13.100  12.612  0.4314 -0.0350  0.4003
30702W        W47550   6.323  16.958  17.174  0.0519  0.0474 -0.0879
30703W        W47551   8.745   3.563  13.598  0.0059 -0.1535  0.0955
30704W        W47552  16.379   9.232   5.038  0.2554  0.0025  0.1308
30705W        W47553   7.126  14.190  11.084 -0.0606  0.2618 -0.0849
30706W        W47554  14.620  17.147  15.070  0.2909  0.0917 -0.0591
30707W        W47555  12.822   5.372   0.425  0.1146 -0.1860  0.3768
30708W        W47556   5.427   2.065   0.129  0.0313  0.2476  0.0560
30709ION     NA47557   9.260   4.627   4.910 -0.0211 -0.1799  0.2707
30710ION     NA47558   7.764   7.417   5.133  0.0530  0.1197  0.0538
30711ION     NA47559  12.484  13.452   4.718  0.4223  0.0011  0.1877
30712ION     NA47560   3.337   3.830  11.569 -0.3348 -0.3715 -0.0677
30713ION     NA47561  12.412   0.363   5.941  0.0722  0.2673  0.0715
30714ION     NA47562   7.213  16.974   6.379 -0.1626 -0.1010 -0.3688
30715ION     NA47563  11.321   8.233  11.077  0.0610  0.0942  0.0315
30716ION     NA47564  11.650  12.910  11.478 -0.1213  0.2535 -0.3792
30717ION     NA47565   9.074  12.597  11.276  0.0131 -0.1024  0.1930
30718ION     NA47566   5.420   0.709  11.577 -0.2452 -0.3000 -0.1656
30719ION     NA47567  15.497   7.955   6.260  0.2957 -0.2993  0.0864
30720ION     NA47568   8.040  16.877   6.381 -0.2118  0.1716  0.3632
30721ION     NA47569   7.359   1.474   6.231 -0.2318  0.0006  0.2026
30722ION     NA47570  11.601   2.829   5.792 -0.0926  0.1008 -0.1867
30723ION     NA47571   8.356  11.688  16.973 -0.0041 -0.0682 -0.2342
30724ION     NA47572   1.745   9.633  12.791  0.1980  0.0031 -0.0359
30725ION     NA47573  11.915   7.012   6.310 -0.3591 -0.1048 -0.0548
30726ION     NA47574   2.302  14.443  11.865  0.2001 -0.0109 -0.0403
30727ION     NA47575   5.204   2.760  16.590  0.1568  0.0259 -0.2467
30728ION     NA47576   8.351   1.675  11.121  0.0257 -0.2533 -0.0102
30729ION     NA47577   5.761  15.355  11.606 -0.2883  0.0386 -0.1339
30730ION     NA47578  14.825  11.749  13.197  0.0950  0.2505  0.2024
30731ION     NA47579   2.000   6.185  11.573 -0.1941  0.0070 -0.1817
30732ION     NA47580   1.723   2.217   6.517 -0.0146  0.0517 -0.1322
30733ION     NA47581   4.258   2.209   3.391 -0.1004 -0.0714 -0.0320
30734ION     NA47582   5.576   9.382   6.428  0.0166  0.4377  0.1867
30735ION     NA47583   3.533  14.469   6.745 -0.2711  0.1097 -0.1708
30736ION     NA47584  14.130  14.417  11.580 -0.2335  0.1189 -0.1975
30737ION     NA47585   8.626   1.920  17.185 -0.1973 -0.0209  0.2643
30738ION     NA47586  15.429  15.277  11.666  0.0594 -0.1181 -0.0999
30739ION     NA47587  13.120   4.081  11.727 -0.3645 -0.2901 -0.0295
30740ION     NA47588   1.296  12.151  11.712  0.0662 -0.0882  0.1201
30741ION     NA47589  15.110  14.093  14.631 -0.0289  0.1864 -0.0872
30742ION     NA47590  10.069  14.500   6.137  0.0370  0.0271 -0.2975
30743ION     NA47591   6.407   9.539   5.951  0.0044 -0.1978  0.2702
30744ION     NA47592  16.158   3.329  11.498  0.0173 -0.0324 -0.0651
30745ION     NA47593  13.014   5.528   5.959  0.3498 -0.4638 -0.0149
30746ION     NA47594  12.247  13.804   2.202 -0.1764 -0.2906 -0.1338
30747ION     NA47595  16.000  10.891   2.780  0.0383 -0.0762 -0.0736
30748ION     NA47596   8.334   3.334  12.327 -0.2292  0.1385  0.3361
30749ION     NA47597   9.198   5.098  11.236  0.0231 -0.2190  0.1322
30750ION     NA47598   4.982  11.805   6.888  0.1706  0.2252 -0.0269
30751ION     NA47599   6.078   3.755   6.569  0.2703  0.2316 -0.0426
30752ION     NA47600  12.783   3.248   6.296 -0.0586 -0.0014  0.3392
30753ION     NA47601   6.273   7.111   4.587 -0.0571 -0.0815 -0.1353
30754ION     NA47602  11.345  15.543  10.981  0.1657 -0.0624  0.2794
30755ION     NA47603   2.405  15.107  11.838  0.0739 -0.2073 -0.1060
30756ION     NA47604   5.495   1.269   6.558 -0.2422  0.1007  0.0117
30757ION     NA47605   7.443   5.948   6.342  0.2003 -0.2062  0.3115
30758ION     NA47606  11.069   2.777  10.652  0.0170 -0.0315 -0.0386
30759ION     NA47607   7.479   9.031  11.322 -0.1328 -0.0524 -0.1558
30760ION     NA47608  11.054   7.665  11.050 -0.2015 -0.1927  0.0119
30761ION     NA47609   1.500   7.955  16.932 -0.0115  0.0593 -0.2397
30762ION     NA47610  11.585  10.354   6.009 -0.0252  0.1671 -0.2030
30763ION     NA47611  16.049   6.419   6.204 -0.3232  0.1830 -0.1047
30764ION     NA47612   7.673  13.409  11.444 -0.2587  0.0350 -0.1935
30765ION     NA47613  12.730  10.560   4.721  0.0630 -0.0141 -0.2407
30766ION     NA47614  16.415  13.722   6.808 -0.1158 -0.0947  0.3974
30767ION     NA47615   4.671  17.019   6.672  0.0398  0.1460 -0.2091
30768ION     NA47616   0.327   0.993  12.111  0.0200  0.0700  0.3272
30769ION     NA47617   3.441   6.874   3.364 -0.0232  0.1748  0.2081
30770ION     NA47618  13.649  16.056  11.506 -0.0651 -0.1684 -0.1321
30771ION     NA47619  17.131  16.468  13.768  0.0343  0.0100 -0.1047
30772ION     NA47620  15.501   4.071   6.458 -0.1169 -0.1952  0.2717
30773ION     NA47621  10.483   5.145  11.070 -0.3307 -0.0486  0.2133
30774ION     NA47622  17.088   0.991  11.530  0.3184 -0.1115 -0.0986
30775ION     NA47623  12.194   3.576  11.300 -0.2190  0.0073 -0.0409
30776ION     NA47624   5.793   7.455  11.387  0.0609  0.2380 -0.1556
30777ION     NA47625  13.014   6.765  11.944  0.3645  0.3740 -0.0747
30778ION     NA47626  14.792   5.661  12.047 -0.0790 -0.1064 -0.1535
30779ION     NA47627   0.257  14.664  16.261 -0.3183 -0.1749 -0.0020
30780ION     NA47628   1.353  11.696   6.913 -0.0562  0.2369 -0.0622
30781ION     NA47629   4.093   2.019  12.282 -0.0015 -0.0539 -0.0619
30782ION     NA47630  13.794  12.394  11.448 -0.0257 -0.1387  0.4764
30783ION     NA47631  16.524   5.058   0.281  0.0383 -0.1445 -0.1915
30784ION     NA47632   5.713   9.876   6.478  0.0289  0.2300 -0.3223
30785ION     NA47633  15.923  14.615  11.911 -0.2238  0.3611  0.1504
30786ION     NA47634  14.651   0.935   6.314  0.2030  0.4672 -0.0785
30787ION     NA47635   2.193  10.668   6.367  0.1695  0.0976 -0.0753
30788ION     NA47636  10.194  10.235   6.305 -0.0202  0.0927  0.0181
30789ION     NA47637   4.052  16.390   2.059 -0.2790 -0.2209  0.2109
30790ION     NA47638   3.020   6.910  11.492  0.0808  0.1389 -0.1837
30791ION     NA47639  16.613  11.017   1.617  0.0925  0.3318 -0.2181
30792ION     NA47640   9.392   8.285  11.391  0.0141 -0.1410  0.1482
30793ION     NA47641  15.708  14.002   6.249 -0.0985  0.0905 -0.0474
30794ION     NA47642   9.362  13.130  14.221 -0.0070 -0.1225 -0.2698
30795ION     NA47643  15.051   6.386  11.378  0.0571 -0.3498 -0.1351
30796ION     NA47644   8.866  10.119  11.292  0.0171  0.0597 -0.0273
30797ION     NA47645  12.664  12.174   6.360  0.3773 -0.2600 -0.0202
30798ION     NA47646  11.978  12.087  11.415 -0.1421 -0.1374 -0.1787
30799ION     NA47647  16.404   4.171   6.283  0.2488 -0.0399  0.1985
30800ION     NA47648   7.491  11.327  11.543 -0.1028  0.2867  0.1477
30801ION     NA47649  14.278  12.317   6.447  0.0729 -0.0079 -0.0677
30802ION     NA47650   1.705   4.989  11.460 -0.0712  0.3793 -0.1016
30803ION     NA47651   6.680  16.745  15.824  0.0991  0.2978  0.1055
30804ION     NA47652  12.220   5.860  11.165 -0.4064 -0.0425  0.1270
30805ION     NA47653   0.409  14.689   7.001 -0.2745  0.2700  0.0858
30806ION     NA47654  12.285  13.628   6.460  0.0561 -0.1709  0.2871
30807ION     NA47655  14.205  16.622  13.616 -0.1231  0.0830 -0.3093
30808ION     NA47656   5.318   9.574  11.519  0.3124 -0.0427  0.0095
30809ION     NA47657   9.170  11.616  11.240  0.0740  0.2486 -0.1749
30810ION     NA47658   7.366   6.371  11.868  0.1706 -0.1000  0.3704
30811ION     NA47659   9.208  13.804  17.041  0.0467 -0.0505  0.0271
30812ION     NA47660   4.769   9.838   6.753 -0.0588 -0.1220  0.2960
30813ION     NA47661  16.651  12.562   0.124 -0.3975 -0.0313  0.0284
30814ION     NA47662  14.503   9.846  11.754 -0.0574  0.2189 -0.3555
30815ION     NA47663  14.982   5.854   3.896  0.2124 -0.0686 -0.2886
30816ION     NA47664  13.213  11.958   4.500 -0.2452  0.0975 -0.0182
30817ION     NA47665  10.991   6.338  11.827 -0.3232  0.2171 -0.0942
30818ION     NA47666   6.945   1.585   0.142 -0.1645 -0.0618  0.0585
30819ION     NA47667   7.720  16.992  11.399  0.0604  0.0943  0.0831
30820ION     NA47668  13.175  12.908  15.162 -0.1528 -0.2120  0.0826
30821ION     NA47669   8.055   6.978   1.903 -0.0125 -0.0950  0.1952
30822ION     NA47670   7.622   7.181  11.204  0.0778 -0.0728 -0.1944
30823ION     NA47671  13.646   8.065   1.536  0.2388 -0.4251 -0.0226
30824ION     NA47672   5.532  16.103  13.185  0.0450  0.1215 -0.1280
30825ION     NA47673  14.307   0.125  11.223 -0.3539 -0.3577  0.2746
30826ION     NA47674   5.102  13.242  14.803 -0.0215 -0.4723 -0.0581
30827ION     NA47675   9.299   6.090  10.992 -0.2471  0.2834  0.3811
30828ION     NA47676  13.942   1.499   6.257 -0.1708  0.0123 -0.2721
30829ION     NA47677   6.846  10.186  15.899 -0.1063 -0.0502 -0.1625
30830ION     NA47678  15.595   7.108  11.473  0.1317 -0.1334 -0.0130
30831ION     NA47679   2.893   9.615  11.881 -0.2459  0.1992 -0.0739
30832ION     NA47680   6.914  12.899  11.640 -0.0940  0.0992 -0.1126
30833ION     NA47681   8.954   0.120  11.094  0.0673 -0.3907 -0.2049
30834ION     NA47682   7.903  10.424  11.554 -0.2020  0.2135 -0.1363
30835ION     NA47683   0.449   3.536   6.478  0.3527  0.0962  0.1140
30836ION     NA47684   7.285  12.260   1.807  0.0537 -0.0032  0.1476
30837ION     NA47685  12.247  12.754  16.626 -0.1632  0.2124 -0.1126
30838ION     NA47686   2.613   4.444   0.717  0.1851 -0.1089  0.2211
30839ION     NA47687  16.561  12.911   6.807  0.3658 -0.1858  0.0663
30840ION     NA47688  14.364  15.915   0.646  0.0020 -0.1642 -0.3875
30841ION     NA47689  10.161   0.263   5.839  0.0738  0.0723  0.1171
30842ION     NA47690   7.292   9.046   6.363  0.0072  0.0440 -0.2030
30843ION     NA47691   4.489   0.023  12.214  0.1975 -0.1947  0.3180
30844ION     NA47692   0.869   7.554  11.549  0.2799  0.2405  0.0880
30845ION     NA47693  16.523   6.307  13.218  0.0548 -0.0888  0.1245
30846ION     NA47694  16.468  11.847   6.855  0.1283 -0.4248 -0.0207
30847ION     NA47695  15.832   0.006  11.545  0.0276 -0.2091  0.1265
30848ION     NA47696   2.588  16.136  11.956  0.1822 -0.2216 -0.1668
30849ION     NA47697   7.573  10.630   5.889 -0.1327 -0.1173  0.0129
30850ION     NA47698   1.569   3.987  11.754 -0.0985  0.0243  0.2113
30851ION     NA47699  14.700  10.170   6.256 -0.0319 -0.0483 -0.0890
30852ION     NA47700  10.714   6.786  10.955 -0.2821  0.1543  0.0958
30853ION     NA47701   4.947  11.383  12.102  0.0675  0.1360  0.3777
30854ION     NA47702  14.953   9.405  11.121  0.1900  0.0667 -0.0525
30855ION     NA47703  13.774   2.035   6.161  0.3383 -0.3687  0.1495
30856ION     NA47704  13.941   7.494   6.298 -0.0124  0.1556  0.1128
30857ION     NA47705   2.964  11.679  11.652 -0.0278 -0.1855 -0.3209
30858ION     NA47706  13.495  12.516   6.327 -0.0099  0.2804 -0.0583
30859ION     NA47707   8.372   3.787   6.329  0.0433 -0.0640  0.2628
30860ION     NA47708  13.893  10.202  11.147 -0.1704 -0.0271  0.0823
30861ION     NA47709   5.624   7.871  13.012 -0.0140  0.1324 -0.0112
30862ION     NA47710  11.454  16.438  11.194 -0.1209  0.1834  0.1775
30863ION     NA47711   2.351  10.426  11.768  0.1007  0.4332  0.2106
30864ION     NA47712  15.116  12.960   6.763  0.3062 -0.2276 -0.3688
30865ION     NA47713   3.745   1.261   5.070  0.1645  0.0930 -0.0029
30866ION     NA47714   9.192   8.262   6.259  0.1804 -0.4307 -0.1045
30867ION     NA47715   8.616  10.794  13.578 -0.2850 -0.1006  0.0959
30868ION     NA47716   8.283  15.125  11.620  0.4287 -0.0362  0.2035
30869ION     NA47717   6.134  12.614  11.769 -0.2711 -0.2829  0.1335
30870ION     NA47718   1.083  12.269   6.683  0.0392  0.1158  0.1370
30871ION     NA47719  14.849  13.648   6.377  0.0611  0.0965 -0.0049
30872ION     NA47720   4.106   8.145   3.493 -0.3114 -0.1022  0.0580
30873ION     NA47721  15.068  10.913  11.218 -0.2085  0.3202 -0.2791
30874ION     NA47722   9.962   8.344  17.223  0.1213 -0.0160 -0.0061
30875ION     NA47723   6.526  15.753   6.554 -0.3504  0.2876 -0.4905
30876ION     NA47724   0.155   0.836  13.742  0.0343  0.1196 -0.1015
30877ION     NA47725  14.801   5.042  10.950  0.0751 -0.2015 -0.1533
30878ION     NA47726  12.742   7.505  10.738 -0.0112  0.0650 -0.0525
30879ION     NA47727   7.410   8.291   6.092 -0.1790 -0.1643  0.1461
30880ION     NA47728   4.174   1.716  11.823  0.0565 -0.0366 -0.0312
30881ION     NA47729  16.091   7.406   5.953 -0.1832 -0.0418 -0.1050
30882ION     NA47730   0.898   8.807   6.575 -0.2534  0.1413  0.2068
30883ION     NA47731   8.098  15.095  14.795  0.0533  0.2214  0.1153
30884ION     NA47732   4.469   0.720   6.391 -0.0381  0.0633 -0.2022
30885ION     NA47733  14.055  10.997  11.296  0.0212  0.2184  0.0774
30886ION     NA47734  16.449  10.590   5.198  0.2837 -0.2526 -0.1956
30887ION     NA47735  13.996   6.358   6.310 -0.1383 -0.0801  0.1462
30888ION     NA47736  15.427  10.144  13.479  0.0242 -0.0048  0.3797
30889ION     NA47737  11.912   4.748  10.746 -0.0432  0.2899  0.2263
30890ION     NA47738  10.939   8.231   2.697  0.2307 -0.1638  0.2161
30891ION     NA47739   5.048  16.723   2.370 -0.3841  0.0472 -0.0385
30892ION     NA47740  13.909   9.745   6.442 -0.4951 -0.0567  0.2123
30893ION     NA47741  10.279   1.329   4.614 -0.2121  0.1164 -0.1255
30894ION     NA47742   1.155   9.413  12.044 -0.0386  0.0397  0.2835
30895ION     NA47743   7.682  15.969  12.208 -0.1417  0.1135  0.5508
30896ION     NA47744   7.836   6.313  15.102  0.2219  0.0722  0.1438
30897ION     NA47745  13.565   8.922  11.392  0.0197  0.0047 -0.1625
30898ION     NA47746  11.450   4.258   6.161  0.3208  0.0872 -0.1694
30899ION     NA47747   7.891  13.984   5.920 -0.2118  0.0220  0.0209
30900ION     NA47748  13.758  14.991  15.753  0.0469 -0.0779  0.2502
30901ION     NA47749  14.908  11.071   6.535  0.0084 -0.0195 -0.2194
30902ION     NA47750  12.969  16.969   5.946 -0.3336  0.1513 -0.2273
30903ION     NA47751  14.496   2.670  11.101 -0.2078 -0.0386  0.1477
30904ION     NA47752   3.633   4.628   6.531  0.2071 -0.0690 -0.2596
30905ION     NA47753   0.762   1.360  11.806  0.0126  0.1534  0.0410
30906ION     NA47754   8.892   2.424  16.356  0.0455 -0.1290 -0.0721
30907ION     NA47755  15.773  13.305   6.678 -0.1930  0.1063 -0.1382
30908ION     NA47756   8.729  13.987   6.381  0.3175  0.0225 -0.0918
30909ION     NA47757  13.438   7.093   6.258  0.2767 -0.1056  0.1099
30910ION     NA47758   3.639   2.210   6.751 -0.0211 -0.1802  0.0396
30911ION     NA47759  13.934  12.550   5.374  0.1947  0.1967  0.2817
30912ION     NA47760   7.904   0.852  11.200 -0.0157  0.0642  0.0232
30913ION     NA47761  12.447   7.867  12.575  0.3508  0.1585  0.0621
30914ION     NA47762   8.056  13.598   2.230  0.3052 -0.0922  0.0009
30915ION     NA47763  13.746   0.734   2.994 -0.0548 -0.0726  0.1300
30916ION     NA47764   6.590  12.267   1.280  0.0960 -0.1449 -0.0516
30917ION     NA47765   2.969  13.249  11.903 -0.1971  0.1940 -0.3935
30918ION     NA47766  13.216  11.032  11.399  0.0611  0.3578 -0.0412
30919ION     NA47767  10.580  16.703  11.086  0.0458 -0.1884 -0.0203
30920ION     NA47768   1.763   1.263  11.709  0.1510 -0.0516  0.2294
30921ION     NA47769   7.440  11.356   6.465  0.1719 -0.1089  0.0629
30922ION     NA47770  16.231   4.869  11.647  0.0327 -0.2186  0.0555
30923ION     NA47771   4.329   6.402   6.470 -0.0965  0.1733 -0.3181
30924ION     NA47772   0.591  13.189  12.099  0.0588  0.0258  0.1612
30925ION     NA47773  16.000   8.001  11.875  0.0268 -0.2778  0.2888
30926ION     NA47774   4.840  11.167  11.652 -0.1457  0.1442  0.3217
30927ION     NA47775   7.753  11.646   5.993 -0.0449 -0.1388 -0.1717
30928ION     NA47776  13.530  15.409   6.291  0.0343 -0.1028 -0.1108
30929ION     NA47777  16.946  16.135   6.794 -0.0211  0.1000  0.2421
30930ION     NA47778  13.551   6.480   2.305 -0.0954 -0.3209  0.0823
30931ION     NA47779   7.278  16.261  11.340 -0.1746  0.0378 -0.0078
30932ION     NA47780   7.862   9.479   6.475 -0.0273  0.3211  0.0155
30933ION     NA47781   3.930  14.735   5.959 -0.0788  0.4355  0.1453
30934ION     NA47782  11.200   1.215  10.789  0.1831  0.1076 -0.2313
30935ION     NA47783  10.391   8.814   6.178 -0.2417 -0.0830 -0.1465
30936ION     NA47784  13.315   0.323   6.289 -0.1946 -0.4622 -0.0248
30937ION     NA47785  10.748   9.020  16.997  0.0889  0.1336 -0.1223
30938ION     NA47786  17.023   4.984  11.764 -0.4642 -0.1789 -0.1961
30939ION     NA47787  16.575  17.097   6.128 -0.1136  0.0020  0.2281
30940ION     NA47788   0.103  12.398   2.065  0.2212  0.1461  0.1179
30941ION     NA47789   8.669  10.017   6.288  0.1968  0.0735  0.0832
30942ION     NA47790   8.990  15.246   6.041  0.1775 -0.0858  0.0429
30943ION     NA47791   5.024   6.978   5.956 -0.2079  0.3089 -0.1214
30944ION     NA47792  11.103   0.322   5.822  0.0832 -0.1056 -0.0679
30945ION     NA47793   2.408  10.202   0.151  0.0006 -0.0059  0.0212
30946ION     NA47794   5.097  12.814   7.014  0.0722  0.0714  0.2126
30947ION     NA47795   2.894  12.452   6.942 -0.0209  0.2014  0.1282
30948ION     NA47796  17.079   3.534  11.580  0.0860  0.1282 -0.3069
30949ION     NA47797   3.615   8.040   6.449  0.1441  0.0268  0.1120
30950ION     NA47798   1.704   6.579   3.555  0.2717 -0.1773 -0.1740
30951ION     NA47799   7.504   5.754  11.154  0.2546  0.0693 -0.4424
30952ION     NA47800  14.489  14.906   4.738  0.3697  0.3957 -0.2411
30953ION     NA47801  16.188  10.342   6.686  0.3046 -0.1130 -0.1220
30954ION     NA47802   2.012  11.419  11.714 -0.4717 -0.0165  0.2154
30955ION     NA47803   4.101   5.855  16.414 -0.2022 -0.2533 -0.0275
30956ION     NA47804   8.754   4.535  17.349 -0.2307  0.3354 -0.1048
30957ION     NA47805   2.836  16.934  11.709  0.1054  0.1363 -0.2020
30958ION     NA47806  12.730   8.266   6.199  0.0218 -0.0894  0.0355
30959ION     NA47807   3.292   1.289  12.096  0.0683 -0.4363  0.0001
30960ION     NA47808  10.053   1.420   2.325 -0.2020 -0.2125 -0.1005
30961ION     NA47809  10.239   1.356   5.788  0.1986  0.1311 -0.0275
30962ION     NA47810   6.879   0.707   6.533  0.3092  0.2686 -0.4497
30963ION     NA47811   1.979  14.782   1.864 -0.1728 -0.2397 -0.0099
30964ION     NA47812  13.407   8.940   6.388 -0.0029  0.0513 -0.0945
30965ION     NA47813   9.707   6.646  10.898 -0.0076 -0.1454  0.2990
30966ION     NA47814   6.896   2.441  11.641 -0.2528  0.1882  0.3501
30967ION     NA47815  16.770   9.805  11.280  0.0247  0.1880  0.2026
30968ION     NA47816   6.712   5.461   0.029  0.3913  0.1841 -0.0068
30969ION     NA47817   8.694  14.292   3.259  0.1749 -0.0527  0.3071
30970ION     NA47818  13.583  11.762  11.368 -0.0062  0.0748 -0.0682
30971ION     NA47819  13.900   4.401   6.388 -0.1096  0.2661  0.0501
30972ION     NA47820  13.289  16.820  11.259  0.0626 -0.1883  0.2302
30973ION     NA47821  12.628  14.474  11.535  0.1170  0.1204  0.0350
30974ION     NA47822   5.655   8.300  11.474 -0.0849  0.1751 -0.0503
30975ION     NA47823   5.779   5.194   1.000  0.3231  0.2450 -0.0314
30976ION     NA47824  10.623   1.780   5.656  0.1605 -0.4470  0.0264
30977ION     NA47825   7.537  14.437  11.328  0.0691 -0.2254 -0.2081
30978ION     NA47826  15.055  14.493  11.658 -0.2062  0.0639  0.1863
30979ION     NA47827   7.707   4.882  11.256 -0.1765 -0.1492 -0.3263
30980ION     NA47828   3.685   8.957  11.712 -0.1360 -0.3201 -0.0696
30981ION     NA47829  15.206   9.391  13.357  0.1305 -0.0063  0.0657
30982ION     NA47830   8.064   9.629  11.237  0.0880  0.2605 -0.0990
30983ION     NA47831   1.697   2.986  11.666 -0.1150 -0.0141  0.3430
30984ION     NA47832   2.973  11.706   6.247 -0.0427  0.0058 -0.1626
30985ION     NA47833  16.582  12.018  11.521  0.0239 -0.3967 -0.0626
30986ION     NA47834   9.819  15.379  11.317  0.1691 -0.2185 -0.0197
30987ION     NA47835  11.752   0.692  11.158 -0.0225 -0.0259 -0.2479
30988ION     NA47836  16.843  11.811  15.392 -0.0936 -0.1184  0.1904
30989ION     NA47837  11.751  12.267   6.390  0.0928  0.1097 -0.1489
30990ION     NA47838  11.794  15.009   6.074 -0.2872 -0.1468 -0.2992
30991ION     NA47839  16.753   5.018   6.425 -0.0661 -0.0164  0.1916
30992ION     NA47840  10.484  10.559  11.445 -0.0516 -0.1318 -0.0459
30993ION     NA47841   9.176   2.817   6.011  0.1349  0.2283  0.1385
30994ION     NA47842   3.060  10.005   4.851  0.3089 -0.1528  0.3869
30995ION     NA47843   1.127   0.645  11.648 -0.1620 -0.1176  0.0187
30996ION     NA47844   4.944  13.861  11.701 -0.1040  0.1559 -0.3042
30997ION     NA47845   6.437  14.886   6.402 -0.0175  0.1009 -0.1840
30998ION     NA47846  13.243   4.712   6.011  0.1220  0.1159 -0.5396
30999ION     NA47847   5.141   5.964   6.369 -0.1141  0.1297  0.0874
31000ION     NA47848  11.500   6.123   6.175 -0.3925 -0.1519  0.2264
31001ION     NA47849  13.484  14.010  13.644 -0.0275 -0.1049  0.1662
31002ION     NA47850   8.517  10.832   6.187  0.3142  0.0239 -0.0007
31003ION     NA47851   8.360  12.345   6.053 -0.0791  0.3858 -0.1977
31004ION     NA47852  15.059   3.618   6.231 -0.2271  0.3205 -0.1316
31005ION     NA47853   5.527  10.262   6.733  0.0722  0.0481 -0.2647
31006ION     NA47854   8.890   3.430   5.851  0.4015 -0.0032  0.0682
31007ION     NA47855   6.204   7.217  13.007 -0.1410 -0.1357 -0.0037
31008ION     NA47856  13.967   7.066   0.992 -0.2126 -0.0060  0.2353
31009ION     NA47857   4.081   4.422  11.670  0.0718  0.2203 -0.2365
31010ION     NA47858   3.245   4.517  15.201 -0.2921 -0.0191 -0.0371
31011ION     NA47859  11.093   1.743   2.930  0.1223 -0.0110 -0.4393
31012ION     NA47860   4.728   0.023  11.668 -0.0116 -0.1903 -0.1504
31013ION     NA47861   7.215   3.320   6.073  0.0978 -0.1133  0.0091
31014ION     NA47862  14.190   3.515  11.111  0.0636 -0.0968 -0.0498
31015ION     NA47863   0.401  10.807  11.589 -0.1125 -0.0792 -0.2109
31016ION     NA47864   7.757   4.490   6.256 -0.0221  0.4328 -0.0857
31017ION     NA47865   6.841   7.513   6.211  0.1694 -0.0392  0.2380
31018ION     NA47866  15.546  16.472   6.503 -0.0530  0.0968  0.0939
31019ION     NA47867  10.480   3.428  11.355  0.0185  0.3736 -0.1013
31020ION     NA47868   5.979   6.971   6.324 -0.1236  0.2087 -0.1943
31021ION     NA47869   5.515  12.425   7.038 -0.2477 -0.0442 -0.0117
31022ION     NA47870  14.907   4.611   6.294  0.2286 -0.1097  0.0128
31023ION     NA47871   7.624   1.643  11.582 -0.2154 -0.3747  0.0917
31024ION     NA47872   1.991   9.671  11.711 -0.1072 -0.1137  0.0291
31025ION     NA47873   9.121   7.243  17.701 -0.1426 -0.3860  0.0602
31026ION     NA47874  15.165  16.819  13.745  0.0730 -0.2051 -0.1454
31027ION     NA47875  12.143   2.349  10.712  0.1336  0.1951  0.1020
31028ION     NA47876  16.198  15.616  11.750 -0.0196 -0.1613 -0.2199
31029ION     NA47877   2.944   1.045   6.978 -0.3247  0.0312 -0.0899
31030ION     NA47878   8.199  13.668  17.024 -0.2325 -0.0631  0.2225
31031ION     NA47879   4.902   2.585   6.632  0.1539  0.0836  0.2595
31032ION     NA47880  14.202   4.130   1.534 -0.1614  0.0842  0.0494
31033ION     NA47881   1.489  10.568   6.938 -0.1650  0.3170  0.0816
31034ION     NA47882  13.060  16.363   5.202  0.1810  0.2531 -0.1775
31035ION     NA47883   5.775   8.592   6.485  0.1207  0.0510  0.0243
31036ION     NA47884   3.291  16.666   6.982 -0.0164 -0.2274  0.0941
31037ION     NA47885   7.941   6.764   5.905  0.1057  0.0077  0.1809
31038ION     NA47886   9.108   8.418   2.865 -0.2744  0.0102 -0.2440
31039ION     NA47887   2.778   8.052   1.082  0.0750  0.1285  0.2333
31040ION     NA47888   0.198   2.588  13.661 -0.0713  0.1275 -0.1200
31041ION     NA47889   0.956   8.308  11.492  0.1178  0.1062  0.1593
31042ION     NA47890   3.979   8.200  13.363 -0.1812 -0.2079  0.1850
31043ION     NA47891   4.417   3.312  15.238  0.0015 -0.2336  0.0078
31044ION     NA47892   1.770  17.070   6.895 -0.0699  0.2711  0.1419
31045ION     NA47893  16.530   4.169  11.608  0.2781  0.0490 -0.0124
31046ION     NA47894   0.822   5.054  11.318  0.1027 -0.0901 -0.0926
31047ION     NA47895  12.942  15.926   6.358  0.1785 -0.0768  0.4440
31048ION     NA47896   2.975   1.202  15.867 -0.1662  0.3007  0.1756
31049ION     NA47897   1.865  12.477   6.789  0.1137 -0.2554 -0.3974
31050ION     NA47898  15.086   4.411   5.815  0.2088 -0.1618  0.3599
31051ION     NA47899  10.645   1.855  10.745  0.0603  0.1724  0.1192
31052ION     NA47900  11.864   1.092   5.839  0.1540  0.0847 -0.2225
31053ION     NA47901  14.999  16.680  11.308  0.1335  0.1143 -0.3185
31054ION     NA47902  11.080  13.049   6.251  0.2500 -0.0429  0.0466
31055ION     NA47903   5.815  13.899  11.603 -0.0434 -0.1639 -0.2439
31056ION     NA47904   9.918   4.432  11.227 -0.1839  0.0710  0.0094
31057ION     NA47905   8.937  14.975  11.345 -0.0750 -0.0238  0.2219
31058ION     NA47906   4.102   9.405   6.517  0.1289 -0.1399 -0.1466
31059ION     NA47907   5.879  15.125   6.926 -0.2355 -0.1595  0.2410
31060ION     NA47908  11.581  13.983  11.462 -0.1628  0.0399  0.1350
31061ION     NA47909   2.746   8.437   6.715  0.0052 -0.4506  0.1654
31062ION     NA47910   0.294   9.573  11.483 -0.0342  0.0037 -0.0886
31063ION     NA47911  11.415  13.031  12.851 -0.2211 -0.1725 -0.4232
31064ION     NA47912  15.386  16.518   2.944  0.1765  0.0824 -0.1111
31065ION     NA47913  11.732   3.795  10.622 -0.0558 -0.0284 -0.0735
31066ION     NA47914   9.408  10.716  11.542  0.0424  0.0206  0.0433
31067ION     NA47915  16.031   6.231  11.303 -0.2201 -0.2334 -0.3481
31068ION     NA47916   9.909   9.087  11.237  0.0785  0.0975 -0.0691
31069ION     NA47917   6.746   6.563   6.346 -0.2193 -0.1733  0.0355
31070ION     NA47918   0.467   2.094  16.651  0.0189 -0.1130 -0.0041
31071ION     NA47919   1.249  14.531   6.860  0.0580 -0.0096 -0.1924
31072ION     NA47920  13.410   9.005   1.679 -0.2903  0.2857  0.0803
31073ION     NA47921   9.334  10.459   6.085  0.0676  0.1648 -0.2322
31074ION     NA47922  10.415  11.169  14.530  0.0716 -0.0486 -0.1680
31075ION     NA47923   6.649  13.952  11.434  0.1928 -0.0389  0.0880
31076ION     NA47924  16.913   5.776   1.806  0.3123 -0.0841 -0.1555
31077ION     NA47925   8.319   3.182  11.419 -0.0261 -0.1023  0.1260
31078ION     NA47926   0.804  15.872  12.138 -0.3415  0.1195 -0.2419
31079ION     NA47927  13.702   3.464  13.669  0.0364 -0.0180 -0.1299
31080ION     NA47928   9.429   0.835   6.059 -0.0299  0.0293 -0.3836
31081ION     NA47929  12.269   9.508  11.213  0.1779  0.2542  0.3402
31082ION     NA47930  15.204   4.762  16.149 -0.1015  0.0351  0.0360
31083ION     NA47931   4.491   9.558  16.994  0.0851 -0.1186  0.1148
31084ION     NA47932   5.328   3.000   1.187  0.1090  0.0705 -0.0543
31085ION     NA47933   1.163   4.114   4.847  0.1902 -0.2092 -0.3166
31086ION     NA47934  11.712  14.095   6.286  0.2286  0.2562  0.0621
31087ION     NA47935  16.573   7.614  11.289  0.0026  0.1906 -0.2165
31088ION     NA47936   4.982  14.419  11.674  0.0060 -0.1335  0.0265
31089ION     NA47937   2.833  17.140   4.322 -0.1955 -0.0412  0.0011
31090ION     NA47938  10.116   3.866   6.007 -0.1745  0.3803  0.0841
31091ION     NA47939   0.443   2.234   6.248  0.1381 -0.2453 -0.4081
31092ION     NA47940   2.686   0.209   7.051  0.3137  0.1299  0.3410
31093ION     NA47941   8.138  12.652  11.242  0.1527 -0.0081 -0.1216
31094ION     NA47942  10.131   0.401   3.724  0.0232  0.2514 -0.0797
31095ION     NA47943   1.419   1.451   6.620  0.0103 -0.0328 -0.1805
31096ION     NA47944   2.318   8.569  11.647  0.0220 -0.0661 -0.1384
31097ION     NA47945   9.296  14.929  16.421  0.0713 -0.0988 -0.2908
31098ION     NA47946  13.442   5.413  15.614 -0.0987  0.0453 -0.0751
31099ION     NA47947  14.017   7.304   0.039  0.0828 -0.1175  0.0253
31100ION     NA47948  12.529  10.681   6.336 -0.2680  0.1172 -0.0123
31101ION     NA47949  15.918   4.535  12.421  0.0319 -0.0977 -0.3244
31102ION     NA47950   3.538  11.154  11.694  0.0727 -0.1432  0.0335
31103ION     NA47951  11.328   3.846  15.356  0.1007  0.2784  0.0063
31104ION     NA47952   4.224  11.624   6.639 -0.1399 -0.0287  0.0091
31105ION     NA47953  14.793   8.991   6.283  0.1871 -0.0773 -0.2028
31106ION     NA47954   1.557  14.571  16.864 -0.1642  0.1100  0.1513
31107ION     NA47955   1.500   5.674   6.188 -0.3336 -0.0824  0.2311
31108ION     NA47956  13.917  16.769   6.254  0.4040  0.0224 -0.1868
31109ION     NA47957  15.579   4.584   0.129 -0.1539 -0.2659  0.0090
31110ION     NA47958  15.363   6.075   2.434  0.0802  0.1525  0.1081
31111ION     NA47959   3.793   6.224  11.388  0.0624  0.2116 -0.0411
31112ION     NA47960   2.290  13.332   2.335  0.0217 -0.2040 -0.1470
31113ION     NA47961  15.270   0.336  11.435 -0.2004 -0.1256 -0.2154
31114ION     NA47962   6.490  14.899  11.201  0.1443  0.0788  0.0072
31115ION     NA47963   4.388   4.295   6.538 -0.1018 -0.2597 -0.0259
31116ION     NA47964   6.519  15.914  11.592  0.0401 -0.0186  0.1579
31117ION     NA47965  10.183   8.507   4.791  0.2325 -0.0110 -0.1288
31118ION     NA47966   4.237  10.684  11.932 -0.0434 -0.0734 -0.1411
31119ION     NA47967  13.601   2.957   6.331 -0.1217  0.1058 -0.0365
31120ION     NA47968  15.464   9.665   6.367  0.1113 -0.1439  0.2539
31121ION     NA47969   4.074  15.163   6.895 -0.0315 -0.0400 -0.1916
31122ION     NA47970   5.206   6.785  16.111  0.0468 -0.2125  0.0343
31123ION     NA47971  14.022   9.553  11.020  0.2082  0.1558  0.1591
31124ION     NA47972   2.211   0.649   7.048 -0.1001 -0.0562  0.1277
31125ION     NA47973   3.410   7.669  11.615 -0.0808 -0.1865 -0.0812
31126ION     NA47974   5.214   3.761  11.719  0.1120  0.1858  0.0006
31127ION     NA47975   8.313   5.950  13.789 -0.0591  0.0924 -0.1309
31128ION     NA47976  15.213  13.115  11.304  0.0689 -0.3193 -0.0876
31129ION     NA47977   8.313   4.528  13.972  0.0707  0.4761  0.0170
31130ION     NA47978  12.014   1.912   6.040 -0.2079 -0.0494  0.0913
31131ION     NA47979   7.054   9.859   6.522 -0.0544 -0.1561 -0.0979
31132ION     NA47980   1.123   2.938   6.420 -0.1988  0.0123  0.1262
31133ION     NA47981   0.118   4.303   6.363 -0.2286 -0.0535  0.0879
31134ION     NA47982  10.810  15.202   6.208 -0.0385  0.2713 -0.1671
31135ION     NA47983   2.389  16.369   6.885 -0.2595  0.1149  0.1490
31136ION     NA47984  12.696  14.720  17.663  0.0251 -0.0313 -0.2650
31137ION     NA47985   3.072   5.262   6.558 -0.0444 -0.0687 -0.1768
31138ION     NA47986   2.216  14.299   6.796 -0.3354 -0.2064  0.2863
31139ION     NA47987   6.366   6.224  11.344 -0.3210  0.0112 -0.0670
31140ION     NA47988   9.764   6.485   6.192  0.2605  0.1615  0.3109
31141ION     NA47989   1.232  15.397   1.019 -0.2361 -0.2303  0.1011
31142ION     NA47990  13.873   5.133  10.879  0.0339 -0.3077 -0.3631
31143ION     NA47991   1.789   8.658  11.965 -0.0366 -0.1779 -0.2519
31144ION     NA47992   4.918   7.646  11.414  0.1256  0.1290  0.0720
31145ION     NA47993   9.855  16.968  11.017 -0.0997 -0.1560 -0.1864
31146ION     NA47994   0.296   6.699  11.490  0.0653  0.2535  0.1248
31147ION     NA47995  16.052   4.349   5.388 -0.0193  0.2248  0.0113
31148ION     NA47996   7.637   3.228   4.164 -0.3296 -0.0177 -0.0382
31149ION     NA47997   2.086  15.478   6.691  0.1039  0.0930  0.0840
31150ION     NA47998   8.481   4.630  11.261 -0.0894  0.0494 -0.2124
31151ION     NA47999   2.400   3.405   6.623  0.0913 -0.1477  0.0331
31152ION     NA48000  11.246   5.454  10.720  0.4432  0.1477 -0.0460
31153ION     NA48001   4.563   4.476  11.631 -0.1282 -0.1525 -0.0867
31154ION     NA48002  14.516  15.156  11.398 -0.0384 -0.1328  0.3053
31155ION     NA48003   6.408   9.220   6.360  0.0172  0.1698  0.0787
31156ION     NA48004   3.045   6.746  15.509 -0.1228  0.0209 -0.2785
31157ION     NA48005   4.165  11.110  12.272  0.1081 -0.0698  0.0958
31158ION     NA48006   5.260   8.420   6.534 -0.3514  0.2583  0.1003
31159ION     NA48007   0.078   9.696  14.048 -0.2997 -0.2807  0.1336
31160ION     NA48008  10.200   5.366   5.670  0.0505  0.1155  0.0929
31161ION     NA48009  11.762   3.851   0.740 -0.0929  0.1187 -0.3761
31162ION     NA48010  11.968   7.978   6.156  0.5034  0.1176  0.0661
31163ION     NA48011  10.160   8.335   6.257  0.2562 -0.1097 -0.1011
31164ION     NA48012  13.383   3.810   6.270  0.1735 -0.2821 -0.1634
31165ION     NA48013   8.582   6.509  16.151  0.0282  0.1497 -0.1317
31166ION     NA48014   0.671   4.181  11.292 -0.1866 -0.1969 -0.0546
31167ION     NA48015   1.189   2.280  11.669 -0.0177  0.1922 -0.0171
31168ION     NA48016   8.569  13.273   6.230 -0.0076 -0.1153 -0.0749
31169ION     NA48017  14.664  10.185  11.400 -0.1729 -0.1604 -0.1888
31170ION     NA48018   6.562  11.654   6.651  0.3457 -0.1131  0.0484
31171ION     NA48019   1.917  16.732  11.735  0.3683 -0.0092 -0.0903
31172ION     NA48020   3.214   5.401  13.346 -0.1608  0.1262  0.0457
31173ION     NA48021   4.609   0.864  11.639  0.0315 -0.2275  0.1520
31174ION     NA48022  10.044  12.249  11.581  0.1367  0.2584 -0.0948
31175ION     NA48023  12.536  10.350  11.159  0.0251  0.3369  0.0088
31176ION     NA48024  14.279  14.956   6.307  0.1107  0.0392 -0.3125
31177ION     NA48025  12.830  13.587  11.330  0.0310 -0.0818 -0.4235
31178ION     NA48026   6.018  17.120   0.732  0.1178 -0.1316 -0.1406
31179ION     NA48027   1.895   8.547   6.676 -0.2521 -0.0167 -0.2457
31180ION     NA48028  15.233   2.343  11.278  0.0445 -0.3145  0.2498
31181ION     NA48029  15.507   5.784   6.189  0.1153  0.1411 -0.0937
31182ION     NA48030   2.506  16.323  12.416 -0.1193  0.0622 -0.2079
31183ION     NA48031  10.685  11.912  11.421  0.0348 -0.0882  0.1496
31184ION     NA48032  16.632  16.683  11.798 -0.1954  0.1675  0.0592
31185ION     NA48033  15.364   8.658  11.356  0.3034 -0.0600  0.0963
31186ION     NA48034   8.806   1.569   6.067 -0.2905  0.1273  0.0346
31187ION     NA48035   7.877   9.141  13.337  0.0088  0.0215  0.4756
31188ION     NA48036   2.487   4.798  11.619 -0.2715 -0.1128  0.0461
31189ION     NA48037  10.672   3.281   5.915 -0.2586  0.1132  0.2799
31190ION     NA48038   2.298   7.879  13.556 -0.0595 -0.1325  0.2723
31191ION     NA48039  10.252   9.220   1.689 -0.0739  0.0688  0.0300
31192ION     NA48040   6.741  11.839  11.586 -0.2219 -0.1358 -0.0633
31193ION     NA48041  15.492  12.406   0.866  0.1328 -0.1824 -0.1463
31194ION     NA48042   5.827  16.634  11.419 -0.1788 -0.0825 -0.2245
31195ION     NA48043  11.821   7.459  10.939  0.0419  0.0332 -0.2204
31196ION     NA48044  13.788   6.342  12.245  0.1226 -0.2599  0.2538
31197ION     NA48045   3.652  10.104  11.670  0.1834  0.2345 -0.2124
31198ION     NA48046   1.593  12.862  11.805  0.0849 -0.0633 -0.0682
31199ION     NA48047   4.980   9.946  11.583  0.1205  0.1826 -0.1384
31200ION     NA48048  10.786   9.448   6.138  0.2513  0.0045  0.4901
31201ION     NA48049  10.023   7.409  10.992 -0.3292  0.2771 -0.2049
31202ION     NA48050   4.481   1.405  12.554 -0.0425 -0.2172  0.1483
31203ION     NA48051   6.617   1.941   6.255 -0.0984  0.0311  0.1177
31204ION     NA48052   5.908  10.099  11.565  0.0291  0.2306 -0.1721
31205ION     NA48053  13.797   2.058  10.917  0.1842  0.1333  0.0451
31206ION     NA48054   5.242   6.750  11.605 -0.0339 -0.1948 -0.3364
31207ION     NA48055   5.720  15.197   6.414  0.2720  0.1829 -0.1782
31208ION     NA48056   0.498   6.958   6.454  0.2242 -0.1407  0.1639
31209ION     NA48057   8.227   2.447   6.108 -0.0767  0.1519  0.0651
31210ION     NA48058  16.249   8.571  11.276 -0.0550 -0.2864 -0.3495
31211ION     NA48059   2.160   5.141   6.269 -0.2663 -0.2994  0.4938
31212ION     NA48060   3.716   7.025   6.463 -0.0502 -0.0068  0.0485
31213ION     NA48061   5.973   4.569   6.227 -0.0552 -0.1850 -0.2861
31214ION     NA48062  10.550   7.608   6.443  0.2973 -0.0873  0.0698
31215ION     NA48063  16.198  16.620  12.036 -0.2478  0.0986  0.4967
31216ION     NA48064  13.198  14.376  11.459 -0.3101  0.1334  0.0344
31217ION     NA48065  15.648  12.310  11.486  0.2465  0.1173  0.2272
31218ION     NA48066  15.958   6.615  15.182  0.1168  0.2993 -0.0015
31219ION     NA48067   9.075   7.112  11.125 -0.1257 -0.2984  0.0970
31220ION     NA48068   6.487   4.027   2.646  0.2839  0.1813  0.3051
31221ION     NA48069   4.215  15.835  17.722  0.0651  0.4342 -0.0736
31222ION     NA48070   1.246   5.829  11.351 -0.0048 -0.1686  0.5271
31223ION     NA48071   7.814   2.447  11.412  0.2149  0.0381 -0.1436
31224ION     NA48072   0.095   6.382   6.014 -0.0116 -0.0610  0.2364
31225ION     NA48073   4.741  12.030  11.790  0.2679 -0.0105 -0.0806
31226ION     NA48074  10.177   9.257  12.107 -0.0372  0.2336 -0.0497
31227ION     NA48075  12.812   9.634   6.255 -0.0283 -0.1531 -0.1685
31228ION     NA48076   8.610   8.120  11.155  0.0605  0.0717  0.1048
31229ION     NA48077  14.260  14.426   6.316  0.0764 -0.1575  0.3435
31230ION     NA48078   7.484   3.713   6.187 -0.0273  0.0546  0.1246
31231ION     NA48079   2.686   7.243   2.692  0.0248 -0.2767  0.2588
31232ION     NA48080   8.254   6.812  11.219  0.3036 -0.1039  0.1390
31233ION     NA48081   9.338   6.626   2.759  0.0935 -0.0895  0.0873
31234ION     NA48082  14.627   2.310   6.339  0.0192 -0.1190  0.1071
31235ION     NA48083   2.522   0.713  11.925 -0.3789  0.0728  0.3176
31236ION     NA48084   5.862   3.190  11.517  0.0356 -0.0548 -0.1224
31237ION     NA48085   3.330   3.274  11.762 -0.0408  0.1733 -0.1484
31238ION     NA48086   5.669   1.709  11.671 -0.1652 -0.2862 -0.2318
31239ION     NA48087   9.850  11.851   6.189  0.2594  0.2839  0.2732
31240ION     NA48088   9.421   9.618   6.377 -0.2015 -0.2027 -0.0847
31241ION     NA48089  11.312  15.846   5.935 -0.0857  0.1342 -0.1511
31242ION     NA48090   4.819  15.563   6.490  0.0130  0.1715  0.0112
31243ION     NA48091   8.847   7.040   5.796 -0.2817 -0.1215 -0.0081
31244ION     NA48092  11.670   7.398   1.434 -0.0502  0.2842  0.0347
31245ION     NA48093   2.941   4.161  11.513 -0.0910  0.1966 -0.1594
31246ION     NA48094  12.494  16.037  11.167 -0.2107 -0.0684 -0.1103
31247ION     NA48095  13.642   4.173   4.966  0.1537  0.0411  0.0327
31248ION     NA48096   1.690  15.812  12.038  0.2839 -0.1364  0.5051
31249ION     NA48097   1.871  17.121  14.307 -0.3236 -0.0529  0.0321
31250ION     NA48098  14.854   1.604  11.341 -0.2620 -0.0373 -0.2998
31251ION     NA48099   4.336   9.370  11.710 -0.1298 -0.0812  0.2462
31252ION     NA48100   9.900   3.101   5.952  0.1191  0.1335 -0.0094
31253ION     NA48101  10.838   4.935  13.391 -0.2277  0.0224 -0.0650
31254ION     NA48102  13.339   7.976  11.352  0.0512 -0.1868  0.1456
31255ION     NA48103  15.701   4.612  11.266  0.2222 -0.2608 -0.2578
31256ION     NA48104   2.221   1.434  15.314 -0.1346  0.2241  0.0341
31257ION     NA48105  13.342   9.868   6.442  0.0149 -0.1276  0.0235
31258ION     NA48106   3.997   6.079   1.611  0.2243  0.0761  0.3016
31259ION     NA48107   5.953   4.079  11.377  0.1195  0.0981  0.2134
31260ION     NA48108   7.728   7.678  11.099  0.1998 -0.0664  0.0428
31261ION     NA48109  14.925   4.098  11.107  0.1550  0.0950  0.1566
31262ION     NA48110  16.968   9.753   6.748  0.0721  0.2193  0.1303
31263ION     NA48111  15.974  11.615  13.092 -0.2958  0.3907 -0.1033
31264ION     NA48112  12.316   3.204  10.611  0.3569  0.1040 -0.1688
31265ION     NA48113   5.350   3.974   6.333  0.0510  0.2599  0.1826
31266ION     NA48114  11.052   8.746  11.147  0.3936 -0.1051  0.2401
31267ION     NA48115   6.747   1.984   2.985 -0.0246  0.1672 -0.1764
31268ION     NA48116  12.485   7.340   4.242 -0.2437 -0.0005  0.1660
31269ION     NA48117   9.018   7.425   6.153 -0.0231 -0.0375 -0.1357
31270ION     NA48118   1.435  14.808  11.876  0.1737 -0.0651  0.2552
31271ION     NA48119  13.740  13.506  11.417 -0.0775 -0.0405 -0.1675
31272ION     NA48120   0.313   1.487   1.092  0.3114  0.4617 -0.3505
31273ION     NA48121  16.576  13.010  11.661 -0.3795 -0.0426 -0.1111
31274ION     NA48122  14.147  13.114   6.541 -0.1040  0.0200  0.1373
31275ION     NA48123   5.403  15.708  11.494  0.3502 -0.3996 -0.1864
31276ION     NA48124   5.891  10.046   5.159 -0.0423 -0.0863  0.1420
31277ION     NA48125  12.286   6.062  14.116 -0.0492 -0.0934 -0.0266
31278ION     NA48126   0.196  15.185  14.860  0.0896 -0.3747 -0.0184
31279ION     NA48127   3.410  10.433  13.401  0.1505  0.2390  0.1326
31280ION     NA48128  14.494   8.727  12.682 -0.0676  0.0331 -0.1728
31281ION     NA48129  14.422   8.294   6.396  0.0070  0.1409  0.3385
31282ION     NA48130   6.140   6.819   3.519 -0.1416  0.1778 -0.2488
31283ION     NA48131  10.583   8.448  14.204  0.3737  0.1702  0.0576
31284ION     NA48132   2.210   6.166   6.392 -0.0637  0.2686  0.1399
31285ION     NA48133   2.427   6.910   3.760  0.3841  0.1993 -0.1132
31286ION     NA48134  13.056  15.868  11.211  0.3689  0.1466 -0.1709
31287ION     NA48135  15.080  17.152  12.229  0.0281 -0.0576  0.0096
31288ION     NA48136   5.173   3.970   1.461  0.0221 -0.0752 -0.0368
31289ION     NA48137   3.906  10.213   6.871 -0.1157  0.0682 -0.0579
31290ION     NA48138  11.710   5.745  13.309 -0.1860 -0.0280 -0.0121
31291ION     NA48139  10.768  15.788  11.151 -0.0330 -0.0732  0.0213
31292ION     NA48140  12.808   8.431  10.946 -0.0302  0.1960 -0.0291
31293ION     NA48141   0.316   9.256   0.724 -0.0190 -0.0623 -0.0529
31294ION     NA48142   0.796   3.643  14.706 -0.1215 -0.0350 -0.1510
31295ION     NA48143   6.625   7.552  14.543  0.0594  0.1488  0.2158
31296ION     NA48144   2.822   5.882  11.596  0.1045  0.1552 -0.0928
31297ION     NA48145   6.423   0.404   6.477 -0.0787 -0.0549 -0.4598
31298ION     NA48146   9.998  11.071   6.281 -0.2325  0.4451 -0.1557
31299ION     NA48147   6.639   7.147  11.404 -0.0914  0.0051 -0.0220
31300ION     NA48148   2.218  12.766   6.559  0.2549  0.0063 -0.1978
31301ION     NA48149  11.238   6.824   6.367 -0.0812  0.1296  0.1323
31302ION     NA48150   7.589  13.376   6.549  0.2060 -0.0255  0.2229
31303ION     NA48151  10.930   2.745  17.423  0.1039  0.0505 -0.1081
31304ION     NA48152  10.509   2.301   5.912 -0.1452  0.0195 -0.0582
31305ION     NA48153  15.715  12.371   6.919  0.0315 -0.1660 -0.0524
31306ION     NA48154   8.983   1.919  11.092  0.1063  0.0308 -0.0391
31307ION     NA48155  10.252  13.356  13.416 -0.0483  0.0816  0.1350
31308ION     NA48156  14.363   7.408   3.858 -0.1552 -0.0255 -0.1258
31309ION     NA48157   3.164  13.989   5.336  0.0940  0.3382  0.1508
31310ION     NA48158  11.643   7.137  16.839 -0.1123  0.1372 -0.1663
31311ION     NA48159   0.046   0.712   4.402  0.1296  0.2056  0.2792
31312ION     NA48160  14.723  16.698   6.374  0.5461 -0.0763 -0.1283
31313ION     NA48161  15.886   8.900   6.374 -0.1806 -0.1358  0.1954
31314ION     NA48162   3.205  14.024  11.872 -0.0778  0.2697  0.1012
31315ION     NA48163  12.381   6.834   4.856 -0.2511 -0.0175  0.0530
31316ION     NA48164   0.539  15.045  12.001  0.2338  0.2475 -0.1343
31317ION     NA48165   4.142  14.500  11.948  0.0442 -0.1528 -0.0320
31318ION     NA48166   2.352   6.861   6.129 -0.0032  0.0594  0.1434
31319ION     NA48167   2.901   5.109  11.392 -0.3208 -0.0195 -0.0352
31320ION     NA48168  13.771   6.029  11.061  0.3573 -0.2125  0.3132
31321ION     NA48169   4.188   8.955   5.601 -0.2455 -0.1228 -0.0609
31322ION     NA48170   1.479   3.403  13.259 -0.0667 -0.2712 -0.1571
31323ION     NA48171  11.712   9.778  11.206 -0.1586  0.0873  0.4020
31324ION     NA48172  10.764  12.157   6.127 -0.0171  0.2673 -0.0950
31325ION     NA48173   0.877   6.247   6.453  0.0320 -0.0455  0.4203
31326ION     NA48174   9.991  15.001   6.044  0.1462  0.1402 -0.1122
31327ION     NA48175   7.200   0.304   4.409  0.1078  0.0261  0.2711
31328ION     NA48176   7.979   6.654   4.950 -0.0940 -0.1013 -0.0417
31329ION     NA48177  13.595   8.410   6.188  0.0360 -0.1269  0.1645
31330ION     NA48178   9.301   8.231   1.129  0.0332  0.1149  0.1903
31331ION     NA48179   7.523  12.171  11.848 -0.2317 -0.2068 -0.1109
31332ION     NA48180   1.966  17.023   0.063  0.1138 -0.0451  0.0398
31333ION     NA48181   8.972  13.163  11.201 -0.1484  0.1199 -0.0685
31334ION     NA48182   6.812   4.642  11.523 -0.0655 -0.1403 -0.1878
31335ION     NA48183  12.487   4.178   6.211 -0.0216 -0.1726 -0.0779
31336ION     NA48184  15.443   5.546  11.451  0.2994 -0.1552 -0.1274
31337ION     NA48185   4.265   5.353  11.635  0.3169  0.1463 -0.0839
31338ION     NA48186   9.394   3.440  14.196  0.3386 -0.1170  0.0889
31339ION     NA48187   2.434  11.423  14.610 -0.1516 -0.2403  0.1086
31340ION     NA48188  12.074   0.667  16.482  0.0538 -0.0683 -0.0408
31341ION     NA48189   2.865  10.712  11.726 -0.2405  0.2267 -0.1217
31342ION     NA48190  16.734   7.002   6.479  0.0628  0.0770 -0.2567
31343ION     NA48191   4.865   4.207   0.550  0.2247  0.0761 -0.1196
31344ION     NA48192   7.599  16.121   6.522  0.0081  0.0477 -0.0616
31345ION     NA48193   4.265   3.430  11.667 -0.2516  0.0719 -0.1166
31346ION     NA48194  14.466   9.158  16.535 -0.0451 -0.2278  0.1943
31347ION     NA48195   1.989   6.150  16.549 -0.1140 -0.1309  0.1088
31348ION     NA48196   6.432  10.665   6.520  0.2543 -0.2899 -0.0928
31349ION     NA48197  11.046   7.108   3.070 -0.1300  0.1530 -0.1251
31350ION     NA48198   2.509   7.651  11.755  0.1130 -0.2708  0.3463
31351ION     NA48199  11.724   9.543   6.070 -0.1578  0.2871 -0.0349
31352ION     NA48200   9.861   2.294  10.738 -0.1510  0.0629  0.0800
31353ION     NA48201  10.588   3.678  10.905 -0.1227  0.0256  0.1426
31354ION     NA48202  16.181   1.656  14.429 -0.0215  0.1632 -0.0241
31355ION     NA48203   7.721   0.482   6.209 -0.0364 -0.3067 -0.1736
31356ION     NA48204  13.450   4.952   3.843 -0.0148 -0.1747  0.1966
31357ION     NA48205  16.780  15.066  11.781  0.0807  0.3931  0.0107
31358ION     NA48206  13.317  16.537  15.177  0.1114  0.0621 -0.2679
31359ION     NA48207   0.384   6.943  15.731  0.1644 -0.0684 -0.2683
31360ION     NA48208  12.619  12.705  11.320  0.3283 -0.0037 -0.0039
31361ION     NA48209   8.879   0.302  16.119 -0.0085 -0.1718  0.0411
31362ION     NA48210  13.755   5.498   5.638 -0.1453  0.1024  0.1568
31363ION     NA48211  13.296  14.714   6.222  0.0479  0.0525 -0.0831
31364ION     NA48212   5.021  14.746   7.104  0.1036 -0.3982  0.1358
31365ION     NA48213  10.247  15.105  11.171  0.1493 -0.2154 -0.2358
31366ION     NA48214  12.577   0.735  10.897  0.1219  0.0441 -0.3641
31367ION     NA48215   0.319  16.639  11.863  0.0787 -0.2439 -0.0969
31368ION     NA48216  16.122  14.636   6.697 -0.1184 -0.0188 -0.1072
31369ION     NA48217  15.154   4.139  14.800 -0.1992 -0.0155  0.2992
31370ION     NA48218  15.252   3.706  11.262 -0.1495 -0.3414 -0.1699
31371ION     NA48219   5.485   3.174   6.563 -0.1515  0.1878 -0.0287
31372ION     NA48220   9.212  10.423   1.928  0.1383 -0.0640 -0.0372
31373ION     NA48221  12.331   1.164   3.259  0.1769 -0.0901  0.1825
31374ION     NA48222  11.152   5.452   5.965  0.1122  0.1522 -0.1519
31375ION     NA48223  15.513   2.628   6.236 -0.2214 -0.3899  0.3219
31376ION     NA48224  15.824   1.600   4.322  0.0522  0.0075 -0.0884
31377ION     NA48225   2.280   9.507   6.916  0.4416  0.1193  0.2830
31378ION     NA48226   3.006   6.263   6.540 -0.0450  0.1621  0.1168
31379ION     NA48227  13.259  16.115   1.248  0.4900  0.1111  0.1095
31380ION     NA48228  16.397   9.554   6.715  0.1302  0.2370  0.0302
31381ION     NA48229   4.949   5.774  11.362  0.0514 -0.0133  0.2298
31382ION     NA48230   5.281   1.289  12.215  0.1014 -0.0879  0.0752
31383ION     NA48231  13.086   5.547  11.020 -0.0956  0.0660 -0.0897
31384ION     NA48232  11.098  11.076  11.437 -0.1496 -0.3116 -0.4864
31385ION     NA48233   9.693   1.676  13.905  0.1924  0.0274 -0.2142
31386ION     NA48234  14.919  15.783   6.446  0.0768  0.1808 -0.1260
31387ION     NA48235  13.499   0.394  11.111 -0.0132 -0.3413 -0.1995
31388ION     NA48236  16.726   3.357   6.458  0.1169  0.0076  0.1359
31389ION     NA48237   3.068   3.655  12.752 -0.0638 -0.0303  0.0964
31390ION     NA48238   9.329  13.898  11.254 -0.0359  0.5121  0.0834
31391ION     NA48239   9.007   5.599   6.179 -0.1038 -0.0542  0.0754
31392ION     NA48240  12.984   1.655   6.272 -0.0203 -0.0151 -0.1686
31393ION     NA48241   1.243   2.449  13.498 -0.0487 -0.0160 -0.4038
31394ION     NA48242  11.113   1.647   5.664  0.1103  0.0399 -0.1504
31395ION     NA48243  14.331   1.734   3.824 -0.1339  0.1492 -0.0840
31396ION     NA48244   8.084   7.598   6.036 -0.2912 -0.1941  0.1924
31397ION     NA48245  13.007   6.432  11.061  0.1494  0.0267  0.0233
31398ION     NA48246  13.574  10.761   6.315 -0.3133 -0.0293  0.1687
31399ION     NA48247  11.128   3.273   0.302  0.1175 -0.1591  0.0822
31400ION     NA48248   6.795   7.737  11.238 -0.0611 -0.1071  0.0762
31401ION     NA48249   2.866  16.469  16.141 -0.2196 -0.3831 -0.0906
31402ION     NA48250   4.770  11.765   4.082 -0.0401 -0.0920  0.1086
31403ION     NA48251  15.106   6.488   6.025  0.0512  0.0259  0.0695
31404ION     NA48252   0.772   4.450   6.305  0.1089  0.5518  0.1417
31405ION     NA48253   1.121   6.642  11.695 -0.2631 -0.2857  0.5463
31406ION     NA48254  13.649   6.151   5.397  0.0940  0.0707 -0.0420
31407ION     NA48255  14.912   0.812  12.056  0.0007 -0.1054 -0.1867
31408ION     NA48256  11.064  14.665  11.187 -0.1490  0.1994  0.1687
31409ION     NA48257   0.071  15.914  15.957 -0.0800 -0.1011 -0.1708
31410ION     NA48258   4.549   7.715   6.356 -0.1101  0.3329  0.0247
31411ION     NA48259  15.478  11.206  16.918  0.0218 -0.0495  0.0060
31412ION     NA48260   9.890   3.136  10.782 -0.1627 -0.0567  0.2179
31413ION     NA48261  15.969  11.173   6.863  0.3353 -0.0663  0.0302
31414ION     NA48262  16.864   7.572  15.737 -0.0900  0.2379  0.0318
31415ION     NA48263  16.191   0.807  11.488  0.2647 -0.0544 -0.1880
31416ION     NA48264   3.376   2.867   6.271 -0.0843 -0.0002  0.1135
31417ION     NA48265   4.786   8.540  11.604 -0.1399 -0.2013  0.1790
31418ION     NA48266   7.262   3.506   3.225  0.0924  0.0276  0.0488
31419ION     NA48267  11.047  13.500  11.291  0.2671  0.0169  0.1367
31420ION     NA48268  10.082  12.899   6.191 -0.2541  0.0434  0.0505
31421ION     NA48269   5.020   6.983   6.570  0.2738 -0.0978  0.2676
31422ION     NA48270  15.251   1.240   6.312  0.3236 -0.1698 -0.0373
31423ION     NA48271  16.037   3.397   6.257  0.3491 -0.1789  0.0962
31424ION     NA48272   0.322  13.429  15.925 -0.0017 -0.1341  0.0952
31425ION     NA48273   6.614   2.800   6.463  0.2536  0.0557 -0.1993
31426ION     NA48274  13.006  11.321   6.565  0.4609 -0.5568  0.0965
31427ION     NA48275  11.512   0.173  10.987  0.0477 -0.2114 -0.2271
31428ION     NA48276   8.227  11.150  11.771 -0.1863 -0.1769  0.0664
31429ION     NA48277   9.684   1.673   5.905  0.1614 -0.4415 -0.0967
31430ION     NA48278  11.045   4.523  10.763 -0.0794 -0.1916  0.0438
31431ION     NA48279  13.629  15.112  11.511 -0.0078 -0.2755 -0.2011
31432ION     NA48280   4.265  13.637  11.492 -0.2275 -0.1646 -0.0695
31433ION     NA48281   4.697  15.349  11.715 -0.2457  0.0178 -0.1561
31434ION     NA48282   2.074   2.139  11.999 -0.0771  0.0733  0.1378
31435ION     NA48283   6.210  16.508   6.667  0.1152 -0.1055 -0.3502
31436ION     NA48284   9.879  16.152  11.319 -0.0197 -0.0675  0.0559
31437ION     NA48285  16.641  15.341   6.624 -0.2956 -0.1446  0.2071
31438ION     NA48286  12.896   7.151  11.464 -0.1187 -0.0362  0.0349
31439ION     NA48287   9.659   0.376  15.257  0.2761 -0.0911 -0.1461
31440ION     NA48288   7.052   0.820  11.492  0.1139  0.1340 -0.3110
31441ION     NA48289   7.804   8.606  11.283  0.0174  0.1240 -0.0091
31442ION     NA48290   7.654  12.201   6.626  0.1930  0.2075  0.0722
31443ION     NA48291   7.495   3.074  11.875  0.0302  0.0575 -0.1886
31444ION     NA48292  16.394   2.525   6.307  0.0110 -0.1345 -0.2010
31445ION     NA48293   3.811   0.523  14.837  0.2522  0.2327  0.1138
31446ION     NA48294   1.060   0.095  11.757 -0.1295  0.0437 -0.4504
31447ION     NA48295   9.180   3.620   5.534 -0.1625  0.5843  0.0857
31448ION     NA48296  14.157  15.958  11.539 -0.0427  0.2377  0.1388
31449ION     NA48297   3.075  13.385   7.002 -0.1465 -0.2185  0.1417
31450ION     NA48298   0.243   4.224   5.336  0.2030  0.0928  0.0094
31451ION     NA48299  14.338   0.342   6.361 -0.0066 -0.1071  0.0564
31452ION     NA48300   1.046   5.275   6.248 -0.0952  0.3159  0.1206
31453ION     NA48301   5.337   2.214   6.827 -0.2028  0.3643 -0.0470
31454ION     NA48302  11.082   8.289   5.642  0.0045 -0.1455 -0.0664
31455ION     NA48303   0.114  13.761   6.622  0.3466 -0.1164 -0.0896
31456ION     NA48304  16.967   0.453   6.789 -0.1528  0.0206  0.1105
31457ION     NA48305   3.245   9.270   6.778  0.1997 -0.0290 -0.0333
31458ION     NA48306   1.013  13.182   1.758 -0.0118  0.1632  0.0704
31459ION     NA48307   9.252   1.036  11.004 -0.2285  0.0046 -0.1494
31460ION     NA48308   0.078  12.472   6.759  0.2501 -0.1140  0.1685
31461ION     NA48309  15.671   0.837   6.468  0.4119 -0.0908 -0.0049
31462ION     NA48310   1.482   6.698   6.620 -0.1539  0.0491 -0.3893
31463ION     NA48311   8.228   3.940  13.092 -0.1164 -0.0032 -0.2578
31464ION     NA48312   4.901   2.367  11.657  0.0616 -0.3346  0.1646
31465ION     NA48313  13.248   9.256   4.833 -0.0923  0.0537  0.3475
31466ION     NA48314   0.834   3.080  11.425  0.0987  0.0682 -0.0451
31467ION     NA48315  15.913  11.498  11.390 -0.0250 -0.1642  0.0484
31468ION     NA48316   7.225   9.826  11.380 -0.2083 -0.0305  0.0556
31469ION     NA48317   6.099   8.206   6.380 -0.1326  0.2389  0.1001
31470ION     NA48318  16.492  16.729   6.933 -0.4511 -0.2456  0.0289
31471ION     NA48319  11.896   3.487   6.356  0.1039  0.0673 -0.1344
31472ION     NA48320   4.101  12.816  11.597  0.5691 -0.1060 -0.1253
31473ION     NA48321   0.333   7.772   4.096 -0.1882  0.1348 -0.1297
31474ION     NA48322   9.004  16.746   6.212  0.1085 -0.0679  0.2039
31475ION     NA48323   1.636   3.443  15.578  0.1339  0.1188 -0.1041
31476ION     NA48324   1.007   4.022   1.301  0.1115  0.0533 -0.1277
31477ION     NA48325   8.937   2.468  11.120  0.0859  0.1126  0.3004
31478ION     NA48326   3.849   5.591   6.433  0.0810 -0.2063 -0.4047
31479ION     NA48327  16.106  15.997  15.377 -0.0006 -0.0365 -0.1082
31480ION     NA48328   4.654  16.213  11.927  0.0966  0.3128  0.2025
31481ION     NA48329   6.033  12.256   6.996 -0.2212  0.0685 -0.0606
31482ION     NA48330  15.864   9.303  11.275 -0.2580 -0.2945 -0.0572
31483ION     NA48331   7.125   8.943  11.879  0.2006  0.0015  0.1938
31484ION     NA48332  12.415  15.190  11.151 -0.0378 -0.0807  0.0109
31485ION     NA48333   8.445  16.048   6.279 -0.0544 -0.0957  0.0592
31486ION     NA48334   8.164   5.351   6.065  0.1692 -0.0591  0.3378
31487ION     NA48335   0.954  15.428   6.846  0.1780 -0.0765 -0.0767
31488ION     NA48336  16.758   1.134   3.034 -0.0898 -0.1106  0.0651
31489ION     NA48337   0.057   7.774   6.310 -0.3227 -0.0852 -0.0137
31490ION     NA48338   9.801  10.023  11.472  0.0125 -0.0314 -0.0296
31491ION     NA48339  13.303   7.523  14.249 -0.0409 -0.0549 -0.0950
31492ION     NA48340   5.114  13.900   7.149 -0.0571 -0.1025 -0.0964
31493ION     NA48341   8.388   8.504   6.168  0.0719 -0.0735 -0.1812
31494ION     NA48342  10.002  12.121  15.690 -0.1919 -0.1997  0.0858
31495ION     NA48343  14.965  11.961   6.825  0.1636  0.1021  0.3140
31496ION     NA48344  15.795   7.261   6.347 -0.1450  0.1785  0.1303
31497ION     NA48345  15.198  15.009   6.457 -0.1032  0.0598 -0.0017
31498ION     NA48346   2.084  13.451  15.491 -0.0229 -0.0902 -0.0072
31499ION     NA48347   0.379   4.859   0.367 -0.1941 -0.0018  0.3608
31500ION     NA48348  10.294   0.987  10.816 -0.0484 -0.0558 -0.0689
31501ION     NA48349  14.714  12.824  11.264 -0.3574 -0.0958 -0.2830
31502ION     NA48350   8.833   4.231   6.252  0.1851  0.1489 -0.3228
31503ION     NA48351  16.931   0.912  15.900 -0.0060  0.0003 -0.0438
31504ION     NA48352   5.314   7.793  17.134 -0.0930 -0.0777  0.0354
31505ION     NA48353  15.545  10.112  11.444 -0.1550  0.0115 -0.0248
31506ION     NA48354   1.120  11.267  11.484 -0.3606 -0.0917 -0.0736
31507ION     NA48355   8.536   7.327   2.963  0.0679  0.2679 -0.0571
31508ION     NA48356   6.142   5.415  11.441 -0.0929 -0.2161  0.1928
31509ION     NA48357   1.754  11.886   0.989 -0.1395  0.2442  0.1650
31510ION     NA48358   8.416  14.111  11.241  0.0081 -0.1848 -0.0672
31511ION     NA48359  12.467  11.140  11.796 -0.0603 -0.1610  0.2347
31512ION     NA48360  10.068  14.843   4.827 -0.2930  0.1733 -0.1869
31513ION     NA48361  13.861  16.220   6.311 -0.1075 -0.1639  0.1285
31514ION     NA48362   4.311   7.000  11.456 -0.0026  0.0300 -0.0395
31515ION     NA48363   8.160   2.175   2.535  0.2065  0.2378 -0.1017
31516ION     NA48364   4.497   8.614   6.509  0.0809  0.1061  0.1957
31517ION     NA48365   1.247  13.866  11.788  0.1893  0.4640  0.1694
31518ION     NA48366   4.385   2.747  12.439  0.1395  0.1211  0.1593
31519ION     NA48367  16.652  13.953  11.947  0.1171 -0.0186  0.1467
31520ION     NA48368  11.504   4.620  14.773 -0.1441 -0.0962 -0.2531
31521ION     NA48369  12.691   5.049  10.891 -0.0529  0.1044 -0.1355
31522ION     NA48370  15.699  15.709   6.814 -0.2083  0.1023  0.2094
31523ION     NA48371  10.517   7.135   6.143 -0.1814  0.3280 -0.1687
31524ION     NA48372   0.403  12.921   6.618  0.1112  0.0855 -0.3386
31525ION     NA48373   0.123   8.069  11.463 -0.1444  0.1234 -0.0284
31526ION     NA48374   1.314  16.597  11.771  0.0020 -0.0292 -0.1930
31527ION     NA48375   0.162   5.805  11.504  0.0499  0.1389  0.2820
31528ION     NA48376   6.660   1.549  11.517  0.0151  0.1588  0.0921
31529ION     NA48377   8.200  15.718  11.327  0.3381  0.0030  0.0126
31530ION     NA48378  15.466   1.865  13.695 -0.0093  0.0802  0.1080
31531ION     NA48379   2.266   1.591   6.836 -0.0702  0.0365 -0.0348
31532ION     NA48380   6.721   3.815  11.451  0.0891 -0.0090 -0.2784
31533ION     NA48381   6.236   5.953   6.178 -0.0867 -0.0958 -0.2199
31534ION     NA48382  12.277   7.002  10.875  0.0121 -0.1538 -0.0391
31535ION     NA48383   9.185   3.439  11.284  0.3088 -0.0332  0.2214
31536ION     NA48384   9.288  11.999  16.082  0.1782 -0.3241  0.3097
31537ION     NA48385  10.411  15.811   6.098 -0.0707 -0.2699 -0.0166
31538ION     NA48386  15.698   1.669  11.416 -0.3067 -0.1080 -0.0659
31539ION     NA48387   4.630   3.376   6.492  0.1569  0.0297  0.1548
31540ION     NA48388   5.632  16.084   6.558  0.0783 -0.2298 -0.1468
31541ION     NA48389  13.314   1.389  11.086  0.1755  0.1188 -0.1448
31542ION     NA48390   1.445   3.848   6.459  0.0265  0.3768  0.3319
31543ION     NA48391   2.921  10.261   6.927 -0.1693 -0.0105 -0.0124
31544ION     NA48392   6.245   0.483  11.355  0.1314 -0.0025 -0.1205
31545ION     NA48393  10.295  13.765  11.423 -0.3867  0.1499  0.0286
31546ION     NA48394   6.065  14.199   6.943 -0.0694 -0.0787  0.1716
31547ION     NA48395  10.825   9.648  11.343  0.2491  0.2496 -0.2915
31548ION     NA48396   2.309  11.822   6.817 -0.2724 -0.1767  0.1935
31549ION     NA48397   7.839   6.892   0.092 -0.0437 -0.0959  0.2333
31550ION     NA48398  14.046  16.570   0.051 -0.0518 -0.0075  0.1571
31551ION     NA48399  14.036   4.276  10.846  0.0083  0.1905 -0.1269
31552ION     NA48400  15.725  13.759  11.739  0.1057  0.2004 -0.2985
31553ION     NA48401  15.774  13.334  16.767 -0.0947 -0.0825 -0.2169
31554ION     NA48402   0.461   9.546   6.674 -0.0633 -0.1243 -0.2370
31555ION     NA48403  15.251  15.859  11.768  0.1125  0.1694  0.2397
31556ION     NA48404   7.089  15.332  11.474 -0.1329 -0.0446 -0.1661
31557ION     NA48405   3.215  13.517  16.339 -0.0587  0.2488 -0.0036
31558ION     NA48406   8.618   8.835  11.196 -0.1564  0.1097  0.1439
31559ION     NA48407  10.664  16.597   5.630  0.2625  0.1374 -0.2232
31560ION     NA48408   5.055   9.006  13.248 -0.1037 -0.2430 -0.1078
31561ION     NA48409   1.766   2.746   2.116 -0.3244 -0.1208 -0.0134
31562ION     NA48410   2.828   7.492   6.394  0.1794 -0.2745  0.1048
31563ION     NA48411   0.480  13.999  12.136 -0.0511 -0.0321 -0.2972
31564ION     NA48412  11.546   6.547  10.884 -0.2894  0.4320  0.0394
31565ION     NA48413   5.345   5.158  11.987  0.1624 -0.0396 -0.1556
31566ION     NA48414   2.939   4.043   6.597 -0.1914 -0.0468  0.1496
31567ION     NA48415  12.196   5.409   6.134 -0.3747  0.0771  0.1187
31568ION     NA48416  12.444  13.689  13.622 -0.2988 -0.0912  0.0769
31569ION     NA48417  16.004  16.828  15.693  0.0620 -0.1026  0.1538
31570ION     NA48418   1.782   4.730   6.137  0.0520  0.3079  0.0277
31571ION     NA48419  11.529  16.714   5.984  0.1098  0.0309 -0.2382
31572ION     NA48420  11.473  15.101   3.509  0.2601 -0.2740 -0.2805
31573ION     NA48421   8.676  16.440  11.065  0.1332 -0.2272 -0.0100
31574ION     NA48422  15.484  14.761   5.171  0.0161 -0.2868  0.2375
31575ION     NA48423  15.835   1.804   6.170 -0.1490 -0.1304 -0.0690
31576ION     NA48424  11.502  10.624  11.276  0.1193  0.3448  0.0486
31577ION     NA48425   8.025  11.341  16.064 -0.2713  0.0275 -0.1517
31578ION     NA48426   6.081  13.934  12.584  0.2567  0.0406  0.1669
31579ION     NA48427   8.697   4.227  14.773  0.1232  0.1928 -0.0833
31580ION     NA48428  11.281   9.635   0.607  0.1862 -0.0882  0.0282
31581ION     NA48429  12.114   1.451  10.547  0.3152 -0.0998 -0.0337
31582ION     NA48430  14.629   2.912   6.548  0.0506 -0.1379  0.2484
31583ION     NA48431  12.375  16.444   6.109  0.0989 -0.0749  0.1767
31584ION     NA48432  15.406  10.344   6.761 -0.0452  0.0793 -0.0240
31585ION     NA48433   5.455   5.928  11.439 -0.0884 -0.0365  0.2308
31586ION     NA48434  12.817   6.493   6.129 -0.1862 -0.0633 -0.0662
31587ION     NA48435   3.796   3.809   6.561  0.2193  0.0445 -0.1721
31588ION     NA48436   5.885  13.299   7.060  0.1519 -0.2218  0.3136
31589ION     NA48437  12.098   1.531   0.226  0.1695  0.0473  0.0411
31590ION     NA48438   7.461   6.843   6.168  0.0153  0.0048  0.1265
31591ION     NA48439   6.559   7.727   5.833 -0.0989 -0.1392  0.2628
31592ION     NA48440  15.815   8.010  16.862 -0.2520  0.3254 -0.2230
31593ION     NA48441   7.187  16.753   1.825  0.3761 -0.2123 -0.2662
31594ION     NA48442  13.895   6.751  11.326  0.1165  0.2898 -0.0845
31595ION     NA48443   5.357   0.253   6.366 -0.1262  0.1363  0.3601
31596ION     NA48444   7.603   4.123  11.435 -0.0490  0.0067  0.1088
31597ION     NA48445   3.920   1.217   6.891 -0.0724  0.1319 -0.1848
31598ION     NA48446   5.553  11.047  17.388 -0.0144  0.2677  0.1465
31599ION     NA48447   7.330   2.373   6.393 -0.4817 -0.1165 -0.1231
31600ION     NA48448   3.350  12.434  11.972 -0.1124  0.1403  0.0227
31601ION     NA48449   3.479  15.718  11.763 -0.2243 -0.1600  0.1763
31602ION     NA48450   8.211  11.862  11.355 -0.2561 -0.2945  0.0072
31603ION     NA48451   5.920   2.345   6.588 -0.4479  0.1594  0.2738
31604ION     NA48452   4.477  10.915   3.716  0.0092  0.4111 -0.4403
31605ION     NA48453   2.130  13.591  11.887 -0.2013 -0.4107  0.2411
31606ION     NA48454   1.023   7.822   6.509  0.0684  0.1287  0.2126
31607ION     NA48455   9.081  15.667  11.171 -0.1155  0.2054 -0.1744
31608ION     NA48456   0.931  16.533   6.644  0.1341  0.1801 -0.0805
31609ION     NA48457   0.719  10.586   6.654  0.0707  0.0232  0.2330
31610ION     NA48458  10.299  13.770   6.205 -0.0715  0.0485 -0.1945
31611ION     NA48459   6.684   4.806  15.191 -0.0062  0.0972 -0.1221
31612ION     NA48460   3.760   2.898   6.660  0.1545  0.0674  0.1628
31613ION     NA48461   0.207  11.601  11.523 -0.0391  0.1422  0.0977
31614ION     NA48462   6.889  12.789   6.730 -0.0735  0.1464  0.3097
31615ION     NA48463  12.761  11.565   5.885 -0.3374  0.2409  0.2850
31616ION     NA48464   8.467  12.864  14.298  0.1897  0.2097  0.0034
31617ION     NA48465  16.154   6.614  14.318  0.1626  0.2478  0.0034
31618ION     NA48466  14.831   7.480   6.409 -0.2348  0.3407 -0.0920
31619ION     NA48467   3.154   5.332  16.659 -0.2340  0.2278  0.0419
31620ION     NA48468  12.159   8.640  11.125 -0.2188  0.1128  0.1501
31621ION     NA48469  17.069   1.403   6.288  0.2357  0.0672 -0.0374
31622ION     NA48470   0.559   9.623   5.175 -0.1916 -0.1344  0.0737
31623ION     NA48471   6.373   3.267   1.750 -0.4402  0.1540 -0.4311
31624ION     NA48472  13.356   7.644  13.208 -0.0788  0.1716  0.1145
31625ION     NA48473  16.611   8.233  16.679  0.0876  0.1178 -0.2200
31626ION     NA48474  16.104   2.330  11.655 -0.1478 -0.0228 -0.0828
31627ION     NA48475   8.627   9.131   6.371 -0.0612  0.0389 -0.1789
31628ION     NA48476  16.724  14.914  13.006  0.1058 -0.0011  0.0666
31629ION     NA48477  12.120  11.465   6.439  0.1076  0.0066 -0.1046
31630ION     NA48478   4.249   1.056  16.225 -0.2767 -0.0676  0.1072
31631ION     NA48479   6.901  14.056   6.400  0.1043 -0.0245 -0.2740
31632ION     NA48480  12.638   4.186  10.837 -0.0698  0.0659  0.0705
31633ION     NA48481   5.081   4.918   6.357  0.1559  0.0497  0.1068
31634ION     NA48482   3.820  16.832  11.808 -0.2922  0.2123 -0.3534
31635ION     NA48483  14.195   7.643  11.386  0.0093 -0.0096  0.1219
31636ION     NA48484   6.392   9.024  11.366  0.2722  0.0295  0.2181
31637ION     NA48485  10.585   6.120   6.378 -0.1986  0.0571  0.3573
31638ION     NA48486   5.245   1.475  11.748 -0.1237 -0.1716  0.2846
31639ION     NA48487   6.745   4.267   6.298 -0.1320  0.2162  0.0799
31640ION     NA48488   6.494   3.648   6.307  0.1809  0.0356  0.3035
31641ION     NA48489   9.549  15.825   6.056 -0.0259 -0.2211 -0.0788
31642ION     NA48490   7.835  10.518   6.471 -0.1345 -0.1237  0.1335
31643ION     NA48491   9.139  14.638   5.820  0.2166 -0.3840  0.0984
31644ION     NA48492  17.020   5.313   6.144  0.1058  0.0709  0.1261
31645ION     NA48493  12.804   2.351   6.186 -0.3518  0.1027  0.0224
31646ION     NA48494   9.080  11.430   6.242 -0.0640  0.0187  0.1089
31647ION     NA48495   0.613   5.356   2.195  0.1663  0.2227 -0.2053
31648ION     NA48496   6.492  10.630  11.539  0.3439 -0.3825  0.2717
31649ION     NA48497   2.689   3.314  11.798  0.0082  0.1383 -0.2684
31650ION     NA48498  11.832  10.251   3.082  0.0368 -0.1586  0.3660
31651ION     NA48499   1.334   9.636   6.917  0.0568  0.0367 -0.4066
31652ION     NA48500   1.720   1.898  17.264 -0.4608 -0.2222  0.1456
31653ION     NA48501   7.161   5.267   6.327  0.0864  0.1015  0.1152
31654ION     NA48502  15.578   6.063  11.537 -0.1010  0.0927  0.2946
31655ION     NA48503  11.514  14.753  12.133  0.0163 -0.1282 -0.0499
31656ION     NA48504   5.170   0.997   0.789  0.1471  0.2608  0.0694
31657ION     NA48505   0.011  15.825  11.775  0.1125  0.2758  0.1120
31658ION     NA48506   0.048   8.779  11.435 -0.1561 -0.1751  0.4357
31659ION     NA48507   7.422   0.592  11.312 -0.1471  0.1673  0.0166
31660ION     NA48508  16.600   7.120  11.236  0.1099 -0.0944 -0.5572
31661ION     NA48509   1.628   1.276   5.932  0.0646 -0.2955 -0.2597
31662ION     NA48510   3.578   5.688  11.843  0.2001  0.1207 -0.2907
31663ION     NA48511  14.594  11.851  11.181  0.3054 -0.0117 -0.1390
31664ION     NA48512  16.965  10.558   2.472 -0.1278 -0.0643  0.0948
31665ION     NA48513   9.460   4.259   6.088 -0.0040 -0.0290  0.1225
31666ION     NA48514   1.011  13.101  11.801 -0.0110  0.1557 -0.0944
31667ION     NA48515   5.562  10.683  11.816  0.0644  0.0357 -0.0971
31668ION     NA48516  15.930  16.103   6.695  0.0212  0.1928 -0.1182
31669ION     NA48517  13.028   4.490  15.578  0.0227  0.0528 -0.2100
31670ION     NA48518  15.192   7.901  11.323  0.0890  0.1428  0.3219
31671ION     NA48519   2.186  12.060  12.111  0.2516  0.0173 -0.0810
31672ION     NA48520  12.555  15.486   6.196  0.2375 -0.1979  0.1237
31673ION     NA48521   1.954  11.384  12.603 -0.2039  0.1011 -0.0786
31674ION     NA48522   4.364   6.075  12.394  0.1046  0.3528  0.2560
31675ION     NA48523   9.776  14.395  11.171 -0.1018 -0.3065  0.0348
31676ION     NA48524  13.138  13.124   6.410  0.0487 -0.0647  0.1857
31677ION     NA48525   0.419  11.497   6.827  0.1570 -0.4051  0.5963
31678ION     NA48526  15.409   9.025   3.796 -0.0986  0.1398 -0.0469
31679ION     NA48527  16.720  11.072  11.380 -0.3509  0.2691 -0.0710
31680ION     NA48528  14.114  11.804   6.410  0.3531  0.1254  0.1262
31681ION     NA48529  14.143   2.875   1.109  0.0156 -0.0817 -0.0735
31682ION     NA48530   5.840   1.415  13.479  0.2496  0.0842  0.1880
31683ION     NA48531   0.738   0.196   6.341 -0.1478 -0.3435  0.1662
31684ION     NA48532   0.728   0.910   6.488  0.2463 -0.3292  0.0988
31685ION     NA48533  17.136   8.912   6.375  0.1200 -0.2359  0.0099
31686ION     NA48534  10.865  14.532   6.337 -0.1440  0.3519  0.1091
31687ION     NA48535  13.183   3.512  10.946 -0.0769  0.0638  0.1262
31688ION     NA48536   9.927   3.974  15.026  0.0108  0.0658  0.0813
31689ION     NA48537   2.624   2.514   6.634  0.1356  0.1110  0.3572
31690ION     NA48538  16.127   9.452  11.826 -0.1683  0.2678  0.1472
31691ION     NA48539   1.599   7.499  11.540 -0.0203  0.1278 -0.1884
31692ION     NA48540   2.994  15.739   6.558  0.2438 -0.1015 -0.0494
31693ION     NA48541  13.026   2.774  10.793  0.0743  0.0781 -0.1552
31694ION     NA48542   5.191  12.898  11.843  0.1352  0.1600  0.0152
31695ION     NA48543  16.216   1.053   6.575 -0.0783  0.1339 -0.0644
31696ION     NA48544  16.276   8.227   6.424 -0.0400 -0.1144 -0.1227
31697ION     NA48545   0.854   0.751   5.845  0.1065 -0.1028 -0.0076
31698ION     NA48546   2.407   7.001  12.067  0.0042 -0.0258  0.0676
31699ION     NA48547   8.660   0.454   6.264 -0.1346  0.2699  0.2081
31700ION     NA48548   1.279  10.200  11.668  0.2810  0.1474 -0.2288
31701ION     NA48549  12.299  12.304   2.960 -0.1809 -0.2084 -0.2401
31702ION     NA48550   3.796   0.240   6.578  0.2696  0.1604 -0.0493
31703ION     NA48551  10.673   4.666   5.921  0.4943  0.1055  0.1674
31704ION     NA48552  13.658   5.427  13.916 -0.2900  0.3064 -0.0982
31705ION     NA48553   7.329  15.271   6.415 -0.1382  0.2766  0.1525
31706ION     NA48554   9.137  12.319   6.280 -0.2978  0.1530 -0.1927
31707ION     NA48555   3.541   0.415   6.940  0.3904 -0.4021  0.2206
31708ION     NA48556   7.109  14.485  12.243 -0.2200  0.2200 -0.0653
31709ION     NA48557   5.719  11.691  11.792 -0.1028  0.0355  0.0818
31710ION     NA48558  16.455   6.045   6.432 -0.1852 -0.2963  0.0865
31711ION     NA48559   3.932   7.155   1.887  0.3996  0.0925  0.3388
31712ION     NA48560   8.174  14.719   6.035 -0.1731  0.3618  0.2888
31713ION     NA48561  16.951   1.507  12.874  0.1003 -0.2424  0.0015
31714ION     NA48562  10.954   6.835  12.887 -0.1122  0.0746  0.0074
31715ION     NA48563   5.459   7.661   6.475  0.2429  0.2867  0.0850
31716ION     NA48564   2.793  11.537  16.278 -0.2326  0.1349  0.2552
31717ION     NA48565   3.356  16.780   5.472 -0.1192  0.0192 -0.1557
31718ION     NA48566  12.522   7.314   6.237  0.0551 -0.0751  0.1587
  17.16627  17.16627  17.78407
