INSANE! Membrane UpperLeaflet>loPI:POPI:DPPI:PYPI:ERGO=20.0:5.0:3.0:2.0:10.0 LowerLeaflet>loPI:POPI:DPPI:PYPI:ERGO=20.0:5.0:3.0:2.0:10.0
48566
    1loPI    C1    1  14.181   3.401  11.316  0.1394  0.0452  0.0247
    1loPI    C2    2  13.791   3.414  11.232  0.1060  0.2176  0.1993
    1loPI    C3    3  13.928   3.155  11.504  0.1461  0.0020 -0.0228
    1loPI   PO4    4  14.272   3.628  11.206 -0.0903 -0.1436  0.0933
    1loPI   GL1    5  14.261   3.813  10.949 -0.1487  0.4160  0.0079
    1loPI   GL2    6  14.579   3.668  10.728  0.0416 -0.1986 -0.0018
    1loPI   C1A    7  13.930   3.828  10.625 -0.2635  0.1345  0.0844
    1loPI   C2A    8  13.758   3.746  10.254  0.1292 -0.4048  0.0467
    1loPI   C3A    9  13.874   3.846   9.823  0.2138  0.0427 -0.2515
    1loPI   C4A   10  13.977   4.193   9.497  0.2869  0.1281 -0.1241
    1loPI   C5A   11  14.262   4.364   9.198 -0.0737  0.1011  0.0794
    1loPI   C6A   12  14.675   4.585   9.055  0.3249  0.1822  0.1672
    1loPI   C1B   13  14.826   3.832  10.458  0.1678  0.0263  0.2245
    1loPI   C2B   14  14.781   3.830  10.018  0.1821  0.1139 -0.0464
    1loPI   C3B   15  14.771   3.663   9.572  0.1194 -0.1067  0.2258
    1loPI   C4B   16  14.761   3.554   9.153  0.0588  0.0801 -0.0150
    2loPI    C1   17  14.207  16.453  11.749 -0.2905  0.0524 -0.0234
    2loPI    C2   18  13.871  16.508  11.959 -0.1290  0.0171  0.2487
    2loPI    C3   19  14.193  16.731  12.037 -0.0436 -0.0491  0.0890
    2loPI   PO4   20  14.157  16.509  11.467 -0.1088  0.0382  0.1905
    2loPI   GL1   21  14.059  16.256  11.132 -0.0011 -0.0533 -0.0119
    2loPI   GL2   22  13.745  16.251  10.986  0.2592 -0.0054  0.1109
    2loPI   C1A   23  14.109  15.987  10.806  0.2108  0.0007 -0.2950
    2loPI   C2A   24  14.075  15.934  10.309  0.1468 -0.0214 -0.0768
    2loPI   C3A   25  14.154  15.867   9.884  0.3300 -0.0651  0.3347
    2loPI   C4A   26  14.045  15.713   9.493  0.0994 -0.1004  0.0454
    2loPI   C5A   27  14.122  15.695   9.089  0.0050  0.0255  0.6016
    2loPI   C6A   28  13.964  15.969   8.695 -0.1263  0.1511 -0.2227
    2loPI   C1B   29  13.856  16.383  10.489  0.1496 -0.0691  0.0977
    2loPI   C2B   30  13.868  16.400  10.082  0.2558  0.2939 -0.0331
    2loPI   C3B   31  13.904  16.228   9.653 -0.3538  0.0840  0.2328
    2loPI   C4B   32  14.011  16.152   9.234 -0.2078  0.0038 -0.0931
    3loPI    C1   33   4.885   4.021  11.828 -0.0272  0.4514  0.0558
    3loPI    C2   34   4.548   3.899  11.651  0.1117  0.1156  0.0143
    3loPI    C3   35   4.668   3.727  11.991  0.2635  0.2045  0.0063
    3loPI   PO4   36   5.064   4.049  11.516 -0.0585  0.3111 -0.0447
    3loPI   GL1   37   4.904   3.894  11.174  0.1899 -0.0323 -0.2266
    3loPI   GL2   38   4.500   3.866  11.188  0.1555  0.1365  0.0185
    3loPI   C1A   39   4.766   3.732  10.785 -0.0635 -0.4676  0.4793
    3loPI   C2A   40   4.737   3.665  10.301 -0.3150 -0.0697 -0.1579
    3loPI   C3A   41   4.782   3.780   9.917  0.0759 -0.0162 -0.1301
    3loPI   C4A   42   4.773   3.761   9.466 -0.1173  0.3223  0.0439
    3loPI   C5A   43   5.046   3.853   9.087 -0.1645  0.2188 -0.1303
    3loPI   C6A   44   5.520   4.119   8.965  0.0874  0.1767 -0.0295
    3loPI   C1B   45   4.237   3.907  10.866  0.1815  0.1336  0.1576
    3loPI   C2B   46   4.313   3.821  10.463  0.1525  0.2712 -0.1964
    3loPI   C3B   47   4.317   3.814  10.043  0.3747 -0.1903  0.4101
    3loPI   C4B   48   4.315   3.827   9.596 -0.0036 -0.0146 -0.1541
    4loPI    C1   49   4.137   4.235  11.750 -0.2804  0.1382 -0.0233
    4loPI    C2   50   4.183   3.914  11.984 -0.3508  0.1484  0.0047
    4loPI    C3   51   4.409   4.239  12.043 -0.3063  0.1181  0.0010
    4loPI   PO4   52   4.256   4.252  11.425  0.0676 -0.0331 -0.0246
    4loPI   GL1   53   4.269   4.545  11.074 -0.0713 -0.1179 -0.0036
    4loPI   GL2   54   4.025   4.333  11.004  0.2102  0.0581 -0.1104
    4loPI   C1A   55   4.471   4.732  10.731  0.0855  0.0981  0.0933
    4loPI   C2A   56   4.350   4.708  10.343 -0.2575  0.0498  0.1655
    4loPI   C3A   57   4.386   4.692   9.915  0.1365 -0.1999 -0.0788
    4loPI   C4A   58   4.405   4.771   9.463  0.0454  0.0398  0.1665
    4loPI   C5A   59   4.512   4.587   9.062 -0.1782  0.0802  0.0292
    4loPI   C6A   60   4.594   4.149   9.070 -0.1769  0.3380 -0.0827
    4loPI   C1B   61   4.130   4.327  10.575 -0.2990 -0.0670  0.0661
    4loPI   C2B   62   4.134   4.259  10.127 -0.1476  0.0491 -0.2468
    4loPI   C3B   63   4.021   4.355   9.620 -0.3519  0.1759  0.1389
    4loPI   C4B   64   4.133   4.221   9.285 -0.2858 -0.0723 -0.2448
    5loPI    C1   65  13.568   1.953  11.254  0.1574  0.1397  0.1687
    5loPI    C2   66  13.227   1.767  11.349  0.1838 -0.0595 -0.1152
    5loPI    C3   67  13.383   2.038  11.598 -0.1556 -0.0005  0.0386
    5loPI   PO4   68  13.541   1.922  11.003 -0.1767  0.2214  0.0111
    5loPI   GL1   69  13.413   2.270  10.665  0.0767 -0.2485 -0.0231
    5loPI   GL2   70  13.791   2.240  10.699  0.0550  0.2889 -0.0721
    5loPI   C1A   71  13.417   2.119  10.277  0.1233 -0.0114  0.2052
    5loPI   C2A   72  13.169   2.285   9.992  0.0663  0.2576  0.4199
    5loPI   C3A   73  13.067   2.403   9.595  0.0889 -0.0055  0.0633
    5loPI   C4A   74  12.774   2.248   9.272 -0.0272  0.0574  0.0672
    5loPI   C5A   75  12.594   2.261   8.861 -0.1141  0.0627 -0.1380
    5loPI   C6A   76  12.359   2.514   8.554  0.1716 -0.1239 -0.1715
    5loPI   C1B   77  13.871   2.193  10.198  0.0341 -0.0219 -0.1505
    5loPI   C2B   78  13.724   2.105   9.818 -0.2507 -0.2265  0.1884
    5loPI   C3B   79  13.564   2.248   9.495  0.0119  0.0437 -0.0411
    5loPI   C4B   80  13.250   2.285   9.176 -0.1402 -0.0135  0.0518
    6loPI    C1   81   4.307  10.354  11.467  0.0499 -0.0123 -0.0698
    6loPI    C2   82   4.116  10.278  11.810 -0.0407  0.2200 -0.0671
    6loPI    C3   83   4.515  10.306  11.805 -0.0360  0.1714  0.0101
    6loPI   PO4   84   4.220  10.588  11.357 -0.0564 -0.1177  0.3689
    6loPI   GL1   85   3.875  10.411  10.916 -0.0944  0.0130  0.5031
    6loPI   GL2   86   4.146  10.174  10.917 -0.2225  0.0351 -0.0406
    6loPI   C1A   87   3.772  10.125  10.503  0.0823  0.0101 -0.1459
    6loPI   C2A   88   3.754  10.155  10.045 -0.3530 -0.2490 -0.2191
    6loPI   C3A   89   3.744  10.214   9.617  0.0953  0.1487 -0.0567
    6loPI   C4A   90   3.573  10.238   9.238 -0.1810  0.0941 -0.1622
    6loPI   C5A   91   3.416  10.458   8.863 -0.1735 -0.1875  0.0757
    6loPI   C6A   92   3.638  10.891   8.863  0.3143  0.0881  0.0232
    6loPI   C1B   93   4.303  10.154  10.521  0.2615 -0.3590 -0.2193
    6loPI   C2B   94   4.247  10.114  10.193  0.3647 -0.0304  0.3416
    6loPI   C3B   95   4.320  10.229   9.728  0.1105  0.2669  0.2660
    6loPI   C4B   96   4.120  10.198   9.324  0.2700  0.3020 -0.1570
    7loPI    C1   97  14.041  13.925  11.793 -0.1483  0.1803  0.0166
    7loPI    C2   98  14.408  13.868  11.941 -0.1491  0.1146 -0.0066
    7loPI    C3   99  14.102  13.941  12.188 -0.1968 -0.2452  0.0459
    7loPI   PO4  100  14.150  14.052  11.511  0.0024 -0.2845  0.0752
    7loPI   GL1  101  14.325  13.902  11.115  0.0257  0.2508 -0.0144
    7loPI   GL2  102  14.615  14.002  11.198  0.0601  0.2726 -0.0475
    7loPI   C1A  103  14.281  13.751  10.652  0.0031  0.0695  0.0446
    7loPI   C2A  104  14.249  13.696  10.185  0.1091  0.1530  0.0034
    7loPI   C3A  105  14.201  13.611   9.768 -0.0346  0.1598 -0.0845
    7loPI   C4A  106  14.223  13.460   9.409  0.1492  0.0264  0.2820
    7loPI   C5A  107  14.124  13.326   9.029  0.1521 -0.0766  0.0862
    7loPI   C6A  108  13.994  13.339   8.570  0.3382  0.1027 -0.2310
    7loPI   C1B  109  14.591  14.145  10.700 -0.0922  0.1114 -0.1676
    7loPI   C2B  110  14.547  14.068  10.325  0.0769 -0.1293 -0.0626
    7loPI   C3B  111  14.612  14.061   9.863  0.0502  0.1598  0.0738
    7loPI   C4B  112  14.492  13.996   9.418  0.0744  0.0974 -0.0919
    8loPI    C1  113  14.859  10.768  11.768  0.0285  0.2075 -0.1357
    8loPI    C2  114  15.226  10.913  11.833 -0.0281  0.3215 -0.0670
    8loPI    C3  115  14.948  10.936  12.120  0.0453 -0.1893  0.0548
    8loPI   PO4  116  14.750  10.833  11.475 -0.0426 -0.2005 -0.1815
    8loPI   GL1  117  14.719  10.982  11.045 -0.1787 -0.0539  0.3105
    8loPI   GL2  118  15.093  10.827  10.956  0.0176 -0.1157  0.1148
    8loPI   C1A  119  14.638  10.881  10.643  0.1409 -0.0715 -0.2890
    8loPI   C2A  120  14.621  10.858  10.198 -0.0221  0.3395 -0.0468
    8loPI   C3A  121  14.610  10.800   9.751 -0.2945  0.0098 -0.1080
    8loPI   C4A  122  14.472  10.775   9.413  0.1959  0.0603 -0.2881
    8loPI   C5A  123  14.595  10.715   9.014 -0.1654  0.1938 -0.2185
    8loPI   C6A  124  15.010  10.798   8.779  0.0176 -0.0202 -0.0580
    8loPI   C1B  125  15.152  10.841  10.463  0.0126  0.1037  0.1101
    8loPI   C2B  126  15.079  10.800  10.049  0.3469 -0.0787  0.0425
    8loPI   C3B  127  15.104  10.671   9.651 -0.1010  0.0277  0.1382
    8loPI   C4B  128  15.049  10.488   9.224  0.0405 -0.4529  0.3766
    9loPI    C1  129  12.054  12.740  11.575 -0.3441  0.1060 -0.1547
    9loPI    C2  130  11.920  13.065  11.767 -0.0369  0.0331  0.1947
    9loPI    C3  131  11.868  12.702  11.927  0.1927 -0.0325  0.1251
    9loPI   PO4  132  12.004  12.777  11.326 -0.0751  0.0281 -0.1089
    9loPI   GL1  133  11.973  12.605  10.930  0.0196 -0.0974 -0.1019
    9loPI   GL2  134  11.741  12.409  11.052 -0.1513 -0.1453 -0.3266
    9loPI   C1A  135  12.080  12.667  10.488 -0.0650  0.0450 -0.0043
    9loPI   C2A  136  12.102  12.761  10.134 -0.0689 -0.4203  0.1683
    9loPI   C3A  137  12.128  12.854   9.660 -0.2067  0.0688 -0.2252
    9loPI   C4A  138  11.947  13.073   9.339 -0.1137  0.1454 -0.3251
    9loPI   C5A  139  11.900  13.410   9.078 -0.0799 -0.2045  0.1598
    9loPI   C6A  140  12.307  13.581   8.844 -0.1630 -0.0894 -0.0357
    9loPI   C1B  141  11.671  12.393  10.572  0.0255 -0.1977 -0.0465
    9loPI   C2B  142  11.800  12.366  10.194  0.1013  0.1667 -0.2516
    9loPI   C3B  143  11.778  12.379   9.682  0.1268 -0.0914  0.2467
    9loPI   C4B  144  11.884  12.585   9.344  0.1801 -0.1020  0.2944
   10loPI    C1  145  10.795   0.438  11.575  0.0231  0.0644  0.0825
   10loPI    C2  146  10.408   0.488  11.662  0.0547  0.2289  0.1335
   10loPI    C3  147  10.623   0.214  11.859 -0.0789  0.0066 -0.0243
   10loPI   PO4  148  10.775   0.418  11.328  0.1103  0.0266  0.0934
   10loPI   GL1  149  11.109   0.452  10.986  0.1985 -0.2929 -0.0308
   10loPI   GL2  150  11.246   0.604  10.727 -0.3994  0.1612  0.2745
   10loPI   C1A  151  11.084   0.086  10.595  0.1372  0.2741 -0.3470
   10loPI   C2A  152  11.001  -0.173  10.212 -0.0637  0.3323 -0.0611
   10loPI   C3A  153  11.040  -0.081   9.765 -0.3507  0.0029 -0.0608
   10loPI   C4A  154  11.103  -0.229   9.368 -0.1684 -0.1544  0.2558
   10loPI   C5A  155  11.100  -0.553   9.112 -0.1002  0.1283 -0.0254
   10loPI   C6A  156  11.478  -0.829   8.797  0.0095  0.1953  0.0413
   10loPI   C1B  157  11.190   0.473  10.238 -0.2074  0.0248 -0.0235
   10loPI   C2B  158  11.170   0.396   9.881 -0.0042  0.3957  0.1273
   10loPI   C3B  159  11.307   0.232   9.568  0.2387 -0.2931  0.0912
   10loPI   C4B  160  11.323   0.189   9.082  0.0633 -0.0855 -0.3727
   11loPI    C1  161  16.502   3.916  11.893  0.2340  0.2362  0.1604
   11loPI    C2  162  16.721   3.832  12.218 -0.1209 -0.0144  0.3423
   11loPI    C3  163  16.395   3.616  12.135  0.1098 -0.1291 -0.3319
   11loPI   PO4  164  16.724   3.964  11.646  0.1291 -0.0530 -0.0668
   11loPI   GL1  165  16.706   4.043  11.305 -0.4399 -0.0892 -0.0005
   11loPI   GL2  166  16.988   4.024  11.138 -0.1413  0.0332  0.0663
   11loPI   C1A  167  16.785   3.625  10.933 -0.0081 -0.4454 -0.1939
   11loPI   C2A  168  16.792   3.585  10.528 -0.1448  0.0520 -0.0384
   11loPI   C3A  169  16.787   3.574  10.062  0.2457  0.1628  0.1530
   11loPI   C4A  170  16.800   3.598   9.642  0.0195 -0.2881 -0.3958
   11loPI   C5A  171  16.897   3.636   9.193  0.3313  0.1410 -0.2890
   11loPI   C6A  172  17.099   3.704   8.821  0.0020  0.1081 -0.2875
   11loPI   C1B  173  17.065   4.135  10.732 -0.0864  0.0760  0.2869
   11loPI   C2B  174  17.191   4.103  10.305  0.0453  0.1238  0.0013
   11loPI   C3B  175  17.168   4.016   9.923  0.3883  0.0452  0.0689
   11loPI   C4B  176  17.045   4.041   9.444 -0.0066  0.2909 -0.2751
   12loPI    C1  177  14.057   0.700  11.339 -0.3562  0.1997 -0.2927
   12loPI    C2  178  13.851   0.392  11.489 -0.1378  0.1440 -0.1009
   12loPI    C3  179  13.968   0.690  11.729  0.1367  0.0991 -0.1757
   12loPI   PO4  180  14.168   0.526  11.086 -0.1208 -0.2651  0.1042
   12loPI   GL1  181  14.563   0.349  10.883 -0.2214  0.0624  0.3019
   12loPI   GL2  182  14.474   0.103  10.729  0.1135  0.2108 -0.0515
   12loPI   C1A  183  14.492   0.569  10.413 -0.1898 -0.1667  0.2766
   12loPI   C2A  184  14.488   0.553  10.058  0.0492  0.1218 -0.0959
   12loPI   C3A  185  14.382   0.487   9.594  0.4235  0.2218 -0.0876
   12loPI   C4A  186  14.274   0.409   9.140 -0.1100 -0.1671 -0.2015
   12loPI   C5A  187  14.379   0.489   8.700  0.0022 -0.0282 -0.1557
   12loPI   C6A  188  14.692   0.453   8.493 -0.2352 -0.0476 -0.0613
   12loPI   C1B  189  14.433   0.061  10.325 -0.2311  0.1359 -0.1822
   12loPI   C2B  190  14.543   0.042   9.781  0.1551 -0.2018  0.3211
   12loPI   C3B  191  14.546  -0.032   9.333 -0.1911 -0.2911 -0.1297
   12loPI   C4B  192  14.665   0.113   8.902  0.0502  0.2957  0.0012
   13loPI    C1  193  16.621  16.106  11.627 -0.1218  0.1626 -0.1620
   13loPI    C2  194  16.485  15.886  11.933  0.0150  0.0664 -0.1694
   13loPI    C3  195  16.793  16.136  11.987 -0.0814  0.1893 -0.1835
   13loPI   PO4  196  16.554  16.031  11.427 -0.2386 -0.1552  0.2122
   13loPI   GL1  197  16.851  16.058  11.151 -0.1306  0.1579 -0.0567
   13loPI   GL2  198  17.125  16.228  11.067  0.1210 -0.0144  0.0376
   13loPI   C1A  199  16.649  16.283  10.847  0.3459 -0.0987  0.3621
   13loPI   C2A  200  16.490  16.204  10.405 -0.3118 -0.2391  0.1061
   13loPI   C3A  201  16.533  16.146  10.017  0.0990 -0.1093 -0.2139
   13loPI   C4A  202  16.415  16.140   9.604 -0.1835 -0.0971  0.2196
   13loPI   C5A  203  16.409  16.162   9.236  0.0605 -0.0209  0.2319
   13loPI   C6A  204  16.432  16.290   8.829 -0.2695  0.0639  0.1065
   13loPI   C1B  205  17.121  16.146  10.667 -0.1744  0.0335 -0.0561
   13loPI   C2B  206  17.031  16.217  10.269 -0.1512 -0.0130 -0.1568
   13loPI   C3B  207  17.016  16.163   9.831 -0.2140 -0.1068  0.0641
   13loPI   C4B  208  16.920  16.131   9.400  0.1482  0.4105 -0.1359
   14loPI    C1  209   6.889   0.488  11.656 -0.1302 -0.0455  0.0840
   14loPI    C2  210   6.525   0.363  11.763 -0.1388 -0.1266 -0.0382
   14loPI    C3  211   6.703   0.658  11.966 -0.2075 -0.1918  0.1183
   14loPI   PO4  212   6.825   0.493  11.355  0.3105  0.0112  0.2632
   14loPI   GL1  213   7.006   0.796  11.083 -0.0006 -0.0501  0.2575
   14loPI   GL2  214   7.212   0.475  10.975 -0.1310 -0.1078  0.0666
   14loPI   C1A  215   7.021   0.991  10.612 -0.1380 -0.0716 -0.0387
   14loPI   C2A  216   6.830   1.308  10.233  0.0990 -0.0895  0.3134
   14loPI   C3A  217   6.885   1.349   9.866 -0.1741  0.1814  0.1963
   14loPI   C4A  218   6.449   1.448   9.624 -0.1550  0.1857  0.1085
   14loPI   C5A  219   6.319   1.646   9.222  0.0263  0.0872 -0.1314
   14loPI   C6A  220   6.445   1.523   8.862 -0.3682 -0.0542  0.1722
   14loPI   C1B  221   6.943   0.532  10.580  0.3072  0.1970  0.2649
   14loPI   C2B  222   6.956   0.783  10.152 -0.1104 -0.0408 -0.0691
   14loPI   C3B  223   7.105   0.888   9.787 -0.2555  0.1221  0.0275
   14loPI   C4B  224   7.177   1.280   9.455  0.0789 -0.1714  0.1687
   15loPI    C1  225   9.612   8.307  11.608 -0.0376  0.2427  0.1882
   15loPI    C2  226   9.468   8.630  11.421  0.2301  0.1730 -0.1491
   15loPI    C3  227   9.481   8.619  11.821  0.1376  0.5419 -0.1321
   15loPI   PO4  228   9.487   8.070  11.571  0.1025  0.0019 -0.0041
   15loPI   GL1  229   9.469   8.017  11.153 -0.0438 -0.0543 -0.0183
   15loPI   GL2  230   9.670   8.265  11.117 -0.2987 -0.1394 -0.1806
   15loPI   C1A  231   9.468   7.988  10.714  0.2137 -0.1812 -0.2761
   15loPI   C2A  232   9.500   8.017  10.244 -0.0468 -0.0898 -0.0161
   15loPI   C3A  233   9.484   7.965   9.832 -0.2291  0.3508  0.1741
   15loPI   C4A  234   9.472   7.937   9.420  0.1025  0.4140 -0.0022
   15loPI   C5A  235   9.835   7.998   9.152  0.2870  0.0393  0.1182
   15loPI   C6A  236  10.244   8.063   8.950 -0.2427  0.0817 -0.1896
   15loPI   C1B  237   9.694   8.402  10.772 -0.1833 -0.0254  0.1855
   15loPI   C2B  238   9.740   8.408  10.443 -0.0452 -0.0021 -0.1145
   15loPI   C3B  239   9.769   8.466  10.033 -0.0639 -0.3418 -0.2634
   15loPI   C4B  240   9.810   8.458   9.661 -0.0071  0.2922  0.1052
   16loPI    C1  241   4.814  11.907  11.336 -0.0123 -0.0291  0.2093
   16loPI    C2  242   4.957  11.866  11.708 -0.1697 -0.0006  0.2739
   16loPI    C3  243   4.562  11.852  11.642 -0.1311 -0.2323  0.0778
   16loPI   PO4  244   4.916  11.782  11.223  0.0904 -0.0928 -0.2594
   16loPI   GL1  245   4.932  11.309  11.047  0.0582 -0.0487  0.1114
   16loPI   GL2  246   5.180  11.485  10.754  0.1130 -0.1179  0.0503
   16loPI   C1A  247   4.850  11.041  10.680 -0.0895 -0.0168 -0.0236
   16loPI   C2A  248   4.926  11.019  10.265 -0.2474 -0.1368  0.0752
   16loPI   C3A  249   4.916  11.068   9.834  0.1252  0.2727  0.1434
   16loPI   C4A  250   4.862  11.005   9.428 -0.0744  0.0993  0.1616
   16loPI   C5A  251   4.943  10.698   9.042  0.0501 -0.0407 -0.0677
   16loPI   C6A  252   5.254  10.723   8.706 -0.0695  0.3833 -0.0894
   16loPI   C1B  253   5.169  11.410  10.370 -0.2633 -0.3161  0.2727
   16loPI   C2B  254   5.201  11.490   9.849 -0.1083 -0.1897 -0.2423
   16loPI   C3B  255   5.159  11.458   9.369 -0.1228  0.1196 -0.1263
   16loPI   C4B  256   5.234  11.226   9.058 -0.1402  0.3171 -0.3228
   17loPI    C1  257  15.066  10.283  11.714  0.0226 -0.2376 -0.1747
   17loPI    C2  258  15.095  10.084  12.059 -0.0781 -0.1195 -0.0972
   17loPI    C3  259  15.215  10.465  12.038  0.0074 -0.1524 -0.2150
   17loPI   PO4  260  14.788  10.277  11.609 -0.2145 -0.1505 -0.2056
   17loPI   GL1  261  14.763  10.397  11.172 -0.1594  0.1017 -0.0800
   17loPI   GL2  262  14.410  10.337  11.266 -0.0541 -0.0686  0.0787
   17loPI   C1A  263  14.818  10.429  10.633 -0.2367 -0.0841  0.2080
   17loPI   C2A  264  14.834  10.421  10.273 -0.2498 -0.1742  0.1535
   17loPI   C3A  265  14.847  10.298   9.819 -0.0218 -0.0731 -0.0060
   17loPI   C4A  266  14.632  10.302   9.432 -0.1459 -0.1859 -0.0402
   17loPI   C5A  267  14.714  10.121   8.967  0.1136 -0.0844 -0.0030
   17loPI   C6A  268  14.601   9.871   8.610  0.0963  0.0377 -0.2100
   17loPI   C1B  269  14.327  10.558  10.890 -0.2227  0.0906 -0.0460
   17loPI   C2B  270  14.232  10.471  10.514  0.1677 -0.0819  0.2298
   17loPI   C3B  271  14.331  10.476  10.049 -0.0413 -0.3378 -0.0238
   17loPI   C4B  272  14.234  10.356   9.683 -0.2136 -0.0956 -0.1035
   18loPI    C1  273   7.731  10.503  12.003 -0.0922 -0.2440  0.2785
   18loPI    C2  274   8.056  10.322  12.147  0.2545  0.0506 -0.1093
   18loPI    C3  275   7.939  10.673  12.300  0.1944  0.0088 -0.0586
   18loPI   PO4  276   7.826  10.529  11.697  0.2729  0.1342  0.0863
   18loPI   GL1  277   8.029  10.436  11.266 -0.0040  0.3865  0.3099
   18loPI   GL2  278   8.266  10.164  11.111 -0.4916  0.2174 -0.1212
   18loPI   C1A  279   7.950  10.639  10.834 -0.1035 -0.0375  0.1745
   18loPI   C2A  280   8.023  10.742  10.403  0.3162  0.2505 -0.2291
   18loPI   C3A  281   8.065  10.741   9.921  0.0455  0.1048  0.2147
   18loPI   C4A  282   8.055  10.704   9.532 -0.1771  0.2434 -0.1294
   18loPI   C5A  283   7.905  10.568   9.176 -0.1122  0.0924 -0.1072
   18loPI   C6A  284   7.780  10.580   8.718 -0.1784  0.0772 -0.0563
   18loPI   C1B  285   8.303  10.335  10.698  0.0606  0.2096 -0.1026
   18loPI   C2B  286   8.292  10.317  10.307 -0.2233 -0.0202  0.1833
   18loPI   C3B  287   8.313  10.251   9.943  0.0441 -0.2508  0.2744
   18loPI   C4B  288   8.249  10.259   9.503  0.2249 -0.3095 -0.0746
   19loPI    C1  289   5.925  14.832  10.860 -0.2070 -0.3011 -0.1037
   19loPI    C2  290   6.090  14.653  10.542 -0.0220 -0.1383 -0.1017
   19loPI    C3  291   6.321  14.776  10.844 -0.1584  0.0140 -0.0577
   19loPI   PO4  292   5.693  14.702  10.845 -0.1170 -0.1959  0.1878
   19loPI   GL1  293   5.294  14.717  10.624  0.1104 -0.1638  0.1805
   19loPI   GL2  294   5.425  14.443  10.475 -0.2598 -0.2267  0.0422
   19loPI   C1A  295   5.168  14.981  10.256 -0.1085  0.1885 -0.3578
   19loPI   C2A  296   5.396  15.291   9.982 -0.0513 -0.2443  0.0559
   19loPI   C3A  297   5.466  15.558   9.523  0.1737  0.0260 -0.0159
   19loPI   C4A  298   5.267  15.667   9.148  0.0784  0.2162  0.0088
   19loPI   C5A  299   4.970  15.497   8.883 -0.1698 -0.0343  0.1069
   19loPI   C6A  300   4.718  15.232   8.629 -0.0340  0.0410 -0.1942
   19loPI   C1B  301   5.351  14.527  10.069  0.1278 -0.2039  0.1387
   19loPI   C2B  302   5.338  14.361   9.632  0.2740  0.0815  0.0885
   19loPI   C3B  303   5.200  14.557   9.294 -0.0570  0.1000  0.1111
   19loPI   C4B  304   4.864  14.659   8.938 -0.1318 -0.2310 -0.0753
   20loPI    C1  305   2.246   0.492  11.890  0.0209 -0.2951 -0.0148
   20loPI    C2  306   2.511   0.661  12.138  0.0515 -0.2936 -0.0485
   20loPI    C3  307   2.165   0.519  12.281 -0.1469  0.1473 -0.0747
   20loPI   PO4  308   2.208   0.741  11.677  0.1733  0.3436 -0.0189
   20loPI   GL1  309   2.233   0.719  11.209  0.1613 -0.1669 -0.0193
   20loPI   GL2  310   2.248   1.071  11.300 -0.2764 -0.2123  0.0206
   20loPI   C1A  311   2.237   0.785  10.741  0.0136  0.3379  0.3819
   20loPI   C2A  312   2.232   0.811  10.273  0.0404  0.1851 -0.1116
   20loPI   C3A  313   2.243   0.807   9.855 -0.1111  0.1428  0.0476
   20loPI   C4A  314   2.213   0.755   9.439 -0.1800  0.3681  0.1753
   20loPI   C5A  315   2.181   0.969   9.040  0.1542  0.0818 -0.0336
   20loPI   C6A  316   2.090   1.170   8.631  0.0182  0.1332 -0.0335
   20loPI   C1B  317   2.470   1.158  11.001 -0.0990 -0.0927  0.0973
   20loPI   C2B  318   2.471   1.220  10.593  0.3292 -0.3123 -0.1652
   20loPI   C3B  319   2.501   1.281  10.162 -0.3428  0.1149 -0.0164
   20loPI   C4B  320   2.487   1.236   9.801  0.0793  0.0058  0.1773
   21loPI    C1  321  10.455  11.173  11.725 -0.0791 -0.0925 -0.0960
   21loPI    C2  322  10.748  11.110  11.990 -0.0123 -0.0425 -0.1576
   21loPI    C3  323  10.368  11.131  12.114  0.0246  0.0465 -0.0570
   21loPI   PO4  324  10.553  10.974  11.467 -0.0057  0.1306  0.1961
   21loPI   GL1  325  10.762  10.730  11.219 -0.2602  0.0778 -0.0987
   21loPI   GL2  326  10.997  10.956  11.107 -0.1179  0.1312 -0.1048
   21loPI   C1A  327  10.539  10.632  10.931 -0.4876 -0.1043 -0.2443
   21loPI   C2A  328  10.519  10.599  10.444 -0.3963  0.0912 -0.2248
   21loPI   C3A  329  10.620  10.588   9.995 -0.2470  0.1382  0.1216
   21loPI   C4A  330  10.612  10.610   9.513  0.3698 -0.0251  0.0733
   21loPI   C5A  331  10.669  10.415   9.113 -0.2737 -0.0197 -0.1005
   21loPI   C6A  332  10.810  10.055   8.895  0.3539  0.1412 -0.0049
   21loPI   C1B  333  11.354  10.911  10.838  0.2399  0.1579 -0.1718
   21loPI   C2B  334  11.331  10.991  10.391  0.0311  0.2340  0.2154
   21loPI   C3B  335  11.359  10.982   9.983  0.2074  0.0609 -0.0439
   21loPI   C4B  336  11.354  10.962   9.439  0.2271  0.1782 -0.3780
   22loPI    C1  337  10.975  17.028  11.647 -0.0106 -0.0700 -0.0080
   22loPI    C2  338  11.350  16.990  11.782 -0.0394 -0.1928  0.0383
   22loPI    C3  339  11.138  17.317  11.871  0.0408 -0.1437  0.0503
   22loPI   PO4  340  10.905  17.002  11.399  0.1236  0.0151  0.0379
   22loPI   GL1  341  10.690  16.892  11.057  0.3795 -0.0231 -0.1075
   22loPI   GL2  342  10.660  17.162  10.908 -0.2309 -0.0811 -0.1179
   22loPI   C1A  343  10.579  16.553  10.737  0.2616 -0.1350  0.1896
   22loPI   C2A  344  10.621  16.525  10.287 -0.0994 -0.0123  0.0248
   22loPI   C3A  345  10.815  16.500   9.897  0.1743 -0.1759 -0.0426
   22loPI   C4A  346  10.804  16.438   9.472 -0.0819 -0.1449 -0.1132
   22loPI   C5A  347  10.622  16.313   9.071 -0.0867  0.2784  0.1452
   22loPI   C6A  348  10.698  16.334   8.698 -0.1863  0.0754 -0.1165
   22loPI   C1B  349  10.536  16.989  10.448 -0.0106  0.0152 -0.0948
   22loPI   C2B  350  10.519  16.961   9.978  0.1598  0.1787  0.3011
   22loPI   C3B  351  10.602  16.921   9.492 -0.0290  0.0506 -0.3196
   22loPI   C4B  352  10.425  17.213   9.249  0.0771  0.1470 -0.1468
   23loPI    C1  353   2.904   5.467  11.796 -0.4020 -0.1358 -0.2501
   23loPI    C2  354   2.908   5.088  11.926  0.0533 -0.0488  0.0146
   23loPI    C3  355   2.761   5.379  12.159 -0.0083 -0.0189 -0.0609
   23loPI   PO4  356   2.808   5.470  11.589 -0.3155  0.2907  0.3144
   23loPI   GL1  357   3.043   5.497  11.170 -0.2514 -0.0331 -0.1064
   23loPI   GL2  358   3.157   5.260  11.051  0.0963  0.1925 -0.2960
   23loPI   C1A  359   2.900   5.753  10.845 -0.2409 -0.0633  0.3397
   23loPI   C2A  360   2.934   5.699  10.332 -0.1834  0.0755  0.0883
   23loPI   C3A  361   2.853   5.676   9.849  0.0692  0.1117 -0.0692
   23loPI   C4A  362   2.928   5.951   9.456 -0.2155 -0.2061 -0.0805
   23loPI   C5A  363   3.119   5.870   9.044  0.1959  0.0027  0.0246
   23loPI   C6A  364   3.294   5.507   8.941  0.2016  0.0944  0.1252
   23loPI   C1B  365   3.022   5.305  10.679  0.0116  0.0902 -0.0429
   23loPI   C2B  366   3.062   5.225  10.118 -0.1868 -0.1309  0.0141
   23loPI   C3B  367   3.064   5.245   9.599 -0.1479 -0.1385 -0.1368
   23loPI   C4B  368   2.920   5.433   9.304  0.0504  0.4310  0.2558
   24loPI    C1  369   7.780  14.975  11.569 -0.0933  0.0111  0.0696
   24loPI    C2  370   7.738  15.338  11.731 -0.0483  0.0708 -0.0512
   24loPI    C3  371   7.582  15.018  11.914 -0.2055  0.1679 -0.0131
   24loPI   PO4  372   7.703  14.988  11.296 -0.1332  0.2057  0.0752
   24loPI   GL1  373   7.855  14.788  11.039 -0.0182 -0.0980  0.2833
   24loPI   GL2  374   7.515  14.612  10.958 -0.0830 -0.1413 -0.2119
   24loPI   C1A  375   7.679  14.938  10.684 -0.1261 -0.0108  0.0142
   24loPI   C2A  376   7.707  14.867  10.224  0.0812 -0.0387  0.1704
   24loPI   C3A  377   7.728  14.726   9.811 -0.1009  0.2074  0.2915
   24loPI   C4A  378   7.523  14.815   9.463 -0.1171 -0.0778  0.1351
   24loPI   C5A  379   7.233  14.817   9.300  0.2505  0.2977  0.1388
   24loPI   C6A  380   7.181  14.831   8.885 -0.2214  0.0992  0.1566
   24loPI   C1B  381   7.445  14.531  10.533  0.2248 -0.4738 -0.0573
   24loPI   C2B  382   7.496  14.362  10.208 -0.0210  0.0805  0.3831
   24loPI   C3B  383   7.659  14.253   9.813  0.1042 -0.1403 -0.1925
   24loPI   C4B  384   7.866  14.409   9.466 -0.2832  0.0452  0.0571
   25loPI    C1  385   2.779  15.959  11.538  0.0286  0.2536  0.0645
   25loPI    C2  386   2.739  15.585  11.675 -0.0732  0.2517  0.0311
   25loPI    C3  387   3.006  15.832  11.842  0.0256  0.1507  0.0242
   25loPI   PO4  388   2.813  15.880  11.321  0.2887 -0.0497  0.2575
   25loPI   GL1  389   3.043  15.753  10.918 -0.0013 -0.0838 -0.2455
   25loPI   GL2  390   2.811  15.484  10.876 -0.1482 -0.0340 -0.0642
   25loPI   C1A  391   3.248  15.638  10.597 -0.2414 -0.2773  0.1032
   25loPI   C2A  392   3.272  15.567  10.201 -0.2212 -0.1512 -0.3034
   25loPI   C3A  393   3.308  15.468   9.749  0.3769  0.1660  0.1615
   25loPI   C4A  394   3.284  15.366   9.388  0.0922  0.0741 -0.1302
   25loPI   C5A  395   3.200  15.465   8.983  0.0458 -0.0570  0.1165
   25loPI   C6A  396   3.228  15.738   8.672 -0.1023  0.0518 -0.3318
   25loPI   C1B  397   2.844  15.371  10.411 -0.0417 -0.3022 -0.2036
   25loPI   C2B  398   2.839  15.410   9.973  0.2608  0.1080  0.3078
   25loPI   C3B  399   2.750  15.399   9.572 -0.2205 -0.1725 -0.0192
   25loPI   C4B  400   2.737  15.371   9.143 -0.0489  0.2375  0.1669
   26loPI    C1  401   1.034  12.926  11.669 -0.1748  0.0260  0.0157
   26loPI    C2  402   0.941  12.538  11.688 -0.1686  0.0139 -0.1831
   26loPI    C3  403   0.987  12.749  12.024  0.0248 -0.2038 -0.0704
   26loPI   PO4  404   1.203  12.945  11.517 -0.2731 -0.0044 -0.0260
   26loPI   GL1  405   1.146  13.097  11.141  0.2837 -0.2298 -0.0351
   26loPI   GL2  406   1.252  12.791  11.000  0.1603 -0.1041 -0.0578
   26loPI   C1A  407   1.430  13.218  10.811 -0.0276  0.1310  0.0102
   26loPI   C2A  408   1.441  13.280  10.414 -0.1043  0.2479 -0.0180
   26loPI   C3A  409   1.355  13.266  10.030  0.0064  0.0345  0.0097
   26loPI   C4A  410   1.271  13.295   9.570  0.2039  0.0152  0.1955
   26loPI   C5A  411   1.176  13.160   9.116  0.1643  0.2095  0.1997
   26loPI   C6A  412   1.209  12.914   8.723 -0.1152 -0.3463  0.1671
   26loPI   C1B  413   1.166  12.878  10.550  0.1730  0.1061 -0.1178
   26loPI   C2B  414   1.032  12.817  10.148  0.1827 -0.0947  0.4447
   26loPI   C3B  415   1.011  12.832   9.709 -0.0677 -0.1179 -0.0787
   26loPI   C4B  416   0.951  12.615   9.345 -0.0491 -0.1422  0.2266
   27loPI    C1  417   4.222   4.797  11.628  0.1160 -0.1545  0.2867
   27loPI    C2  418   4.063   5.066  11.877  0.0344 -0.1500  0.2303
   27loPI    C3  419   3.940   4.685  11.888 -0.3346 -0.0482 -0.1414
   27loPI   PO4  420   4.283   4.914  11.431  0.0374 -0.0515  0.1181
   27loPI   GL1  421   4.244   5.023  11.071 -0.0532 -0.0680  0.0924
   27loPI   GL2  422   4.267   5.336  11.046 -0.2089  0.1675 -0.1610
   27loPI   C1A  423   4.131   5.170  10.593  0.3296  0.0559 -0.3215
   27loPI   C2A  424   4.104   5.180  10.146 -0.2234 -0.1249  0.0172
   27loPI   C3A  425   4.351   5.167   9.779 -0.2793 -0.0851 -0.1828
   27loPI   C4A  426   4.608   5.245   9.312  0.2273 -0.3169 -0.0900
   27loPI   C5A  427   4.917   5.012   9.119  0.1272 -0.1799 -0.1371
   27loPI   C6A  428   5.084   5.175   8.704 -0.1365  0.1524 -0.0517
   27loPI   C1B  429   4.466   5.701  10.978 -0.2913  0.2099  0.0174
   27loPI   C2B  430   4.481   5.714  10.547  0.3498 -0.5163  0.0886
   27loPI   C3B  431   4.437   5.573  10.095  0.0825 -0.1134  0.1222
   27loPI   C4B  432   4.541   5.601   9.656  0.0646  0.0891  0.0167
   28loPI    C1  433   1.035   6.695  11.663  0.0335  0.1446 -0.0291
   28loPI    C2  434   1.069   6.712  12.061  0.0869 -0.0599 -0.0238
   28loPI    C3  435   0.851   6.986  11.867 -0.1639 -0.1166  0.1726
   28loPI   PO4  436   1.337   6.620  11.604  0.2150 -0.0853 -0.0015
   28loPI   GL1  437   1.436   6.469  11.312  0.0827 -0.3491  0.3276
   28loPI   GL2  438   1.419   6.146  11.284 -0.0809 -0.1009  0.0030
   28loPI   C1A  439   1.262   6.689  10.935  0.1266 -0.0033 -0.1749
   28loPI   C2A  440   1.325   6.765  10.509 -0.0208  0.1068 -0.2585
   28loPI   C3A  441   1.388   6.649  10.068 -0.3154 -0.0957 -0.1304
   28loPI   C4A  442   1.444   6.660   9.699  0.0261  0.0162 -0.0455
   28loPI   C5A  443   1.618   6.423   9.312 -0.0043  0.1460  0.0154
   28loPI   C6A  444   1.389   6.089   9.128  0.0671  0.1445  0.2219
   28loPI   C1B  445   1.467   6.160  10.860  0.1411  0.0324 -0.0207
   28loPI   C2B  446   1.533   6.248  10.360 -0.2730 -0.0742 -0.2329
   28loPI   C3B  447   1.542   6.166   9.909  0.1355 -0.0235 -0.0623
   28loPI   C4B  448   1.248   6.182   9.561 -0.1328 -0.1362 -0.3169
   29loPI    C1  449   9.209   7.335  11.876  0.1550  0.2093 -0.5219
   29loPI    C2  450   9.246   7.728  11.941  0.0796  0.1009  0.2914
   29loPI    C3  451   9.498   7.473  12.117 -0.0993 -0.2391  0.0653
   29loPI   PO4  452   9.104   7.321  11.653 -0.0257  0.2522  0.0846
   29loPI   GL1  453   9.169   7.285  11.225  0.1832 -0.3987  0.0505
   29loPI   GL2  454   8.924   7.143  11.145 -0.1779 -0.0424  0.2364
   29loPI   C1A  455   9.278   7.487  10.850  0.3756 -0.0511  0.0107
   29loPI   C2A  456   9.248   7.617  10.455 -0.2052 -0.0217  0.3108
   29loPI   C3A  457   9.237   7.558  10.079  0.0659  0.1837  0.0033
   29loPI   C4A  458   9.205   7.555   9.639 -0.0606  0.1390  0.1242
   29loPI   C5A  459   9.438   7.338   9.301 -0.0676 -0.1159  0.0516
   29loPI   C6A  460   9.733   7.233   8.962  0.0427 -0.0560 -0.0987
   29loPI   C1B  461   8.782   7.352  10.757 -0.2702  0.0011 -0.1863
   29loPI   C2B  462   8.807   7.435  10.401  0.1758 -0.1920 -0.3440
   29loPI   C3B  463   8.742   7.475  10.024 -0.1581  0.1384  0.3817
   29loPI   C4B  464   8.656   7.564   9.681 -0.0841 -0.3845 -0.1345
   30loPI    C1  465  11.726  13.521  11.825 -0.0118  0.0537  0.0031
   30loPI    C2  466  11.489  13.681  11.545  0.1071 -0.0327 -0.1494
   30loPI    C3  467  11.359  13.645  11.922 -0.0188  0.1735 -0.1714
   30loPI   PO4  468  11.994  13.644  11.748 -0.0575  0.0554  0.2038
   30loPI   GL1  469  12.108  13.860  11.392  0.0443  0.1301  0.1411
   30loPI   GL2  470  12.346  13.682  11.326  0.2758 -0.0444  0.0686
   30loPI   C1A  471  11.752  13.753  11.136 -0.2205 -0.3954 -0.1498
   30loPI   C2A  472  11.595  13.847  10.829  0.0225 -0.1481 -0.2105
   30loPI   C3A  473  11.547  13.777  10.389 -0.1900  0.2145  0.1944
   30loPI   C4A  474  11.657  13.803   9.992 -0.1538  0.0948 -0.1420
   30loPI   C5A  475  11.710  13.675   9.509  0.1454 -0.0184 -0.0320
   30loPI   C6A  476  12.030  13.852   9.296  0.0145 -0.0127  0.5433
   30loPI   C1B  477  12.189  13.742  10.938 -0.1701 -0.0952  0.0342
   30loPI   C2B  478  12.157  13.717  10.600 -0.0240 -0.4648  0.2307
   30loPI   C3B  479  12.112  13.798  10.196  0.2395  0.4005 -0.5624
   30loPI   C4B  480  12.162  13.671   9.813 -0.1949 -0.0378 -0.2028
   31loPI    C1  481  12.824  14.682  11.538 -0.1883 -0.2254 -0.0758
   31loPI    C2  482  12.426  14.658  11.577 -0.2028  0.0012 -0.0715
   31loPI    C3  483  12.631  14.937  11.778 -0.0540 -0.0445 -0.1578
   31loPI   PO4  484  12.899  14.355  11.524  0.0479  0.2657 -0.3610
   31loPI   GL1  485  13.106  14.276  11.293 -0.0426  0.0343  0.1122
   31loPI   GL2  486  13.352  14.095  11.234 -0.4367 -0.0935 -0.3583
   31loPI   C1A  487  12.989  14.098  10.873  0.2149  0.0481 -0.1013
   31loPI   C2A  488  12.940  14.051  10.362 -0.2513  0.0722 -0.1170
   31loPI   C3A  489  12.955  14.114   9.974 -0.1638 -0.1206  0.0733
   31loPI   C4A  490  12.949  14.024   9.479 -0.1996 -0.2877 -0.0121
   31loPI   C5A  491  12.876  14.309   9.156  0.1840  0.1182  0.1896
   31loPI   C6A  492  13.115  14.644   8.868 -0.1077 -0.2229  0.0678
   31loPI   C1B  493  13.516  14.164  10.831 -0.0766 -0.0870  0.0427
   31loPI   C2B  494  13.422  14.046  10.410 -0.1885  0.0009 -0.0919
   31loPI   C3B  495  13.467  14.004   9.989 -0.1490 -0.1826 -0.0415
   31loPI   C4B  496  13.474  14.095   9.553 -0.0320  0.2813 -0.0695
   32loPI    C1  497  14.127   6.383  11.528 -0.0158 -0.0652  0.1447
   32loPI    C2  498  13.933   6.083  11.708 -0.0411 -0.1064  0.0491
   32loPI    C3  499  14.326   6.055  11.643 -0.0632 -0.1671 -0.0600
   32loPI   PO4  500  13.958   6.460  11.365 -0.0842  0.1809  0.0800
   32loPI   GL1  501  13.963   6.358  10.969 -0.1572 -0.1178 -0.0262
   32loPI   GL2  502  13.660   6.323  10.897 -0.2369  0.2693 -0.2056
   32loPI   C1A  503  14.083   6.090  10.702  0.1353 -0.0724 -0.2782
   32loPI   C2A  504  14.140   6.084  10.340 -0.1385  0.1716  0.1744
   32loPI   C3A  505  14.222   6.239   9.892 -0.1836 -0.4110 -0.0515
   32loPI   C4A  506  14.568   6.368   9.658  0.0714  0.2521  0.1223
   32loPI   C5A  507  14.779   6.132   9.353 -0.1280  0.0351  0.2045
   32loPI   C6A  508  15.023   5.927   9.029  0.2820 -0.2657  0.1226
   32loPI   C1B  509  13.730   6.305  10.465  0.5155  0.0163  0.2750
   32loPI   C2B  510  13.749   6.257  10.056 -0.3156 -0.0449  0.2966
   32loPI   C3B  511  13.702   6.339   9.597  0.2265  0.1365 -0.2097
   32loPI   C4B  512  13.672   6.183   9.277  0.1753  0.2003 -0.1949
   33loPI    C1  513  14.878   7.487  12.108  0.1544 -0.0099 -0.1351
   33loPI    C2  514  14.804   7.876  12.161 -0.2683 -0.1065  0.0274
   33loPI    C3  515  14.943   7.656  12.464  0.2339 -0.0322 -0.1390
   33loPI   PO4  516  14.771   7.444  11.780 -0.2162  0.2447 -0.0848
   33loPI   GL1  517  14.783   7.597  11.333 -0.0315  0.0849 -0.0882
   33loPI   GL2  518  14.411   7.555  11.208 -0.2805 -0.0576  0.1693
   33loPI   C1A  519  14.969   7.544  10.981  0.2343  0.1241  0.0319
   33loPI   C2A  520  15.086   7.659  10.689 -0.0325  0.3641 -0.0558
   33loPI   C3A  521  15.141   7.613  10.225 -0.1819  0.0935 -0.1341
   33loPI   C4A  522  15.005   7.593   9.812 -0.0398 -0.1691  0.0366
   33loPI   C5A  523  15.184   7.485   9.451 -0.1612  0.0560  0.2843
   33loPI   C6A  524  15.290   7.238   9.067 -0.3467 -0.1640  0.0078
   33loPI   C1B  525  14.551   7.576  10.656  0.1300 -0.4208  0.0117
   33loPI   C2B  526  14.528   7.647  10.215 -0.1724  0.2063 -0.0391
   33loPI   C3B  527  14.513   7.600   9.800  0.1928 -0.0229  0.0019
   33loPI   C4B  528  14.665   7.557   9.435  0.2928 -0.0213 -0.0503
   34loPI    C1  529   3.725  16.908  11.472  0.1235  0.0597 -0.0005
   34loPI    C2  530   4.044  16.981  11.702  0.1861 -0.0972 -0.0366
   34loPI    C3  531   3.927  16.604  11.634 -0.0543 -0.0384  0.0400
   34loPI   PO4  532   3.800  17.001  11.262 -0.1977  0.2096  0.2121
   34loPI   GL1  533   4.033  16.878  10.872  0.2032  0.1884  0.0901
   34loPI   GL2  534   4.054  17.214  10.745  0.2735 -0.1820 -0.0872
   34loPI   C1A  535   3.738  16.855  10.558 -0.1122 -0.0686  0.1391
   34loPI   C2A  536   3.716  16.851  10.242 -0.0133 -0.1422 -0.0437
   34loPI   C3A  537   3.718  16.857   9.833  0.1789 -0.1549  0.0285
   34loPI   C4A  538   3.692  16.726   9.426 -0.1399 -0.1934  0.2862
   34loPI   C5A  539   3.551  16.800   9.056  0.2827 -0.0837 -0.0191
   34loPI   C6A  540   3.604  16.718   8.615  0.1223 -0.1589 -0.2079
   34loPI   C1B  541   4.154  17.142  10.347 -0.0628 -0.1671 -0.1434
   34loPI   C2B  542   4.113  17.241   9.899 -0.1849  0.0293 -0.0563
   34loPI   C3B  543   3.917  17.254   9.519 -0.0763 -0.0433  0.4101
   34loPI   C4B  544   3.920  17.152   9.149 -0.0741  0.2700 -0.1195
   35loPI    C1  545  12.942   9.923  11.764  0.0117 -0.1672  0.2414
   35loPI    C2  546  12.668  10.003  12.044 -0.1274  0.2369 -0.0011
   35loPI    C3  547  13.040  10.145  12.082 -0.0374 -0.0376  0.1674
   35loPI   PO4  548  12.819   9.944  11.518 -0.0073 -0.0853 -0.0321
   35loPI   GL1  549  12.622  10.228  11.274  0.0277 -0.0582 -0.0638
   35loPI   GL2  550  12.429  10.149  11.120  0.1430 -0.3771 -0.0404
   35loPI   C1A  551  12.712  10.484  10.843  0.1114  0.1742 -0.1736
   35loPI   C2A  552  12.748  10.478  10.384 -0.1593 -0.0276  0.0350
   35loPI   C3A  553  12.741  10.471   9.852  0.3644 -0.2499 -0.1957
   35loPI   C4A  554  12.637  10.419   9.447  0.3623 -0.2288 -0.1505
   35loPI   C5A  555  12.825  10.256   9.119 -0.1409  0.0757  0.0848
   35loPI   C6A  556  13.239  10.127   9.162  0.2149 -0.0411  0.0968
   35loPI   C1B  557  12.452  10.060  10.706  0.1157 -0.1678  0.0321
   35loPI   C2B  558  12.514  10.038  10.229  0.2930 -0.0657 -0.3138
   35loPI   C3B  559  12.469  10.105   9.850 -0.1818 -0.0230  0.2546
   35loPI   C4B  560  12.570   9.913   9.391  0.0244  0.0587  0.2689
   36loPI    C1  561   5.562  10.138  11.629 -0.0683  0.0488  0.0742
   36loPI    C2  562   5.615   9.847  11.898 -0.1828  0.0581  0.1074
   36loPI    C3  563   5.471  10.202  12.013  0.0607  0.1663  0.0863
   36loPI   PO4  564   5.409   9.911  11.429 -0.0174  0.0166 -0.3026
   36loPI   GL1  565   5.605   9.670  11.079 -0.0522  0.0856  0.0193
   36loPI   GL2  566   5.312   9.635  10.939 -0.5036  0.1830 -0.0137
   36loPI   C1A  567   5.699   9.581  10.622 -0.0310 -0.1429 -0.1152
   36loPI   C2A  568   5.717   9.636  10.227 -0.0212 -0.0068 -0.1631
   36loPI   C3A  569   5.611   9.606   9.737  0.2135 -0.0608 -0.1910
   36loPI   C4A  570   5.765   9.689   9.265 -0.0640  0.2585 -0.0097
   36loPI   C5A  571   5.626   9.901   8.917  0.0067  0.1103 -0.2335
   36loPI   C6A  572   5.237  10.240   9.040 -0.0689 -0.1627  0.0508
   36loPI   C1B  573   4.965   9.627  10.610 -0.4006  0.0883  0.0351
   36loPI   C2B  574   4.984   9.619  10.204 -0.1275  0.0196 -0.0366
   36loPI   C3B  575   5.123   9.613   9.754 -0.0239 -0.2877  0.0336
   36loPI   C4B  576   5.271   9.576   9.338  0.2710 -0.0251 -0.2454
   37loPI    C1  577   4.585  17.055  11.644  0.0170 -0.0248 -0.3418
   37loPI    C2  578   4.843  16.750  11.637  0.0372 -0.0249  0.1067
   37loPI    C3  579   4.485  16.705  11.810 -0.0295  0.1542  0.0178
   37loPI   PO4  580   4.632  17.150  11.411  0.0877 -0.2330  0.0249
   37loPI   GL1  581   4.551  17.120  10.986  0.2161 -0.0146 -0.3024
   37loPI   GL2  582   4.855  17.342  10.985  0.2147 -0.1076 -0.2055
   37loPI   C1A  583   4.584  17.178  10.587  0.3312 -0.0444  0.3625
   37loPI   C2A  584   4.637  17.193  10.117  0.0959  0.1563 -0.2804
   37loPI   C3A  585   4.568  17.074   9.680  0.0490  0.0474 -0.0646
   37loPI   C4A  586   4.411  17.271   9.313 -0.0578 -0.0333 -0.0598
   37loPI   C5A  587   4.291  17.422   8.887  0.0634  0.0435 -0.1159
   37loPI   C6A  588   4.038  17.742   8.807 -0.0298  0.0502 -0.2087
   37loPI   C1B  589   5.001  17.564  10.645  0.5374  0.0083 -0.3398
   37loPI   C2B  590   4.941  17.577  10.265  0.2017  0.2245 -0.1806
   37loPI   C3B  591   4.850  17.573   9.879 -0.1932  0.0180 -0.2460
   37loPI   C4B  592   4.874  17.585   9.432 -0.0256  0.0393 -0.0811
   38loPI    C1  593  14.917  16.121  11.593 -0.0235 -0.0492  0.1269
   38loPI    C2  594  15.012  15.949  11.941 -0.1594  0.0084  0.1936
   38loPI    C3  595  14.671  16.155  11.907 -0.0480  0.1772  0.0852
   38loPI   PO4  596  15.103  16.026  11.407  0.0203  0.0523  0.0335
   38loPI   GL1  597  15.252  15.871  11.089  0.0226 -0.0218  0.1314
   38loPI   GL2  598  15.572  15.873  11.183  0.1191 -0.2671 -0.0911
   38loPI   C1A  599  15.218  15.855  10.564 -0.0259 -0.0882  0.0420
   38loPI   C2A  600  15.180  15.766  10.196  0.2611  0.0977 -0.0466
   38loPI   C3A  601  15.112  15.742   9.767 -0.1717 -0.0316  0.0053
   38loPI   C4A  602  15.196  15.788   9.452  0.0078  0.1787  0.0149
   38loPI   C5A  603  15.076  15.838   8.999  0.1830 -0.0371 -0.2228
   38loPI   C6A  604  15.078  15.861   8.555 -0.2459 -0.1509  0.0359
   38loPI   C1B  605  15.716  15.875  10.736 -0.0708  0.1430  0.2247
   38loPI   C2B  606  15.761  15.840  10.373 -0.0263  0.0665  0.2026
   38loPI   C3B  607  15.644  15.768  10.019  0.0499 -0.0309  0.1984
   38loPI   C4B  608  15.663  15.748   9.624 -0.0137  0.1016  0.1405
   39loPI    C1  609  10.846  13.888  11.849  0.1164 -0.0316 -0.1468
   39loPI    C2  610  10.537  13.762  12.070 -0.0410 -0.0643 -0.3820
   39loPI    C3  611  10.898  13.595  12.117 -0.0132  0.0962  0.0207
   39loPI   PO4  612  10.749  13.855  11.642  0.0311 -0.3218  0.0239
   39loPI   GL1  613  10.697  13.752  11.289 -0.1204  0.0065 -0.2311
   39loPI   GL2  614  10.755  13.395  11.264  0.0217 -0.4174  0.1549
   39loPI   C1A  615  10.445  13.818  10.904 -0.2230 -0.1863 -0.0235
   39loPI   C2A  616  10.633  13.867  10.518  0.1427 -0.0366 -0.0355
   39loPI   C3A  617  10.584  13.815  10.065  0.1323 -0.3026 -0.1052
   39loPI   C4A  618  10.663  13.701   9.612 -0.0831 -0.1887  0.2365
   39loPI   C5A  619  10.780  13.609   9.129  0.2758  0.2667  0.0799
   39loPI   C6A  620  10.497  13.436   8.796 -0.0824 -0.1654  0.0964
   39loPI   C1B  621  10.739  13.392  10.731  0.2902 -0.0071 -0.1972
   39loPI   C2B  622  10.764  13.402  10.291 -0.0476 -0.0368 -0.1918
   39loPI   C3B  623  10.943  13.284   9.859 -0.1666 -0.3174 -0.0723
   39loPI   C4B  624  10.991  13.220   9.415 -0.0669  0.1391 -0.0414
   40loPI    C1  625   3.526   7.648  11.938  0.1477 -0.0921 -0.1450
   40loPI    C2  626   3.432   7.814  12.289  0.0505 -0.2013 -0.1187
   40loPI    C3  627   3.264   7.468  12.181  0.3025 -0.3183 -0.1428
   40loPI   PO4  628   3.488   7.794  11.743 -0.0036 -0.2078  0.1951
   40loPI   GL1  629   3.432   7.816  11.286  0.0109  0.3918  0.3141
   40loPI   GL2  630   3.763   7.821  11.061 -0.2323  0.0587  0.1238
   40loPI   C1A  631   3.310   7.970  10.875  0.0851  0.0744 -0.1383
   40loPI   C2A  632   3.350   8.002  10.518 -0.1421 -0.0879  0.0345
   40loPI   C3A  633   3.318   7.935  10.128 -0.1106  0.1402  0.1753
   40loPI   C4A  634   3.271   8.123   9.620 -0.0458  0.2230 -0.1447
   40loPI   C5A  635   3.162   8.431   9.225  0.0124 -0.1462  0.0245
   40loPI   C6A  636   3.203   8.701   8.850 -0.1167 -0.4231  0.1991
   40loPI   C1B  637   3.828   7.938  10.612 -0.0112  0.1856  0.2275
   40loPI   C2B  638   3.833   7.949  10.209 -0.2256 -0.1369 -0.2564
   40loPI   C3B  639   3.817   7.982   9.731  0.0109  0.0585 -0.0401
   40loPI   C4B  640   3.618   7.758   9.381  0.0834  0.3048  0.0869
   41loPI    C1  641   0.346  10.653  11.751  0.3148 -0.0205 -0.1555
   41loPI    C2  642   0.384  10.826  12.110 -0.0637  0.0145 -0.1280
   41loPI    C3  643   0.400  10.428  12.077 -0.3679 -0.0090 -0.0196
   41loPI   PO4  644   0.222  10.759  11.648  0.1577  0.0186 -0.0059
   41loPI   GL1  645   0.046  10.634  11.220 -0.1583 -0.3337  0.0070
   41loPI   GL2  646   0.298  10.487  11.259  0.2688 -0.0476  0.0566
   41loPI   C1A  647  -0.080  10.644  10.751 -0.1551  0.1803  0.0606
   41loPI   C2A  648  -0.103  10.608  10.401  0.2619 -0.0056  0.2726
   41loPI   C3A  649  -0.274  10.567   9.968 -0.1948  0.1529 -0.2372
   41loPI   C4A  650  -0.470  10.570   9.565 -0.0821 -0.0421  0.0482
   41loPI   C5A  651  -0.550  10.328   9.167 -0.2744 -0.1576 -0.2485
   41loPI   C6A  652  -0.966  10.168   9.047 -0.1060  0.1141  0.0052
   41loPI   C1B  653   0.305  10.281  10.846  0.0159 -0.0085 -0.0121
   41loPI   C2B  654   0.295  10.263  10.438  0.0327  0.3006  0.0467
   41loPI   C3B  655   0.152  10.420   9.980  0.0461 -0.0562 -0.1879
   41loPI   C4B  656   0.089  10.616   9.568 -0.1878  0.2700  0.1426
   42loPI    C1  657   6.690   7.876  11.638 -0.0033  0.0684  0.2137
   42loPI    C2  658   6.546   8.164  11.874 -0.2332 -0.0889  0.2692
   42loPI    C3  659   6.774   7.875  12.029 -0.1199 -0.0162  0.2392
   42loPI   PO4  660   6.542   7.932  11.393  0.1621 -0.0428  0.2713
   42loPI   GL1  661   6.561   7.746  11.077 -0.2994 -0.0892 -0.2829
   42loPI   GL2  662   6.234   7.671  10.958 -0.3113  0.1325 -0.0326
   42loPI   C1A  663   6.540   7.704  10.641 -0.0712  0.0578 -0.1630
   42loPI   C2A  664   6.207   7.665  10.365 -0.4026 -0.0199  0.4036
   42loPI   C3A  665   5.957   7.683   9.939  0.3052 -0.0702  0.2288
   42loPI   C4A  666   5.994   7.680   9.426  0.0917 -0.0069  0.1308
   42loPI   C5A  667   6.300   7.830   9.093  0.0647 -0.0241  0.4240
   42loPI   C6A  668   6.762   7.782   8.955  0.0309  0.1683 -0.0785
   42loPI   C1B  669   5.874   7.764  10.703  0.3167 -0.0245 -0.0148
   42loPI   C2B  670   5.577   7.742  10.308 -0.2493  0.0154  0.3246
   42loPI   C3B  671   5.474   7.760   9.913 -0.0367 -0.1946  0.0036
   42loPI   C4B  672   5.466   7.633   9.543  0.1660  0.0658  0.1704
   43loPI    C1  673  11.959   4.428  11.675 -0.0314  0.0369  0.0055
   43loPI    C2  674  11.631   4.237  11.802 -0.0206  0.0478  0.0497
   43loPI    C3  675  11.914   4.344  12.063  0.0014  0.0704  0.0165
   43loPI   PO4  676  11.958   4.299  11.440 -0.0012  0.2687  0.1989
   43loPI   GL1  677  11.785   4.414  11.040  0.3961 -0.2233 -0.0060
   43loPI   GL2  678  11.544   4.392  10.873 -0.1282 -0.0989  0.0821
   43loPI   C1A  679  12.142   4.480  10.717  0.0318 -0.1278  0.0294
   43loPI   C2A  680  12.094   4.481  10.269  0.3739 -0.2191  0.2488
   43loPI   C3A  681  12.124   4.558   9.826 -0.0651  0.3724  0.1790
   43loPI   C4A  682  12.080   4.631   9.419 -0.3933  0.0099 -0.0752
   43loPI   C5A  683  11.982   4.436   9.034  0.0102 -0.0379 -0.0424
   43loPI   C6A  684  12.426   4.300   8.820 -0.0833 -0.0196 -0.2194
   43loPI   C1B  685  11.638   4.428  10.483  0.2432 -0.2089  0.1521
   43loPI   C2B  686  11.639   4.568   9.995 -0.1707 -0.1364 -0.2037
   43loPI   C3B  687  11.552   4.618   9.620  0.3057  0.0285  0.2308
   43loPI   C4B  688  11.574   4.626   9.246  0.2393  0.0726 -0.1082
   44loPI    C1  689   9.932  15.498  11.817 -0.1037  0.1396 -0.1369
   44loPI    C2  690   9.971  15.725  12.144 -0.0721  0.0144 -0.0534
   44loPI    C3  691   9.754  15.389  12.158  0.0347 -0.0583 -0.1262
   44loPI   PO4  692   9.939  15.761  11.628  0.0187  0.0651 -0.0835
   44loPI   GL1  693   9.908  15.616  11.244 -0.1577 -0.4449 -0.0431
   44loPI   GL2  694   9.617  15.718  10.980 -0.0906 -0.1707 -0.0146
   44loPI   C1A  695  10.111  15.842  10.873  0.1720 -0.0535 -0.1285
   44loPI   C2A  696  10.095  15.714  10.511  0.0282  0.0706 -0.1865
   44loPI   C3A  697  10.226  15.677  10.066 -0.1282  0.1782  0.2659
   44loPI   C4A  698  10.238  15.593   9.644  0.2019  0.0032  0.2023
   44loPI   C5A  699  10.300  15.446   9.223 -0.1124  0.0198  0.0831
   44loPI   C6A  700  10.442  15.296   8.890 -0.2967  0.2158  0.3744
   44loPI   C1B  701   9.540  15.789  10.540  0.2169  0.0123  0.0831
   44loPI   C2B  702   9.688  15.671  10.193  0.1065  0.2185  0.2542
   44loPI   C3B  703   9.791  15.597   9.793  0.4473 -0.1216  0.0255
   44loPI   C4B  704   9.775  15.561   9.400  0.0144  0.1254 -0.0236
   45loPI    C1  705  13.299   3.074  11.102  0.0775  0.2683 -0.1991
   45loPI    C2  706  13.377   3.117  11.492  0.1045  0.1930 -0.1960
   45loPI    C3  707  13.000   3.069  11.368  0.1062  0.1100 -0.1691
   45loPI   PO4  708  13.494   2.918  11.067  0.0855 -0.1684  0.0744
   45loPI   GL1  709  13.340   2.765  10.671 -0.2667 -0.0192  0.0682
   45loPI   GL2  710  13.207   3.056  10.604  0.2583  0.2414  0.1078
   45loPI   C1A  711  13.036   2.731  10.272 -0.0274 -0.0289  0.3751
   45loPI   C2A  712  12.963   2.805   9.861 -0.1102 -0.0206  0.0019
   45loPI   C3A  713  12.957   2.886   9.485  0.0796 -0.2269 -0.0088
   45loPI   C4A  714  12.963   3.175   9.208  0.0489 -0.0819  0.2548
   45loPI   C5A  715  13.197   3.224   8.804  0.1075  0.3307  0.0648
   45loPI   C6A  716  13.454   2.848   8.630 -0.0657  0.2249  0.1373
   45loPI   C1B  717  13.277   3.107  10.060 -0.3463  0.2151  0.0080
   45loPI   C2B  718  13.300   3.222   9.583  0.1102 -0.0325 -0.1080
   45loPI   C3B  719  13.467   3.348   9.210 -0.0596 -0.0155 -0.1214
   45loPI   C4B  720  13.674   3.195   8.819  0.0254 -0.0861  0.2870
   46loPI    C1  721  11.348  10.438  12.100 -0.2263  0.2106  0.1124
   46loPI    C2  722  11.071  10.716  12.179 -0.1006  0.2935  0.2669
   46loPI    C3  723  11.095  10.388  12.406 -0.2110  0.1824  0.1203
   46loPI   PO4  724  11.378  10.425  11.794 -0.2229 -0.0550  0.2457
   46loPI   GL1  725  11.236  10.154  11.462  0.0046 -0.0072 -0.4602
   46loPI   GL2  726  11.059  10.354  11.127 -0.0544  0.1526  0.0761
   46loPI   C1A  727  11.468  10.117  11.031  0.0376 -0.0233  0.2480
   46loPI   C2A  728  11.408  10.238  10.646  0.1440  0.3095 -0.0856
   46loPI   C3A  729  11.429  10.140  10.347  0.0062 -0.4688  0.0825
   46loPI   C4A  730  11.500  10.001   9.942  0.0117 -0.1861  0.1418
   46loPI   C5A  731  11.327  10.094   9.599 -0.2875  0.1896 -0.1300
   46loPI   C6A  732  11.204  10.044   9.154 -0.1875 -0.0011 -0.0932
   46loPI   C1B  733  11.049  10.591  10.724  0.1242 -0.3597  0.0118
   46loPI   C2B  734  11.113  10.586  10.182 -0.2093  0.1121 -0.1299
   46loPI   C3B  735  11.159  10.542   9.739  0.0703 -0.1423  0.0141
   46loPI   C4B  736  11.132  10.503   9.282 -0.4794 -0.1744  0.2766
   47loPI    C1  737  10.469   2.300  11.561  0.0193  0.0752  0.0810
   47loPI    C2  738  10.821   2.145  11.672 -0.0425  0.0120  0.1911
   47loPI    C3  739  10.603   2.356  11.934 -0.0983  0.0297  0.1308
   47loPI   PO4  740  10.538   2.447  11.327 -0.3004  0.2746 -0.1103
   47loPI   GL1  741  10.662   2.383  10.942 -0.0852  0.1585  0.0156
   47loPI   GL2  742  10.672   2.065  10.853  0.1169 -0.3309 -0.0851
   47loPI   C1A  743  10.698   2.516  10.623  0.1505 -0.0040 -0.1168
   47loPI   C2A  744  10.727   2.604  10.157 -0.1387 -0.0797 -0.1021
   47loPI   C3A  745  10.807   2.525   9.782 -0.2409 -0.1084 -0.1654
   47loPI   C4A  746  10.684   2.472   9.378 -0.0988 -0.0289  0.1027
   47loPI   C5A  747  10.737   2.279   8.958 -0.0495 -0.4049  0.0310
   47loPI   C6A  748  11.016   2.410   8.565  0.1245  0.1589 -0.1901
   47loPI   C1B  749  10.676   2.070  10.424 -0.0444  0.1334 -0.0931
   47loPI   C2B  750  10.878   2.014  10.040  0.1834  0.2943  0.0369
   47loPI   C3B  751  10.851   2.018   9.598  0.0769 -0.2555  0.1160
   47loPI   C4B  752  10.628   1.836   9.260 -0.3198 -0.0837  0.0689
   48loPI    C1  753  11.437   6.582  11.721 -0.1786  0.1712 -0.1798
   48loPI    C2  754  11.064   6.476  11.820 -0.0004 -0.1643  0.1610
   48loPI    C3  755  11.315   6.612  12.101  0.0592  0.3128 -0.1122
   48loPI   PO4  756  11.345   6.744  11.453  0.1777 -0.0829  0.3159
   48loPI   GL1  757  11.508   6.762  11.018 -0.3443  0.1064  0.0988
   48loPI   GL2  758  11.675   6.464  11.084  0.3141 -0.0523 -0.3628
   48loPI   C1A  759  11.536   6.882  10.591 -0.0449  0.1695 -0.0630
   48loPI   C2A  760  11.509   6.951  10.170  0.0463 -0.0199  0.0783
   48loPI   C3A  761  11.466   6.987   9.756  0.0706 -0.1622 -0.1740
   48loPI   C4A  762  11.412   7.014   9.360 -0.0040 -0.0308 -0.0914
   48loPI   C5A  763  11.123   6.978   9.012  0.0832 -0.1825 -0.1826
   48loPI   C6A  764  10.702   7.098   8.774 -0.1381  0.1081 -0.1866
   48loPI   C1B  765  11.730   6.409  10.716 -0.3630  0.1714  0.0890
   48loPI   C2B  766  11.664   6.462  10.290 -0.1066  0.1208  0.0250
   48loPI   C3B  767  11.642   6.431   9.953  0.0512 -0.2713 -0.1155
   48loPI   C4B  768  11.606   6.527   9.577  0.0349  0.0571 -0.0421
   49loPI    C1  769   0.267   4.989  11.792  0.1143  0.3857 -0.0324
   49loPI    C2  770   0.269   4.752  11.470 -0.0719  0.0106  0.2335
   49loPI    C3  771   0.614   4.863  11.639  0.0299  0.2641 -0.1259
   49loPI   PO4  772   0.097   5.133  11.721 -0.0247  0.0324  0.0759
   49loPI   GL1  773   0.081   5.371  11.341 -0.2323  0.0652 -0.2529
   49loPI   GL2  774  -0.171   5.369  11.350  0.2414 -0.0367  0.0208
   49loPI   C1A  775   0.212   5.527  10.941 -0.0580  0.0559 -0.2070
   49loPI   C2A  776   0.274   5.448  10.464  0.2919 -0.1270 -0.0904
   49loPI   C3A  777   0.423   5.472  10.007 -0.1433  0.0289  0.0676
   49loPI   C4A  778   0.459   5.403   9.697 -0.0027 -0.6384  0.2558
   49loPI   C5A  779   0.227   5.340   9.296  0.0771  0.0504  0.0142
   49loPI   C6A  780   0.086   5.146   8.926 -0.2706 -0.0721  0.0217
   49loPI   C1B  781  -0.248   5.597  11.017 -0.0755 -0.1351  0.0798
   49loPI   C2B  782  -0.206   5.488  10.634  0.3193  0.0242 -0.3006
   49loPI   C3B  783  -0.161   5.518  10.200 -0.0469 -0.1122  0.1698
   49loPI   C4B  784  -0.054   5.488   9.807 -0.0052  0.2588 -0.1332
   50loPI    C1  785  16.619  13.392  11.661  0.0379  0.0508  0.0578
   50loPI    C2  786  16.816  13.411  12.009  0.1669 -0.1485 -0.0025
   50loPI    C3  787  16.649  13.066  11.892 -0.0619 -0.0277 -0.0386
   50loPI   PO4  788  16.877  13.518  11.433 -0.1172 -0.1423  0.0259
   50loPI   GL1  789  16.818  13.539  10.976  0.0152 -0.1179 -0.0047
   50loPI   GL2  790  16.818  13.877  10.877  0.1065  0.1037  0.0713
   50loPI   C1A  791  17.013  13.376  10.648 -0.0018 -0.0496 -0.1199
   50loPI   C2A  792  16.776  13.387  10.259  0.2905 -0.0059  0.1322
   50loPI   C3A  793  16.751  13.455   9.800  0.1802 -0.2070  0.0595
   50loPI   C4A  794  16.861  13.510   9.351  0.0437  0.0276  0.1170
   50loPI   C5A  795  16.969  13.594   8.969 -0.0703  0.1464  0.1747
   50loPI   C6A  796  17.252  13.733   8.662  0.0826  0.3625  0.2592
   50loPI   C1B  797  16.679  13.828  10.492  0.2682 -0.0466  0.1323
   50loPI   C2B  798  16.583  13.900  10.001  0.1708  0.2436 -0.0904
   50loPI   C3B  799  16.527  13.830   9.488  0.0942 -0.2890 -0.0457
   50loPI   C4B  800  16.469  13.986   9.106 -0.3280  0.1040  0.0643
   51loPI    C1  801   2.039   3.930  12.155  0.1347 -0.0819 -0.0670
   51loPI    C2  802   2.351   3.846  12.391 -0.0578  0.0961  0.2596
   51loPI    C3  803   2.104   4.145  12.487 -0.2223  0.0796 -0.0975
   51loPI   PO4  804   2.087   3.926  11.848  0.0453 -0.1017  0.1745
   51loPI   GL1  805   1.884   3.931  11.480 -0.1228 -0.0832  0.2189
   51loPI   GL2  806   1.875   4.325  11.571 -0.0021 -0.0144 -0.0598
   51loPI   C1A  807   1.961   3.692  11.106  0.0111  0.1492  0.0395
   51loPI   C2A  808   1.876   3.561  10.614  0.0620  0.0335 -0.1787
   51loPI   C3A  809   1.884   3.503  10.160  0.2686  0.2056  0.2797
   51loPI   C4A  810   1.916   3.416   9.731 -0.0880  0.0465  0.2338
   51loPI   C5A  811   1.631   3.422   9.362 -0.0010 -0.0565 -0.0689
   51loPI   C6A  812   1.425   3.632   9.013 -0.0547 -0.0462 -0.0720
   51loPI   C1B  813   1.901   4.408  11.167 -0.1739  0.2187 -0.0975
   51loPI   C2B  814   2.030   4.375  10.766 -0.5212 -0.2545 -0.1013
   51loPI   C3B  815   2.009   4.409  10.376 -0.1819 -0.2099  0.1271
   51loPI   C4B  816   1.989   4.429   9.857 -0.0882  0.1226  0.1856
   52loPI    C1  817   7.275   8.335  11.601  0.1081  0.0959  0.0357
   52loPI    C2  818   7.323   8.638  11.858 -0.2260  0.0507  0.1563
   52loPI    C3  819   6.986   8.422  11.864 -0.1555 -0.0758 -0.1909
   52loPI   PO4  820   7.269   8.419  11.358 -0.1156 -0.2871  0.0426
   52loPI   GL1  821   7.088   8.646  11.071  0.1392 -0.2083  0.2557
   52loPI   GL2  822   6.750   8.685  11.096 -0.0606 -0.0162  0.0811
   52loPI   C1A  823   7.113   8.567  10.767  0.1334  0.2112 -0.0157
   52loPI   C2A  824   7.230   8.575  10.382  0.0416 -0.1002 -0.0968
   52loPI   C3A  825   7.168   8.563   9.986 -0.1773 -0.2153  0.2948
   52loPI   C4A  826   7.214   8.635   9.556  0.0031 -0.3206  0.1095
   52loPI   C5A  827   7.551   8.969   9.292  0.0212  0.4357  0.3483
   52loPI   C6A  828   7.692   9.367   9.112  0.0917  0.2326  0.1268
   52loPI   C1B  829   6.562   8.616  10.680 -0.0658  0.0797 -0.3557
   52loPI   C2B  830   6.618   8.570  10.234  0.3793  0.1308  0.1457
   52loPI   C3B  831   6.536   8.275   9.831  0.1356  0.1677  0.0139
   52loPI   C4B  832   6.207   8.045   9.674  0.2468  0.1141 -0.1717
   53loPI    C1  833   1.469   9.955  11.585 -0.0156  0.0130 -0.0570
   53loPI    C2  834   1.350   9.997  11.965 -0.3053  0.1948 -0.1643
   53loPI    C3  835   1.080   9.932  11.677 -0.0656 -0.2011 -0.3088
   53loPI   PO4  836   1.617   9.823  11.570  0.1205  0.2197  0.0566
   53loPI   GL1  837   1.753   9.610  11.306 -0.0855 -0.1778  0.1416
   53loPI   GL2  838   1.687   9.274  11.143  0.3201  0.2135 -0.0512
   53loPI   C1A  839   1.826   9.774  10.921  0.0871 -0.0210 -0.0892
   53loPI   C2A  840   1.851   9.894  10.530 -0.0737  0.1640 -0.1498
   53loPI   C3A  841   1.794   9.957  10.080  0.1093 -0.0930  0.0346
   53loPI   C4A  842   1.828   9.944   9.602 -0.1102 -0.3339  0.0386
   53loPI   C5A  843   1.807   9.698   9.192 -0.0133  0.1635  0.0582
   53loPI   C6A  844   1.443   9.673   9.061 -0.0625 -0.0303  0.0461
   53loPI   C1B  845   1.627   9.382  10.652 -0.2054  0.0506  0.0295
   53loPI   C2B  846   1.595   9.455  10.183  0.2757 -0.0453  0.1248
   53loPI   C3B  847   1.535   9.498   9.723  0.1897  0.1890  0.0037
   53loPI   C4B  848   1.182   9.465   9.392 -0.0217  0.1545 -0.0476
   54loPI    C1  849   4.465   5.343  11.691 -0.1155 -0.1737 -0.0692
   54loPI    C2  850   4.727   5.063  11.577  0.0047 -0.1274  0.0886
   54loPI    C3  851   4.561   5.046  11.941  0.1035  0.0714  0.1443
   54loPI   PO4  852   4.533   5.584  11.633 -0.0274  0.2037 -0.0943
   54loPI   GL1  853   4.439   6.022  11.323  0.0887 -0.2311 -0.1022
   54loPI   GL2  854   4.044   5.848  11.197  0.0751  0.0173 -0.2897
   54loPI   C1A  855   4.341   6.224  10.912  0.1658  0.1247  0.2405
   54loPI   C2A  856   4.215   6.134  10.520  0.2293  0.0657  0.2667
   54loPI   C3A  857   4.281   6.139  10.109 -0.0345 -0.2326  0.0009
   54loPI   C4A  858   4.302   6.004   9.735 -0.1159 -0.2485  0.0790
   54loPI   C5A  859   3.964   5.985   9.394 -0.0034 -0.1810 -0.0465
   54loPI   C6A  860   3.603   6.229   9.197 -0.0810 -0.1261  0.0202
   54loPI   C1B  861   4.023   5.732  10.768  0.0827  0.1004  0.1087
   54loPI   C2B  862   3.975   5.702  10.312 -0.0541 -0.0039 -0.3639
   54loPI   C3B  863   3.906   5.711   9.940 -0.1332  0.1645  0.1303
   54loPI   C4B  864   4.023   5.539   9.586  0.1998 -0.2485 -0.1305
   55loPI    C1  865  17.028  16.656  12.044  0.0608 -0.0342  0.0745
   55loPI    C2  866  16.900  16.466  12.372  0.0849 -0.0625  0.0674
   55loPI    C3  867  17.201  16.314  12.157 -0.0886 -0.1697 -0.1017
   55loPI   PO4  868  16.820  16.659  11.866  0.3263 -0.0167  0.0417
   55loPI   GL1  869  16.839  16.826  11.431 -0.1472 -0.2023 -0.0244
   55loPI   GL2  870  16.641  16.538  11.354  0.1895  0.1625  0.0703
   55loPI   C1A  871  16.973  16.779  10.988 -0.1930 -0.1117 -0.2337
   55loPI   C2A  872  16.871  16.597  10.510  0.0761 -0.1489  0.0128
   55loPI   C3A  873  16.868  16.657  10.116  0.2218  0.0455  0.1988
   55loPI   C4A  874  16.777  16.617   9.640  0.0559  0.0054  0.1608
   55loPI   C5A  875  16.695  16.557   9.246 -0.0457  0.1054  0.0770
   55loPI   C6A  876  16.723  16.769   8.842 -0.1296 -0.1028  0.2587
   55loPI   C1B  877  16.481  16.675  11.029  0.1589  0.1202  0.1944
   55loPI   C2B  878  16.315  16.703  10.483 -0.3055 -0.0153  0.0290
   55loPI   C3B  879  16.332  16.673  10.094  0.0555 -0.0547  0.2502
   55loPI   C4B  880  16.213  16.640   9.641 -0.0079  0.0559 -0.0021
   56loPI    C1  881  13.202   5.280  11.470  0.0888 -0.0562 -0.0646
   56loPI    C2  882  12.968   5.081  11.726  0.0529 -0.0870 -0.1214
   56loPI    C3  883  13.060   5.464  11.796 -0.1947 -0.0092 -0.2117
   56loPI   PO4  884  13.414   5.133  11.433  0.0493 -0.2247 -0.0698
   56loPI   GL1  885  13.653   4.972  11.091 -0.0493  0.0644  0.2112
   56loPI   GL2  886  13.622   4.704  10.892 -0.0594  0.1195  0.0530
   56loPI   C1A  887  13.690   5.247  10.769  0.0858  0.0987 -0.3358
   56loPI   C2A  888  13.669   5.305  10.345  0.1634  0.0999  0.0092
   56loPI   C3A  889  13.782   5.347   9.939  0.1587 -0.0123  0.3991
   56loPI   C4A  890  13.699   5.341   9.536  0.0788  0.0628 -0.1588
   56loPI   C5A  891  13.672   5.562   9.286 -0.0814 -0.1985 -0.3932
   56loPI   C6A  892  13.996   5.773   9.039 -0.2548 -0.4366  0.4440
   56loPI   C1B  893  13.522   4.867  10.496  0.0543  0.1194  0.0122
   56loPI   C2B  894  13.520   4.943   9.991 -0.1240 -0.1422 -0.2426
   56loPI   C3B  895  13.389   4.957   9.583 -0.1137  0.1615  0.0679
   56loPI   C4B  896  13.418   5.148   9.134 -0.1324 -0.0610  0.1664
   57loPI    C1  897  15.035  13.887  11.969 -0.2200 -0.1449  0.0653
   57loPI    C2  898  14.804  14.172  12.130 -0.1263 -0.1441  0.1995
   57loPI    C3  899  15.190  14.246  12.053 -0.0707 -0.2717  0.3477
   57loPI   PO4  900  14.941  13.824  11.684 -0.1054 -0.0817 -0.2163
   57loPI   GL1  901  15.031  13.671  11.208 -0.0609 -0.0419  0.0572
   57loPI   GL2  902  15.232  13.524  11.247  0.0947 -0.1589 -0.0780
   57loPI   C1A  903  14.781  13.671  10.834 -0.2581 -0.1185  0.0329
   57loPI   C2A  904  14.768  13.618  10.444 -0.1101 -0.0218  0.0098
   57loPI   C3A  905  14.713  13.609  10.039 -0.2126 -0.1683  0.0555
   57loPI   C4A  906  14.736  13.512   9.593  0.2762 -0.1013  0.1797
   57loPI   C5A  907  14.664  13.591   9.146  0.0165 -0.1290 -0.0438
   57loPI   C6A  908  14.272  13.776   9.051  0.0307  0.1607 -0.4349
   57loPI   C1B  909  15.306  13.558  10.783  0.1990 -0.1577 -0.1651
   57loPI   C2B  910  15.285  13.592  10.386 -0.0906 -0.0235  0.0741
   57loPI   C3B  911  15.162  13.432  10.006 -0.3053 -0.3745 -0.0995
   57loPI   C4B  912  15.269  13.500   9.628  0.0705 -0.3003  0.0597
   58loPI    C1  913   6.622   5.054  11.777  0.0302 -0.1378 -0.1301
   58loPI    C2  914   6.757   5.382  11.962 -0.0989  0.0183 -0.3094
   58loPI    C3  915   6.695   5.047  12.171 -0.0134  0.1214 -0.1155
   58loPI   PO4  916   6.729   5.119  11.483 -0.0347 -0.1090  0.0275
   58loPI   GL1  917   7.139   5.183  11.183 -0.2415  0.1303 -0.0688
   58loPI   GL2  918   6.945   4.968  10.994  0.1824  0.0575  0.1198
   58loPI   C1A  919   7.124   5.335  10.718 -0.1450 -0.1869  0.1065
   58loPI   C2A  920   7.120   5.326  10.268 -0.0617 -0.0039  0.0378
   58loPI   C3A  921   7.125   5.356   9.884 -0.2652  0.1960 -0.0683
   58loPI   C4A  922   7.097   5.360   9.536  0.0083  0.3466  0.1658
   58loPI   C5A  923   6.883   5.510   9.090 -0.2748 -0.3148 -0.0343
   58loPI   C6A  924   7.172   5.713   8.761 -0.0845 -0.0674  0.2916
   58loPI   C1B  925   6.836   4.932  10.683 -0.1989  0.0660 -0.0307
   58loPI   C2B  926   6.833   4.889  10.237 -0.0193 -0.1088 -0.1396
   58loPI   C3B  927   6.792   4.926   9.849  0.0372 -0.2011 -0.0320
   58loPI   C4B  928   6.753   4.946   9.422  0.0426 -0.3203 -0.0280
   59loPI    C1  929   3.749  14.754  11.523  0.0635 -0.1362  0.1412
   59loPI    C2  930   4.086  14.919  11.660  0.0298 -0.0162  0.0809
   59loPI    C3  931   3.744  15.125  11.670  0.0319  0.0058 -0.2081
   59loPI   PO4  932   3.822  14.613  11.258  0.2824  0.1035 -0.0221
   59loPI   GL1  933   3.754  14.528  10.939  0.2155 -0.1198 -0.2332
   59loPI   GL2  934   3.630  14.838  10.738  0.1222 -0.1136 -0.0254
   59loPI   C1A  935   3.890  14.442  10.505  0.0156  0.0855  0.0181
   59loPI   C2A  936   3.878  14.395  10.047  0.1466  0.0415  0.0563
   59loPI   C3A  937   3.870  14.396   9.630 -0.0096 -0.2809 -0.0914
   59loPI   C4A  938   3.885  14.442   9.227 -0.0567  0.0994 -0.3298
   59loPI   C5A  939   4.081  14.549   8.823  0.2274  0.0563  0.1364
   59loPI   C6A  940   4.449  14.757   8.730  0.2924 -0.3994  0.0240
   59loPI   C1B  941   3.675  14.849  10.312 -0.1032 -0.0763 -0.3690
   59loPI   C2B  942   3.680  14.767   9.863  0.0809  0.0349 -0.0170
   59loPI   C3B  943   3.529  14.916   9.443  0.2097 -0.0378 -0.1899
   59loPI   C4B  944   3.515  14.987   8.942 -0.3264  0.1312  0.0272
   60loPI    C1  945   0.793   8.095  12.234 -0.1191  0.2387  0.1578
   60loPI    C2  946   0.412   8.210  12.274 -0.1068  0.2357  0.2855
   60loPI    C3  947   0.708   8.452  12.392 -0.0627  0.3123  0.0242
   60loPI   PO4  948   0.796   7.861  11.978  0.0067 -0.0961 -0.0716
   60loPI   GL1  949   0.916   7.855  11.552  0.0309  0.0888  0.1851
   60loPI   GL2  950   1.080   8.015  11.431  0.0969 -0.0368  0.1272
   60loPI   C1A  951   0.854   7.662  11.093  0.1408 -0.1999  0.0252
   60loPI   C2A  952   0.850   7.690  10.664  0.2143 -0.1867  0.1428
   60loPI   C3A  953   1.002   7.564  10.258  0.2217  0.0885 -0.3242
   60loPI   C4A  954   0.990   7.678   9.810  0.0606  0.1972  0.0782
   60loPI   C5A  955   0.729   7.674   9.342 -0.1379  0.2075  0.0015
   60loPI   C6A  956   0.705   7.560   8.915  0.3333  0.1820  0.1342
   60loPI   C1B  957   1.171   8.108  11.018 -0.0731 -0.2420  0.1061
   60loPI   C2B  958   1.201   8.076  10.525 -0.4208 -0.1326 -0.1298
   60loPI   C3B  959   1.317   8.047  10.042  0.1054 -0.2998 -0.3772
   60loPI   C4B  960   1.300   8.186   9.631  0.1010 -0.0652 -0.0742
   61loPI    C1  961   0.313  11.854  11.705  0.1970  0.0331  0.0549
   61loPI    C2  962   0.563  11.662  11.951  0.0605 -0.0246  0.1497
   61loPI    C3  963   0.188  11.740  12.068 -0.0211 -0.0975 -0.0589
   61loPI   PO4  964   0.304  11.772  11.516  0.1039  0.1079  0.1627
   61loPI   GL1  965   0.129  11.589  11.196  0.0418 -0.1749 -0.1038
   61loPI   GL2  966   0.379  11.534  11.036 -0.0613 -0.0333  0.0472
   61loPI   C1A  967  -0.017  11.202  10.980 -0.1833  0.2269  0.3102
   61loPI   C2A  968  -0.085  11.077  10.509  0.1371  0.3233 -0.2490
   61loPI   C3A  969  -0.120  11.032  10.059 -0.0677 -0.0937  0.1505
   61loPI   C4A  970  -0.181  11.046   9.599 -0.2144 -0.3437  0.3427
   61loPI   C5A  971  -0.392  11.165   9.229 -0.1124 -0.2341 -0.3111
   61loPI   C6A  972  -0.782  11.300   9.141 -0.1569 -0.4113 -0.4034
   61loPI   C1B  973   0.221  11.568  10.622  0.0392  0.0692  0.4537
   61loPI   C2B  974   0.248  11.377  10.267 -0.4451 -0.0803 -0.1590
   61loPI   C3B  975   0.116  11.451   9.941  0.1522  0.0949 -0.2077
   61loPI   C4B  976   0.014  11.491   9.543  0.0598 -0.0019 -0.2017
   62loPI    C1  977  13.067   6.172  11.802 -0.0188  0.3000  0.2686
   62loPI    C2  978  13.461   6.107  11.822 -0.0934 -0.1277  0.4394
   62loPI    C3  979  13.283   6.339  12.094  0.0344  0.0441  0.3781
   62loPI   PO4  980  13.042   6.293  11.533  0.2776 -0.1566 -0.3023
   62loPI   GL1  981  12.871   6.109  11.171 -0.1456 -0.0446  0.2177
   62loPI   GL2  982  13.204   6.170  11.088  0.2490 -0.3604  0.1867
   62loPI   C1A  983  12.741   6.262  10.737 -0.0918 -0.2022  0.1711
   62loPI   C2A  984  12.679   6.353  10.281  0.2652 -0.4792 -0.1229
   62loPI   C3A  985  12.657   6.326   9.817  0.0892  0.1062  0.0402
   62loPI   C4A  986  12.681   6.483   9.467  0.1567  0.0407  0.1300
   62loPI   C5A  987  12.759   6.392   9.064  0.2194  0.3615 -0.2358
   62loPI   C6A  988  12.992   6.164   8.765  0.0783 -0.1262 -0.0013
   62loPI   C1B  989  13.253   6.195  10.663  0.1855 -0.2151  0.0256
   62loPI   C2B  990  13.225   6.354  10.297 -0.0341  0.0648  0.2262
   62loPI   C3B  991  13.266   6.319   9.880  0.1231  0.1019  0.0321
   62loPI   C4B  992  13.208   6.414   9.402 -0.1310 -0.1780  0.0845
   63loPI    C1  993  11.833  10.582  11.927  0.0060 -0.2276  0.0101
   63loPI    C2  994  11.997  10.850  12.174 -0.2537  0.0189 -0.0793
   63loPI    C3  995  11.806  10.532  12.323 -0.0806 -0.0354  0.0296
   63loPI   PO4  996  12.074  10.502  11.683 -0.3330 -0.1362 -0.3373
   63loPI   GL1  997  12.086  10.533  11.218  0.3143 -0.0889  0.1763
   63loPI   GL2  998  11.755  10.426  11.308  0.1855  0.0827  0.0590
   63loPI   C1A  999  12.206  10.605  10.820 -0.2659 -0.0354 -0.0438
   63loPI   C2A 1000  12.178  10.505  10.411  0.1933 -0.0409 -0.1624
   63loPI   C3A 1001  12.180  10.490   9.987  0.3357  0.2134 -0.1370
   63loPI   C4A 1002  12.199  10.522   9.672  0.2492 -0.1446 -0.2016
   63loPI   C5A 1003  12.057  10.630   9.327 -0.1145 -0.0091  0.2393
   63loPI   C6A 1004  11.761  10.931   9.201 -0.2932 -0.0971 -0.0147
   63loPI   C1B 1005  11.665  10.549  10.925  0.1422 -0.1359  0.1839
   63loPI   C2B 1006  11.616  10.579  10.414 -0.0046  0.3295  0.1021
   63loPI   C3B 1007  11.630  10.532   9.987 -0.3525  0.1931 -0.1445
   63loPI   C4B 1008  11.628  10.533   9.614  0.3288 -0.1252  0.2491
   64loPI    C1 1009  14.664   9.216  12.010 -0.0982 -0.1225 -0.0321
   64loPI    C2 1010  14.511   9.281  12.374 -0.0488 -0.0668 -0.0212
   64loPI    C3 1011  14.903   9.215  12.331 -0.0173  0.1541 -0.0887
   64loPI   PO4 1012  14.441   9.070  11.870  0.1308  0.0297 -0.3200
   64loPI   GL1 1013  14.327   9.148  11.432 -0.2113 -0.1619  0.2942
   64loPI   GL2 1014  14.475   9.374  11.287  0.1959  0.4967  0.1780
   64loPI   C1A 1015  13.986   9.176  11.192 -0.0513  0.1902 -0.1364
   64loPI   C2A 1016  13.920   9.084  10.738 -0.2143  0.1271  0.0501
   64loPI   C3A 1017  13.943   9.031  10.301 -0.0099 -0.1609 -0.1388
   64loPI   C4A 1018  14.019   9.095   9.912 -0.0562  0.1625 -0.0703
   64loPI   C5A 1019  13.925   9.031   9.551 -0.0890  0.2806  0.0419
   64loPI   C6A 1020  13.706   8.888   9.187 -0.1357 -0.2648  0.0338
   64loPI   C1B 1021  14.480   9.096  10.970  0.0189  0.1658  0.2567
   64loPI   C2B 1022  14.466   9.011  10.508  0.0850  0.1594  0.2473
   64loPI   C3B 1023  14.437   8.975  10.054 -0.0463 -0.1473  0.0124
   64loPI   C4B 1024  14.394   8.883   9.672  0.0966  0.3475 -0.0727
   65loPI    C1 1025  16.871   7.068  11.694  0.0972 -0.1188  0.1811
   65loPI    C2 1026  16.803   6.875  12.038 -0.0713 -0.0273  0.2003
   65loPI    C3 1027  16.498   6.966  11.797 -0.0142  0.3517  0.2649
   65loPI   PO4 1028  17.088   7.224  11.722 -0.0818 -0.1864  0.0477
   65loPI   GL1 1029  17.274   7.496  11.425 -0.0519  0.0133 -0.0536
   65loPI   GL2 1030  17.469   7.786  11.377 -0.2539  0.1328  0.0508
   65loPI   C1A 1031  17.079   7.302  11.065 -0.3891  0.2523 -0.3476
   65loPI   C2A 1032  17.101   7.338  10.651 -0.3947  0.1803  0.0240
   65loPI   C3A 1033  17.165   7.385  10.132  0.0008  0.1634  0.1779
   65loPI   C4A 1034  17.165   7.378   9.675  0.0270  0.2176 -0.0195
   65loPI   C5A 1035  17.348   7.376   9.316  0.0782 -0.0436  0.1173
   65loPI   C6A 1036  17.229   7.540   8.906  0.0758 -0.0557 -0.0180
   65loPI   C1B 1037  17.401   7.701  10.983  0.0930 -0.1578 -0.1889
   65loPI   C2B 1038  17.484   7.733  10.519  0.1623 -0.1761 -0.1133
   65loPI   C3B 1039  17.505   7.834  10.107  0.2499  0.0761 -0.2101
   65loPI   C4B 1040  17.524   7.742   9.703  0.2522  0.2177 -0.0469
   66loPI    C1 1041   7.225  11.049  11.874 -0.0814 -0.1549 -0.0414
   66loPI    C2 1042   7.318  10.883  12.226 -0.1013 -0.1375 -0.0280
   66loPI    C3 1043   7.262  11.278  12.200 -0.2200 -0.1539 -0.0259
   66loPI   PO4 1044   7.302  10.840  11.742  0.0821 -0.1045  0.0370
   66loPI   GL1 1045   7.626  10.897  11.469 -0.0132  0.1721  0.2574
   66loPI   GL2 1046   7.463  10.579  11.372  0.0149  0.1430 -0.1417
   66loPI   C1A 1047   7.912  11.066  11.131  0.1839  0.0773 -0.1670
   66loPI   C2A 1048   7.818  11.126  10.705 -0.3008  0.0736 -0.1233
   66loPI   C3A 1049   7.859  11.276  10.303 -0.0897  0.0188  0.1603
   66loPI   C4A 1050   7.800  11.180   9.834 -0.1537  0.0921 -0.1687
   66loPI   C5A 1051   7.777  11.059   9.384  0.1176  0.1026 -0.0755
   66loPI   C6A 1052   7.761  11.161   8.923 -0.0687 -0.2244 -0.1217
   66loPI   C1B 1053   7.497  10.777  10.998 -0.1353  0.0176 -0.0739
   66loPI   C2B 1054   7.556  10.790  10.512  0.0759 -0.0092 -0.0424
   66loPI   C3B 1055   7.537  10.818  10.046 -0.0623  0.2697  0.1797
   66loPI   C4B 1056   7.443  10.783   9.622  0.2055  0.0572  0.2860
   67loPI    C1 1057   7.235   7.869  11.731 -0.0161  0.0270  0.0998
   67loPI    C2 1058   7.450   7.584  11.912  0.0056 -0.0343 -0.0212
   67loPI    C3 1059   7.594   7.956  11.884  0.0859 -0.0699 -0.0812
   67loPI   PO4 1060   7.152   7.827  11.478  0.0272  0.2252 -0.0310
   67loPI   GL1 1061   7.139   8.032  11.105  0.0299 -0.1247  0.1925
   67loPI   GL2 1062   6.820   8.128  10.995  0.2842 -0.0122  0.0075
   67loPI   C1A 1063   7.302   8.098  10.781 -0.1372 -0.0919  0.4819
   67loPI   C2A 1064   7.319   8.042  10.312 -0.1288 -0.1086 -0.1861
   67loPI   C3A 1065   7.427   8.077   9.795 -0.0484 -0.2613 -0.0899
   67loPI   C4A 1066   7.412   8.154   9.386 -0.0561 -0.1220  0.0972
   67loPI   C5A 1067   7.343   8.589   9.028  0.3754 -0.2636  0.2494
   67loPI   C6A 1068   7.222   8.966   8.832 -0.0584 -0.3004  0.1348
   67loPI   C1B 1069   6.874   8.167  10.547 -0.1464 -0.1091 -0.1530
   67loPI   C2B 1070   6.901   8.097  10.065  0.0165  0.0567 -0.1311
   67loPI   C3B 1071   6.952   8.139   9.621  0.0375 -0.2729  0.2160
   67loPI   C4B 1072   6.667   7.883   9.462 -0.0232 -0.0132 -0.1612
   68loPI    C1 1073   3.587   5.036  11.534 -0.2115  0.1927 -0.0392
   68loPI    C2 1074   3.464   4.705  11.722  0.1897 -0.0580 -0.2045
   68loPI    C3 1075   3.392   5.065  11.882 -0.0276 -0.2347  0.1050
   68loPI   PO4 1076   3.766   5.022  11.466  0.2189  0.0267  0.0751
   68loPI   GL1 1077   3.645   4.794  11.037  0.2946 -0.0201 -0.3850
   68loPI   GL2 1078   3.295   4.725  11.154  0.0252 -0.0180 -0.0026
   68loPI   C1A 1079   3.856   4.757  10.671  0.1016  0.0683 -0.0800
   68loPI   C2A 1080   3.882   4.719  10.179  0.1740 -0.1010 -0.1679
   68loPI   C3A 1081   3.859   4.887   9.795 -0.0687  0.0624 -0.0155
   68loPI   C4A 1082   3.807   4.834   9.434  0.1615  0.0139  0.1245
   68loPI   C5A 1083   3.588   4.572   9.087 -0.1221  0.3136 -0.0797
   68loPI   C6A 1084   3.836   4.210   8.899 -0.1440 -0.0991  0.1125
   68loPI   C1B 1085   3.292   4.796  10.739  0.3509 -0.0913 -0.2666
   68loPI   C2B 1086   3.358   4.749  10.327  0.0955  0.4833 -0.2158
   68loPI   C3B 1087   3.401   4.828   9.967 -0.1732  0.2916 -0.0031
   68loPI   C4B 1088   3.336   4.796   9.519  0.0078 -0.1658  0.2344
   69loPI    C1 1089  11.210  14.237  12.013 -0.1235 -0.3565 -0.3254
   69loPI    C2 1090  11.413  14.016  12.278 -0.0219 -0.0885 -0.1759
   69loPI    C3 1091  11.014  14.040  12.300 -0.0095 -0.0224 -0.0113
   69loPI   PO4 1092  11.271  14.150  11.719 -0.0215  0.1785  0.1004
   69loPI   GL1 1093  11.195  14.028  11.341 -0.2827  0.4767  0.3967
   69loPI   GL2 1094  10.960  14.232  11.260 -0.1093 -0.0310 -0.0524
   69loPI   C1A 1095  11.151  13.697  11.043  0.2336  0.1767  0.0861
   69loPI   C2A 1096  11.174  13.597  10.712 -0.1873  0.1494  0.0816
   69loPI   C3A 1097  11.043  13.793  10.259 -0.2049  0.1267  0.0710
   69loPI   C4A 1098  11.147  13.723   9.784  0.0470 -0.0827 -0.2584
   69loPI   C5A 1099  11.245  13.720   9.302  0.2402  0.2502 -0.2260
   69loPI   C6A 1100  11.567  13.837   8.947 -0.0943  0.1616  0.1554
   69loPI   C1B 1101  10.921  14.131  10.841 -0.0504  0.3830 -0.2884
   69loPI   C2B 1102  10.884  14.230  10.322 -0.2161 -0.0076 -0.3580
   69loPI   C3B 1103  10.893  14.210   9.892  0.1599  0.0106  0.0844
   69loPI   C4B 1104  11.065  14.135   9.515  0.2391  0.1385 -0.2536
   70loPI    C1 1105   2.249   8.925  11.859 -0.1158 -0.1686 -0.0172
   70loPI    C2 1106   2.458   8.801  12.176 -0.0684 -0.0204  0.0104
   70loPI    C3 1107   2.268   8.535  11.945  0.0950 -0.1505  0.0232
   70loPI   PO4 1108   2.331   9.050  11.736 -0.2255 -0.0837 -0.3695
   70loPI   GL1 1109   2.512   9.004  11.244  0.1968  0.2227  0.2579
   70loPI   GL2 1110   2.150   9.107  11.287  0.1583  0.2216 -0.1235
   70loPI   C1A 1111   2.389   8.910  10.786 -0.2222  0.1887 -0.0468
   70loPI   C2A 1112   2.396   8.988  10.356  0.1449 -0.0450 -0.1950
   70loPI   C3A 1113   2.350   8.957   9.964 -0.0293 -0.2544 -0.0757
   70loPI   C4A 1114   2.387   8.937   9.498  0.1659 -0.2124  0.1176
   70loPI   C5A 1115   2.229   9.046   9.123  0.1210 -0.3894  0.0832
   70loPI   C6A 1116   2.380   9.073   8.674  0.1339 -0.2043 -0.0113
   70loPI   C1B 1117   2.150   9.290  10.908  0.1942  0.0220 -0.0781
   70loPI   C2B 1118   2.138   9.401  10.422  0.1652  0.2898 -0.2124
   70loPI   C3B 1119   2.052   9.508   9.969 -0.1631 -0.4178  0.1247
   70loPI   C4B 1120   2.155   9.482   9.517  0.1438  0.0970  0.1121
   71loPI    C1 1121  15.645   6.122  11.851 -0.0935  0.0532 -0.0037
   71loPI    C2 1122  15.531   6.024  12.221 -0.3436  0.2300 -0.0311
   71loPI    C3 1123  15.915   6.108  12.146 -0.2867  0.1676  0.1813
   71loPI   PO4 1124  15.592   5.957  11.629 -0.1708 -0.2699 -0.0495
   71loPI   GL1 1125  15.486   5.812  11.127 -0.0958 -0.0734 -0.2101
   71loPI   GL2 1126  15.519   6.101  11.106  0.1281 -0.0356  0.0238
   71loPI   C1A 1127  15.799   5.582  10.872  0.0204  0.2855 -0.0883
   71loPI   C2A 1128  15.911   5.609  10.492 -0.2586  0.2417 -0.0594
   71loPI   C3A 1129  15.833   5.525  10.114 -0.0630 -0.2009  0.0375
   71loPI   C4A 1130  15.971   5.581   9.659  0.0041  0.0970  0.1283
   71loPI   C5A 1131  16.047   5.428   9.271 -0.1371 -0.0777 -0.1395
   71loPI   C6A 1132  15.866   5.209   8.986  0.1872 -0.0373 -0.1797
   71loPI   C1B 1133  15.591   6.001  10.615  0.0167  0.0187 -0.2349
   71loPI   C2B 1134  15.708   6.002  10.144  0.0290  0.0753 -0.1483
   71loPI   C3B 1135  15.708   6.078   9.688 -0.4255  0.0550 -0.0113
   71loPI   C4B 1136  15.845   6.005   9.298 -0.0987 -0.0175  0.0807
   72loPI    C1 1137  16.412  11.671  11.816  0.1588  0.2536 -0.0582
   72loPI    C2 1138  16.714  11.775  12.056  0.3382  0.0585 -0.1960
   72loPI    C3 1139  16.653  11.390  11.967 -0.1568  0.0600  0.0972
   72loPI   PO4 1140  16.507  11.811  11.565 -0.1643  0.0962  0.1847
   72loPI   GL1 1141  16.755  11.896  11.272  0.1485 -0.2208 -0.0879
   72loPI   GL2 1142  16.690  11.546  11.156  0.4324 -0.1491  0.0411
   72loPI   C1A 1143  16.636  12.062  10.869 -0.1401  0.1543 -0.0301
   72loPI   C2A 1144  16.602  11.958  10.530  0.0100  0.0383  0.0230
   72loPI   C3A 1145  16.431  11.921  10.103 -0.0947  0.0204 -0.0910
   72loPI   C4A 1146  16.397  12.022   9.659 -0.0476 -0.1762 -0.1565
   72loPI   C5A 1147  16.564  12.079   9.265 -0.0206 -0.0338  0.3073
   72loPI   C6A 1148  16.755  12.332   8.983 -0.0953 -0.2909  0.2629
   72loPI   C1B 1149  16.794  11.570  10.737  0.1160  0.4653  0.1244
   72loPI   C2B 1150  16.817  11.495  10.316  0.1634 -0.1492 -0.1764
   72loPI   C3B 1151  16.612  11.447   9.967  0.2842 -0.0519  0.0279
   72loPI   C4B 1152  16.609  11.571   9.452  0.1778 -0.0257 -0.0036
   73loPI    C1 1153  12.623   5.465  11.480 -0.1101  0.2206 -0.4325
   73loPI    C2 1154  12.280   5.533  11.286 -0.4976 -0.0357  0.1356
   73loPI    C3 1155  12.363   5.166  11.423 -0.0305  0.0436  0.0810
   73loPI   PO4 1156  12.781   5.548  11.307 -0.0795 -0.2366 -0.1867
   73loPI   GL1 1157  13.011   5.419  11.056  0.0540 -0.1440  0.1443
   73loPI   GL2 1158  13.202   5.159  10.960 -0.3103 -0.2258 -0.0115
   73loPI   C1A 1159  13.007   5.731  10.685 -0.1116  0.1434 -0.2079
   73loPI   C2A 1160  12.957   5.877  10.350  0.0657 -0.0585 -0.0479
   73loPI   C3A 1161  12.922   5.967  10.034 -0.2721  0.1074 -0.0245
   73loPI   C4A 1162  12.906   5.993   9.575 -0.0686  0.2166 -0.3971
   73loPI   C5A 1163  13.119   5.979   9.171 -0.0808 -0.5136 -0.3323
   73loPI   C6A 1164  13.346   5.642   8.953  0.0426  0.0415  0.1635
   73loPI   C1B 1165  13.141   5.301  10.524  0.2636 -0.0507 -0.1450
   73loPI   C2B 1166  13.226   5.443  10.089 -0.0908 -0.3623 -0.1374
   73loPI   C3B 1167  13.187   5.436   9.717 -0.1077 -0.1419 -0.1583
   73loPI   C4B 1168  13.127   5.482   9.378 -0.5890  0.2215 -0.2658
   74loPI    C1 1169   9.314   2.201  11.783 -0.1565 -0.0212 -0.0757
   74loPI    C2 1170   9.626   2.295  12.016 -0.1285  0.1581 -0.1838
   74loPI    C3 1171   9.260   2.259  12.175 -0.0333 -0.1839 -0.0335
   74loPI   PO4 1172   9.364   2.294  11.503 -0.5342 -0.1081  0.1208
   74loPI   GL1 1173   9.051   2.339  11.176  0.0131 -0.1163 -0.2315
   74loPI   GL2 1174   8.748   2.157  11.122 -0.0068  0.2495 -0.0203
   74loPI   C1A 1175   9.113   2.342  10.805  0.0258  0.0759 -0.0746
   74loPI   C2A 1176   9.090   2.361  10.340  0.3285 -0.0610  0.2295
   74loPI   C3A 1177   9.098   2.395   9.985 -0.0825  0.1638  0.0994
   74loPI   C4A 1178   9.218   2.334   9.606  0.0274  0.2934  0.0707
   74loPI   C5A 1179   9.367   2.435   9.268 -0.2975  0.0979  0.1028
   74loPI   C6A 1180   9.155   2.579   8.970 -0.0957  0.1155  0.0590
   74loPI   C1B 1181   8.748   2.086  10.682 -0.0497  0.1316 -0.0667
   74loPI   C2B 1182   8.849   1.961  10.331  0.1884 -0.1741 -0.2066
   74loPI   C3B 1183   8.861   1.924   9.906 -0.1100 -0.0212  0.1662
   74loPI   C4B 1184   8.700   2.172   9.576  0.2894 -0.2286  0.0092
   75loPI    C1 1185   3.111  10.154  11.526  0.2164 -0.0426  0.0514
   75loPI    C2 1186   3.038  10.369  11.855  0.0826  0.0520 -0.0389
   75loPI    C3 1187   3.188   9.999  11.886  0.0566  0.0548  0.1284
   75loPI   PO4 1188   3.269  10.328  11.337 -0.1153 -0.1733  0.5462
   75loPI   GL1 1189   3.393  10.223  10.978  0.0340  0.0435  0.1044
   75loPI   GL2 1190   3.537   9.954  10.940  0.1295 -0.1275 -0.0928
   75loPI   C1A 1191   3.291  10.286  10.528  0.0593  0.0827  0.1307
   75loPI   C2A 1192   3.267  10.213  10.105  0.0974 -0.1657  0.1133
   75loPI   C3A 1193   3.161  10.347   9.682  0.0481 -0.1711  0.2216
   75loPI   C4A 1194   3.126  10.364   9.259  0.3132 -0.0075 -0.0308
   75loPI   C5A 1195   2.904  10.519   8.875  0.1778  0.0026 -0.2739
   75loPI   C6A 1196   2.795  10.568   8.468 -0.0926 -0.3300  0.1692
   75loPI   C1B 1197   3.529   9.712  10.585 -0.1749 -0.0677 -0.2486
   75loPI   C2B 1198   3.440   9.806  10.175 -0.2818  0.2335 -0.0840
   75loPI   C3B 1199   3.395   9.840   9.797  0.2159  0.1730 -0.0589
   75loPI   C4B 1200   3.366   9.831   9.447 -0.1532  0.3259 -0.2888
   76loPI    C1 1201   0.066   1.372  11.595 -0.1764  0.1413  0.0182
   76loPI    C2 1202   0.383   1.579  11.723 -0.1700 -0.0534  0.3260
   76loPI    C3 1203   0.244   1.272  11.938 -0.2689 -0.2794 -0.0514
   76loPI   PO4 1204   0.027   1.201  11.346  0.0528 -0.2705  0.0553
   76loPI   GL1 1205   0.065   1.304  10.997 -0.4043 -0.2166  0.2108
   76loPI   GL2 1206   0.312   1.302  10.802 -0.0024  0.1306 -0.0621
   76loPI   C1A 1207  -0.139   1.420  10.643  0.3809 -0.1809  0.3308
   76loPI   C2A 1208  -0.097   1.431  10.217 -0.1730 -0.0785  0.1198
   76loPI   C3A 1209  -0.035   1.485   9.813  0.1463 -0.2424 -0.0683
   76loPI   C4A 1210  -0.000   1.504   9.337  0.1651 -0.1371 -0.1719
   76loPI   C5A 1211   0.050   1.752   9.002 -0.3395 -0.0537  0.1602
   76loPI   C6A 1212  -0.059   1.894   8.725  0.0310 -0.1324 -0.2775
   76loPI   C1B 1213   0.438   1.431  10.497  0.1385  0.0160 -0.1050
   76loPI   C2B 1214   0.390   1.470  10.127 -0.0149 -0.1847 -0.0643
   76loPI   C3B 1215   0.351   1.234   9.646  0.0596 -0.0893 -0.0866
   76loPI   C4B 1216   0.491   1.491   9.319 -0.2795  0.2264 -0.0412
   77loPI    C1 1217   1.747   0.529  11.513  0.0922 -0.1046  0.1069
   77loPI    C2 1218   1.513   0.230  11.638  0.2814 -0.2481  0.1222
   77loPI    C3 1219   1.386   0.608  11.665 -0.0733 -0.3417 -0.1529
   77loPI   PO4 1220   1.856   0.373  11.271  0.1855 -0.0892 -0.2694
   77loPI   GL1 1221   1.725   0.258  10.918  0.1145  0.0949  0.1370
   77loPI   GL2 1222   1.662   0.481  10.767  0.1184  0.2477  0.3424
   77loPI   C1A 1223   1.619   0.014  10.544 -0.1230  0.1677  0.3844
   77loPI   C2A 1224   1.591  -0.104  10.144  0.0667  0.1213  0.1152
   77loPI   C3A 1225   1.687  -0.097   9.777 -0.2049  0.1536  0.3495
   77loPI   C4A 1226   1.640   0.043   9.331  0.1915 -0.3375 -0.1617
   77loPI   C5A 1227   1.714  -0.144   8.967 -0.1295 -0.1861  0.1166
   77loPI   C6A 1228   1.531  -0.207   8.551 -0.5892 -0.0043  0.0635
   77loPI   C1B 1229   1.591   0.439  10.334  0.0739  0.0875 -0.0774
   77loPI   C2B 1230   1.522   0.350   9.909 -0.0532 -0.1917  0.1858
   77loPI   C3B 1231   1.299   0.349   9.528  0.1228 -0.5128 -0.1423
   77loPI   C4B 1232   1.417   0.410   9.079  0.1449  0.1849 -0.1956
   78loPI    C1 1233  12.587  16.647  11.849 -0.0690  0.0460 -0.2057
   78loPI    C2 1234  12.524  17.003  12.019  0.0839 -0.0296  0.0139
   78loPI    C3 1235  12.255  16.710  12.064  0.0577 -0.0065  0.0089
   78loPI   PO4 1236  12.638  16.665  11.527  0.1678  0.1853  0.2083
   78loPI   GL1 1237  12.511  16.707  11.060 -0.1528 -0.2903 -0.0572
   78loPI   GL2 1238  12.310  16.564  11.009 -0.1976  0.1693 -0.0949
   78loPI   C1A 1239  12.842  16.566  10.845  0.0483 -0.3358 -0.2075
   78loPI   C2A 1240  12.823  16.511  10.356  0.0856 -0.0497 -0.0977
   78loPI   C3A 1241  12.902  16.482   9.860  0.1122 -0.0982  0.0948
   78loPI   C4A 1242  12.935  16.301   9.454 -0.1810  0.0030  0.0171
   78loPI   C5A 1243  12.757  16.064   9.119  0.1672 -0.2547 -0.0583
   78loPI   C6A 1244  12.376  15.887   9.119 -0.0734  0.2894 -0.2320
   78loPI   C1B 1245  12.239  16.543  10.546  0.0493 -0.0653  0.0299
   78loPI   C2B 1246  12.310  16.480  10.162 -0.0322 -0.1354 -0.0613
   78loPI   C3B 1247  12.379  16.476   9.714  0.0839  0.2513  0.0808
   78loPI   C4B 1248  12.339  16.326   9.313  0.3262 -0.2057 -0.1001
   79loPI    C1 1249  12.349  11.491  12.022  0.0156 -0.0457  0.0531
   79loPI    C2 1250  12.162  11.273  12.300 -0.1521  0.0374  0.0067
   79loPI    C3 1251  12.485  11.487  12.399  0.0283 -0.2482  0.0471
   79loPI   PO4 1252  12.297  11.388  11.736  0.0903 -0.0413 -0.0393
   79loPI   GL1 1253  12.282  11.161  11.292  0.0087 -0.0539  0.2233
   79loPI   GL2 1254  12.354  11.403  11.113 -0.1566 -0.0143 -0.0486
   79loPI   C1A 1255  12.531  10.974  11.000 -0.0011 -0.0389  0.0185
   79loPI   C2A 1256  12.528  10.930  10.592  0.1017 -0.0625 -0.0619
   79loPI   C3A 1257  12.485  10.964  10.194  0.0355  0.0176 -0.0344
   79loPI   C4A 1258  12.535  10.953   9.738 -0.0187 -0.1761 -0.2337
   79loPI   C5A 1259  12.365  10.945   9.437 -0.2668 -0.0314 -0.2222
   79loPI   C6A 1260  12.230  11.126   9.018 -0.2428  0.1859 -0.1387
   79loPI   C1B 1261  12.181  11.471  10.687  0.2897 -0.4263 -0.1103
   79loPI   C2B 1262  12.152  11.454  10.264 -0.2135  0.0107 -0.1404
   79loPI   C3B 1263  12.319  11.356   9.827 -0.1543  0.2468 -0.3238
   79loPI   C4B 1264  12.429  11.437   9.408 -0.0878  0.0604  0.1612
   80loPI    C1 1265   7.102  14.508  11.291  0.1255 -0.1715  0.1019
   80loPI    C2 1266   7.362  14.696  11.530 -0.0228 -0.1107  0.2172
   80loPI    C3 1267   6.988  14.631  11.655 -0.1162 -0.0334 -0.0183
   80loPI   PO4 1268   7.233  14.266  11.256  0.0418 -0.0901 -0.1492
   80loPI   GL1 1269   7.529  14.080  10.944 -0.0973  0.0475 -0.0390
   80loPI   GL2 1270   7.281  14.021  10.637 -0.0312  0.0066 -0.1122
   80loPI   C1A 1271   7.730  13.937  10.466 -0.1942 -0.1301  0.0830
   80loPI   C2A 1272   7.838  13.901  10.088  0.1276  0.3441  0.0952
   80loPI   C3A 1273   8.014  13.927   9.791 -0.2382 -0.1108  0.1238
   80loPI   C4A 1274   8.147  13.942   9.370 -0.2123  0.1119  0.0368
   80loPI   C5A 1275   8.300  13.673   9.062  0.0630  0.2444  0.0101
   80loPI   C6A 1276   8.477  13.278   9.070  0.2617 -0.0155 -0.0332
   80loPI   C1B 1277   7.191  13.930  10.213  0.2133  0.2127  0.0156
   80loPI   C2B 1278   7.301  13.936   9.810 -0.0736  0.0234  0.1384
   80loPI   C3B 1279   7.575  13.973   9.455 -0.0222  0.1224  0.1285
   80loPI   C4B 1280   7.689  13.824   9.041 -0.0973 -0.2062 -0.1218
   81loPI    C1 1281  13.566   5.609  11.718 -0.1207  0.0542 -0.0775
   81loPI    C2 1282  13.855   5.409  11.908 -0.2392 -0.0997 -0.0571
   81loPI    C3 1283  13.583   5.614  12.117 -0.1655  0.0172 -0.0750
   81loPI   PO4 1284  13.743   5.666  11.488  0.2486  0.0503 -0.0291
   81loPI   GL1 1285  13.953   5.447  11.088  0.2329  0.0653  0.2373
   81loPI   GL2 1286  14.097   5.191  11.015 -0.1477 -0.1398 -0.0963
   81loPI   C1A 1287  14.062   5.637  10.802  0.1438 -0.0360  0.2901
   81loPI   C2A 1288  14.062   5.602  10.419 -0.0190  0.1500 -0.2828
   81loPI   C3A 1289  14.108   5.754  10.015 -0.0122 -0.0834 -0.0138
   81loPI   C4A 1290  13.964   5.887   9.572 -0.0894  0.0585  0.1695
   81loPI   C5A 1291  14.214   6.144   9.363 -0.0634 -0.0391  0.0627
   81loPI   C6A 1292  14.425   6.301   8.960 -0.2461 -0.1434 -0.0850
   81loPI   C1B 1293  14.332   5.229  10.660  0.2709 -0.0511 -0.0364
   81loPI   C2B 1294  14.522   5.180  10.198 -0.0243 -0.0936 -0.1204
   81loPI   C3B 1295  14.594   5.384   9.824 -0.1916  0.1064  0.1145
   81loPI   C4B 1296  14.501   5.893   9.722  0.0149 -0.2741 -0.1070
   82loPI    C1 1297  16.418   9.176  11.638 -0.2188  0.0285  0.1225
   82loPI    C2 1298  16.323   9.192  12.026  0.1715  0.1525  0.2182
   82loPI    C3 1299  16.356   9.530  11.814 -0.1204  0.0811  0.0526
   82loPI   PO4 1300  16.239   9.045  11.508 -0.0510  0.0198 -0.0807
   82loPI   GL1 1301  16.050   8.844  11.122  0.0828 -0.2200 -0.2985
   82loPI   GL2 1302  15.844   9.192  11.073  0.3453  0.1590  0.2766
   82loPI   C1A 1303  15.991   8.762  10.636 -0.1131 -0.2239  0.1303
   82loPI   C2A 1304  16.032   8.714  10.127  0.0023 -0.2042  0.1168
   82loPI   C3A 1305  15.951   8.756   9.653 -0.1366  0.0766 -0.0068
   82loPI   C4A 1306  16.106   8.765   9.196 -0.3300 -0.1268  0.2092
   82loPI   C5A 1307  16.496   9.004   9.103  0.0551  0.0648  0.2782
   82loPI   C6A 1308  16.893   9.279   9.033 -0.1905  0.0947 -0.1672
   82loPI   C1B 1309  15.772   9.247  10.613  0.0402  0.0842  0.1379
   82loPI   C2B 1310  15.678   9.176  10.143 -0.0223 -0.1448  0.1279
   82loPI   C3B 1311  15.572   9.243   9.851 -0.2562  0.0099 -0.1332
   82loPI   C4B 1312  15.656   9.153   9.472 -0.2817  0.0815  0.0121
   83loPI    C1 1313   7.601   0.982  11.773  0.0246 -0.2488  0.1490
   83loPI    C2 1314   7.746   1.230  12.052 -0.0789  0.0285 -0.0393
   83loPI    C3 1315   7.977   0.939  11.902  0.0792  0.0771  0.1073
   83loPI   PO4 1316   7.476   1.155  11.576  0.2656  0.0160 -0.1452
   83loPI   GL1 1317   7.323   1.208  11.193 -0.1847  0.0469 -0.1915
   83loPI   GL2 1318   7.588   1.523  11.159 -0.3177 -0.0479  0.0296
   83loPI   C1A 1319   7.443   0.874  10.820 -0.0855  0.2901 -0.1233
   83loPI   C2A 1320   7.394   0.613  10.525 -0.0386  0.2829 -0.0316
   83loPI   C3A 1321   7.495   0.650  10.002  0.0566 -0.4936 -0.0417
   83loPI   C4A 1322   7.568   0.717   9.610 -0.1815  0.0643  0.0281
   83loPI   C5A 1323   7.510   0.955   9.253 -0.1345  0.1865  0.4000
   83loPI   C6A 1324   7.301   1.155   8.975 -0.3123 -0.4086  0.0608
   83loPI   C1B 1325   7.420   1.296  10.635 -0.0999  0.0945  0.1462
   83loPI   C2B 1326   7.346   1.163  10.213  0.4281  0.1392 -0.0773
   83loPI   C3B 1327   7.485   1.239   9.804 -0.0524 -0.1448 -0.1450
   83loPI   C4B 1328   7.729   1.398   9.443  0.0077  0.1433  0.0928
   84loPI    C1 1329   0.438  12.766  11.568 -0.1926 -0.0894 -0.0648
   84loPI    C2 1330   0.176  12.526  11.752 -0.1987 -0.0745 -0.0539
   84loPI    C3 1331   0.533  12.596  11.918 -0.2403  0.0137 -0.0010
   84loPI   PO4 1332   0.279  12.750  11.319  0.1441 -0.0731 -0.1704
   84loPI   GL1 1333   0.399  12.531  10.991  0.1156 -0.0033  0.0060
   84loPI   GL2 1334   0.043  12.502  10.864 -0.0002  0.1677  0.3737
   84loPI   C1A 1335   0.385  12.444  10.538 -0.0873 -0.0340  0.0683
   84loPI   C2A 1336   0.257  12.289  10.111  0.1056 -0.0968  0.0987
   84loPI   C3A 1337   0.164  12.398   9.656 -0.1071  0.0028 -0.2099
   84loPI   C4A 1338   0.157  12.602   9.278  0.0516 -0.1346 -0.0840
   84loPI   C5A 1339   0.332  12.495   8.895  0.1022  0.4317  0.1786
   84loPI   C6A 1340   0.410  12.081   8.715  0.2512  0.0549  0.0166
   84loPI   C1B 1341  -0.191  12.379  10.588  0.0145  0.0110 -0.0978
   84loPI   C2B 1342  -0.382  12.320  10.212  0.2605 -0.1908 -0.0131
   84loPI   C3B 1343  -0.310  12.398   9.819  0.3243  0.1372  0.1386
   84loPI   C4B 1344  -0.346  12.534   9.442  0.0545  0.0724  0.1976
   85loPI    C1 1345  14.260   4.677  11.657  0.0613 -0.0613  0.0068
   85loPI    C2 1346  14.494   4.368  11.757  0.0201 -0.0493  0.1416
   85loPI    C3 1347  14.229   4.513  12.020 -0.1288 -0.0528 -0.0042
   85loPI   PO4 1348  14.179   4.610  11.383  0.1468  0.0772 -0.2469
   85loPI   GL1 1349  14.076   4.635  10.999  0.2185 -0.1982 -0.0210
   85loPI   GL2 1350  14.199   4.356  10.979 -0.0851 -0.3527  0.0589
   85loPI   C1A 1351  13.990   4.858  10.651 -0.1040  0.0448  0.2658
   85loPI   C2A 1352  14.026   4.978  10.250  0.1426  0.0796 -0.0475
   85loPI   C3A 1353  14.241   5.061   9.849  0.2488 -0.2829 -0.0746
   85loPI   C4A 1354  14.180   5.329   9.532 -0.1281 -0.1622  0.0802
   85loPI   C5A 1355  14.380   5.563   9.336  0.0762  0.1165 -0.0688
   85loPI   C6A 1356  14.511   5.815   9.055 -0.1069 -0.2876 -0.2298
   85loPI   C1B 1357  14.309   4.528  10.554  0.2170 -0.0178  0.2058
   85loPI   C2B 1358  14.380   4.524  10.170  0.3037 -0.3014 -0.1323
   85loPI   C3B 1359  14.286   4.532   9.750 -0.0877 -0.0539 -0.0295
   85loPI   C4B 1360  14.065   4.867   9.479 -0.0109 -0.0946  0.2496
   86loPI    C1 1361  12.691   1.214  11.234 -0.1706 -0.1440  0.1818
   86loPI    C2 1362  12.854   1.429  11.529  0.0953 -0.0721 -0.0131
   86loPI    C3 1363  12.461   1.451  11.459  0.0411 -0.0357  0.2876
   86loPI   PO4 1364  12.833   1.265  11.004 -0.0023 -0.1859 -0.0918
   86loPI   GL1 1365  12.898   1.031  10.721 -0.3146 -0.0718  0.1191
   86loPI   GL2 1366  12.586   1.227  10.502  0.0046  0.2107  0.0636
   86loPI   C1A 1367  13.010   0.845  10.383 -0.0439  0.0282 -0.0101
   86loPI   C2A 1368  13.211   0.719  10.041  0.1691  0.1890  0.1553
   86loPI   C3A 1369  13.260   0.754   9.620  0.2980 -0.1277  0.1767
   86loPI   C4A 1370  13.356   0.773   9.205  0.2760  0.2024 -0.1774
   86loPI   C5A 1371  13.642   0.871   8.786  0.0225  0.3513  0.1713
   86loPI   C6A 1372  13.930   0.649   8.512 -0.1523 -0.1909 -0.1214
   86loPI   C1B 1373  12.813   1.224  10.192 -0.1730 -0.1529 -0.0882
   86loPI   C2B 1374  13.030   1.153   9.844 -0.1808 -0.1472 -0.0845
   86loPI   C3B 1375  13.288   1.234   9.471 -0.0538 -0.1599  0.1218
   86loPI   C4B 1376  13.289   1.199   8.974  0.1808  0.0032 -0.0688
   87loPI    C1 1377  13.647   1.482  11.310  0.0443  0.0134 -0.0328
   87loPI    C2 1378  13.871   1.688  11.570 -0.2394 -0.0507  0.2702
   87loPI    C3 1379  13.522   1.532  11.687 -0.4464  0.0471 -0.1927
   87loPI   PO4 1380  13.854   1.476  11.104  0.0939  0.1680  0.1782
   87loPI   GL1 1381  13.837   1.408  10.739 -0.0863  0.0183  0.0253
   87loPI   GL2 1382  13.630   1.657  10.575 -0.1600 -0.1439 -0.1183
   87loPI   C1A 1383  14.087   1.317  10.496 -0.0936  0.2192 -0.0331
   87loPI   C2A 1384  14.195   1.376  10.093  0.2702 -0.1175 -0.2433
   87loPI   C3A 1385  14.187   1.370   9.620  0.0841  0.2179 -0.2257
   87loPI   C4A 1386  14.116   1.477   9.242  0.0526 -0.0378  0.2084
   87loPI   C5A 1387  13.789   1.439   8.909 -0.1617 -0.0165  0.1101
   87loPI   C6A 1388  13.482   1.713   8.745  0.1537 -0.0757  0.2822
   87loPI   C1B 1389  13.737   1.681  10.105  0.0508  0.2433 -0.1307
   87loPI   C2B 1390  13.748   1.591   9.628  0.0937  0.2027  0.0154
   87loPI   C3B 1391  13.576   1.592   9.277 -0.0317 -0.1443 -0.3787
   87loPI   C4B 1392  13.709   1.967   9.083 -0.2929 -0.2086 -0.0314
   88loPI    C1 1393   5.719   3.127  11.688  0.2183  0.1031  0.2968
   88loPI    C2 1394   5.625   2.848  11.958 -0.3201 -0.0091  0.0088
   88loPI    C3 1395   5.525   3.229  12.023 -0.1201  0.0247  0.1291
   88loPI   PO4 1396   5.984   2.962  11.604  0.0967 -0.0603 -0.1087
   88loPI   GL1 1397   6.064   2.816  11.137  0.1658  0.2304  0.1348
   88loPI   GL2 1398   6.216   3.089  11.164  0.0358 -0.0308 -0.0129
   88loPI   C1A 1399   5.929   2.830  10.710  0.0214  0.0675 -0.2464
   88loPI   C2A 1400   5.818   2.737  10.345  0.1366  0.1777  0.1158
   88loPI   C3A 1401   5.719   2.794   9.911  0.1921 -0.1140  0.0431
   88loPI   C4A 1402   5.747   2.819   9.532  0.0939  0.1827  0.3434
   88loPI   C5A 1403   5.477   2.929   9.265 -0.2766 -0.0418 -0.4778
   88loPI   C6A 1404   5.307   2.752   8.902 -0.2551 -0.1389  0.1738
   88loPI   C1B 1405   6.241   3.192  10.720 -0.2035  0.2068  0.0294
   88loPI   C2B 1406   6.097   3.147  10.242  0.2596 -0.1416 -0.0172
   88loPI   C3B 1407   6.029   3.209   9.796  0.0842  0.1337 -0.0874
   88loPI   C4B 1408   6.171   3.094   9.333  0.4401  0.1311  0.0480
   89loPI    C1 1409  15.952  16.250  11.912  0.0650  0.1201  0.0865
   89loPI    C2 1410  15.880  16.303  12.302  0.1990 -0.0029  0.1288
   89loPI    C3 1411  15.959  15.937  12.161  0.1166  0.0361 -0.0200
   89loPI   PO4 1412  15.826  16.398  11.718 -0.2312  0.1312  0.1201
   89loPI   GL1 1413  15.803  16.357  11.351  0.1099  0.1745 -0.0641
   89loPI   GL2 1414  16.080  16.337  11.270 -0.0706 -0.0714  0.1889
   89loPI   C1A 1415  15.748  16.636  11.074 -0.1460  0.0031 -0.0501
   89loPI   C2A 1416  15.803  16.714  10.591  0.1402  0.0964 -0.2963
   89loPI   C3A 1417  15.790  16.651  10.181  0.1182 -0.0564 -0.0649
   89loPI   C4A 1418  15.713  16.707   9.719  0.1228 -0.0422  0.0605
   89loPI   C5A 1419  15.762  16.706   9.243 -0.0921 -0.1093 -0.0603
   89loPI   C6A 1420  15.816  16.474   8.899  0.5986 -0.2299 -0.0431
   89loPI   C1B 1421  16.088  16.280  10.768  0.0395 -0.0086  0.0014
   89loPI   C2B 1422  16.003  16.275  10.370  0.1011  0.1325 -0.1204
   89loPI   C3B 1423  16.031  16.291   9.969  0.1702 -0.0928  0.1229
   89loPI   C4B 1424  15.906  16.276   9.493 -0.1518  0.0922 -0.3095
   90loPI    C1 1425   2.868   2.066  11.298 -0.2183  0.0236 -0.0012
   90loPI    C2 1426   2.761   2.269  11.626  0.1042 -0.0364  0.1451
   90loPI    C3 1427   2.701   1.874  11.607  0.0045 -0.0192  0.0942
   90loPI   PO4 1428   3.098   2.079  11.239 -0.1441 -0.2040 -0.1066
   90loPI   GL1 1429   3.345   1.929  10.900  0.0069  0.1048  0.0002
   90loPI   GL2 1430   3.716   1.991  10.918  0.2015  0.1507  0.3135
   90loPI   C1A 1431   3.184   2.188  10.571 -0.1913  0.0291  0.1731
   90loPI   C2A 1432   3.248   2.065  10.133 -0.0432 -0.0600 -0.1353
   90loPI   C3A 1433   3.163   1.978   9.758  0.0119  0.2332  0.2712
   90loPI   C4A 1434   3.067   1.903   9.394 -0.2373 -0.0732 -0.0668
   90loPI   C5A 1435   2.733   1.698   9.111 -0.0706  0.1377  0.0408
   90loPI   C6A 1436   2.400   1.468   8.922 -0.1205  0.3338 -0.2318
   90loPI   C1B 1437   3.676   2.075  10.484 -0.0128 -0.5223 -0.1733
   90loPI   C2B 1438   3.725   2.109  10.104  0.2658  0.2033  0.1917
   90loPI   C3B 1439   3.702   2.036   9.715 -0.0910  0.1285 -0.0584
   90loPI   C4B 1440   3.565   1.984   9.270 -0.0645  0.3367 -0.1508
   91loPI    C1 1441  12.223  14.201  11.785  0.0544  0.1010  0.0220
   91loPI    C2 1442  12.468  14.426  12.006 -0.0905  0.0079  0.2816
   91loPI    C3 1443  12.112  14.317  12.151 -0.3050  0.1750 -0.1066
   91loPI   PO4 1444  12.478  14.120  11.618  0.1805  0.2932 -0.0681
   91loPI   GL1 1445  12.614  14.142  11.191  0.2471 -0.0553 -0.0787
   91loPI   GL2 1446  12.625  14.464  11.109  0.1773 -0.1129 -0.3133
   91loPI   C1A 1447  12.505  14.048  10.716  0.2465 -0.0355  0.1064
   91loPI   C2A 1448  12.424  14.216  10.380  0.0518  0.1860  0.3947
   91loPI   C3A 1449  12.446  14.174   9.907  0.1806  0.0730 -0.0579
   91loPI   C4A 1450  12.462  14.169   9.517 -0.0205  0.0565  0.3338
   91loPI   C5A 1451  12.408  14.143   9.046  0.1310 -0.2867 -0.1987
   91loPI   C6A 1452  12.049  14.062   8.838  0.1342  0.2984 -0.0278
   91loPI   C1B 1453  12.668  14.544  10.694 -0.0100  0.1907  0.1733
   91loPI   C2B 1454  12.753  14.593  10.156 -0.0481  0.1741  0.1145
   91loPI   C3B 1455  12.799  14.613   9.747  0.0022 -0.2079  0.0074
   91loPI   C4B 1456  12.638  14.631   9.387  0.0986  0.1088 -0.2885
   92loPI    C1 1457  10.630   1.362  11.591  0.0979 -0.1420  0.2017
   92loPI    C2 1458  10.517   1.482  11.955  0.0991  0.1240  0.1160
   92loPI    C3 1459  10.820   1.666  11.768 -0.0131  0.1018 -0.0901
   92loPI   PO4 1460  10.342   1.344  11.387  0.0298 -0.2250  0.3511
   92loPI   GL1 1461  10.116   1.224  11.009 -0.0672 -0.3085 -0.1424
   92loPI   GL2 1462  10.362   1.072  10.973 -0.1260  0.0300  0.2924
   92loPI   C1A 1463   9.986   1.353  10.664 -0.1023 -0.1216 -0.1246
   92loPI   C2A 1464  10.071   1.443  10.283  0.1159  0.0960 -0.1504
   92loPI   C3A 1465  10.154   1.362   9.995 -0.1022 -0.1138 -0.1367
   92loPI   C4A 1466  10.250   1.343   9.672 -0.3816 -0.0009  0.1254
   92loPI   C5A 1467  10.386   1.292   9.325  0.3898 -0.1506 -0.3381
   92loPI   C6A 1468  10.332   1.060   8.947  0.1637 -0.1040  0.2626
   92loPI   C1B 1469  10.389   1.028  10.579 -0.0486 -0.0825  0.0270
   92loPI   C2B 1470  10.454   0.832  10.249  0.1321 -0.1612 -0.1824
   92loPI   C3B 1471  10.488   0.856   9.804  0.1453  0.0085 -0.0879
   92loPI   C4B 1472  10.434   0.731   9.315  0.0202 -0.1638  0.1903
   93loPI    C1 1473   9.989   6.394  11.656 -0.1309 -0.0911 -0.0995
   93loPI    C2 1474   9.975   6.683  11.932 -0.2268 -0.0436 -0.1535
   93loPI    C3 1475   9.891   6.306  12.034  0.2035 -0.1070 -0.0140
   93loPI   PO4 1476  10.196   6.491  11.534 -0.0109 -0.2153 -0.0619
   93loPI   GL1 1477  10.322   6.643  11.183  0.0531 -0.0670  0.3526
   93loPI   GL2 1478  10.010   6.727  11.116  0.1215 -0.0456 -0.0854
   93loPI   C1A 1479  10.660   6.533  10.723 -0.0846  0.2172 -0.2196
   93loPI   C2A 1480  10.723   6.559  10.328  0.5236 -0.0493 -0.0354
   93loPI   C3A 1481  10.615   6.576   9.867  0.2313 -0.2937  0.3018
   93loPI   C4A 1482  10.532   6.587   9.470  0.2854 -0.2134  0.2665
   93loPI   C5A 1483  10.725   6.735   9.160 -0.0755  0.3522 -0.2638
   93loPI   C6A 1484  10.773   6.483   8.865  0.1578 -0.0713  0.0669
   93loPI   C1B 1485  10.133   6.649  10.671 -0.0465 -0.0039 -0.1475
   93loPI   C2B 1486  10.202   6.618  10.212  0.1033 -0.0164  0.2112
   93loPI   C3B 1487  10.085   6.545   9.804 -0.1241 -0.1362  0.0083
   93loPI   C4B 1488  10.093   6.419   9.326  0.0557 -0.2087 -0.2567
   94loPI    C1 1489  11.101  12.500  11.732 -0.0798 -0.0511 -0.1432
   94loPI    C2 1490  11.121  12.101  11.711  0.3804 -0.0335 -0.1510
   94loPI    C3 1491  11.339  12.298  11.982 -0.3200  0.1803  0.2830
   94loPI   PO4 1492  11.070  12.568  11.517  0.1065  0.0146  0.1820
   94loPI   GL1 1493  11.051  12.265  11.227 -0.2317  0.0789 -0.0163
   94loPI   GL2 1494  11.328  12.196  11.205  0.0678  0.2447 -0.1157
   94loPI   C1A 1495  10.968  12.139  10.729  0.1679 -0.2992 -0.1146
   94loPI   C2A 1496  10.848  12.112  10.322 -0.1475 -0.0615 -0.0637
   94loPI   C3A 1497  10.992  11.942   9.977  0.0787  0.0621 -0.2880
   94loPI   C4A 1498  11.067  11.928   9.520 -0.3010  0.1932 -0.0678
   94loPI   C5A 1499  10.885  12.045   9.157 -0.0391  0.4346 -0.1311
   94loPI   C6A 1500  10.553  12.114   8.984  0.2996  0.1782 -0.1545
   94loPI   C1B 1501  11.291  12.485  10.907 -0.0225 -0.2004 -0.1679
   94loPI   C2B 1502  11.224  12.504  10.411  0.5811  0.1670  0.0097
   94loPI   C3B 1503  11.367  12.352   9.959  0.0549 -0.2047  0.3071
   94loPI   C4B 1504  11.303  12.337   9.556  0.1519  0.0234 -0.1155
   95loPI    C1 1505   8.694   0.877  11.439 -0.0560  0.0546 -0.0882
   95loPI    C2 1506   8.398   1.000  11.677 -0.1143  0.1288 -0.1984
   95loPI    C3 1507   8.557   0.637  11.728 -0.1048  0.1559 -0.0266
   95loPI   PO4 1508   8.687   0.906  11.151 -0.3850 -0.2118  0.1845
   95loPI   GL1 1509   8.823   1.014  10.810  0.1899 -0.0927 -0.2785
   95loPI   GL2 1510   9.184   1.085  10.709 -0.0765  0.1896 -0.2599
   95loPI   C1A 1511   8.773   1.104  10.439 -0.0761  0.1155 -0.0944
   95loPI   C2A 1512   8.888   1.086   9.993 -0.2739  0.0547  0.2162
   95loPI   C3A 1513   8.964   0.971   9.598  0.0593 -0.1014 -0.0944
   95loPI   C4A 1514   9.085   0.804   9.136 -0.1360  0.1779 -0.2754
   95loPI   C5A 1515   9.302   1.018   8.793 -0.1201  0.2001  0.0669
   95loPI   C6A 1516   9.421   1.460   8.964 -0.0389 -0.0391  0.2527
   95loPI   C1B 1517   9.325   1.034  10.363 -0.3151  0.1946  0.0916
   95loPI   C2B 1518   9.427   1.004   9.941  0.3419 -0.3083  0.0821
   95loPI   C3B 1519   9.521   0.895   9.562  0.0218 -0.0694  0.3600
   95loPI   C4B 1520   9.820   0.864   9.158  0.0608 -0.0281  0.1268
   96loPI    C1 1521  10.975   8.521  11.723 -0.0013 -0.1533 -0.1523
   96loPI    C2 1522  10.809   8.339  12.039  0.0816 -0.0727 -0.0613
   96loPI    C3 1523  10.722   8.722  11.960  0.0592 -0.0936 -0.1379
   96loPI   PO4 1524  10.944   8.443  11.529 -0.0290  0.0167  0.1007
   96loPI   GL1 1525  10.668   8.463  11.155 -0.0042 -0.4719 -0.0954
   96loPI   GL2 1526  10.392   8.688  11.134  0.1849  0.1219  0.1178
   96loPI   C1A 1527  10.710   8.306  10.737  0.0434  0.0340  0.0464
   96loPI   C2A 1528  10.800   8.303  10.332 -0.3373 -0.0746  0.0687
   96loPI   C3A 1529  10.758   8.365   9.985  0.1535  0.4839  0.1479
   96loPI   C4A 1530  10.779   8.301   9.571  0.2528 -0.2236 -0.0661
   96loPI   C5A 1531  10.713   8.095   9.189 -0.1134  0.0174  0.0076
   96loPI   C6A 1532  11.103   7.944   8.929 -0.1363  0.0785 -0.1602
   96loPI   C1B 1533  10.531   8.768  10.624  0.3911  0.0973 -0.0033
   96loPI   C2B 1534  10.521   8.832  10.140  0.0502 -0.1165 -0.0898
   96loPI   C3B 1535  10.526   8.753   9.699  0.0657 -0.2309  0.2474
   96loPI   C4B 1536  10.737   8.745   9.273 -0.3837 -0.1179 -0.1606
   97loPI    C1 1537   0.710   2.520  11.902  0.2100 -0.0401 -0.1728
   97loPI    C2 1538   0.797   2.300  12.225 -0.1212  0.0780  0.0019
   97loPI    C3 1539   0.882   2.691  12.220  0.2413  0.0015 -0.2120
   97loPI   PO4 1540   0.761   2.390  11.685 -0.0878  0.1671  0.2466
   97loPI   GL1 1541   0.844   2.399  11.297  0.0654  0.2601 -0.0320
   97loPI   GL2 1542   0.742   2.717  11.210 -0.1405  0.1434 -0.0971
   97loPI   C1A 1543   0.920   2.273  10.853 -0.2659 -0.0741  0.0739
   97loPI   C2A 1544   0.986   2.288  10.430 -0.1705  0.0268  0.0048
   97loPI   C3A 1545   0.967   2.205   9.923 -0.0626  0.0214 -0.1124
   97loPI   C4A 1546   1.076   2.202   9.547  0.1458 -0.1117  0.1761
   97loPI   C5A 1547   1.040   2.270   9.149 -0.1017  0.0231 -0.3938
   97loPI   C6A 1548   1.098   2.537   8.770 -0.1781 -0.0046 -0.0729
   97loPI   C1B 1549   0.740   2.806  10.904  0.1339  0.0261  0.3033
   97loPI   C2B 1550   0.742   2.818  10.412  0.0274 -0.1562  0.2132
   97loPI   C3B 1551   0.868   2.684  10.070  0.1281 -0.0338  0.2977
   97loPI   C4B 1552   0.859   2.709   9.627  0.0040 -0.2659  0.2221
   98loPI    C1 1553   1.397   9.003  11.939 -0.2163  0.3774 -0.1581
   98loPI    C2 1554   1.363   8.873  12.315  0.1171  0.0814 -0.2243
   98loPI    C3 1555   1.200   9.222  12.209 -0.1579  0.0709  0.1409
   98loPI   PO4 1556   1.304   8.790  11.841 -0.1714 -0.0475 -0.2296
   98loPI   GL1 1557   1.083   8.539  11.435  0.1508  0.0434 -0.0218
   98loPI   GL2 1558   1.429   8.386  11.262 -0.1056 -0.2070 -0.0828
   98loPI   C1A 1559   0.995   8.576  11.060  0.2412 -0.2753  0.2337
   98loPI   C2A 1560   0.967   8.556  10.611  0.0067  0.0495  0.0843
   98loPI   C3A 1561   1.062   8.545  10.239  0.2216 -0.3513  0.1697
   98loPI   C4A 1562   1.042   8.587   9.781 -0.0367 -0.1296  0.0793
   98loPI   C5A 1563   1.022   8.563   9.319  0.4064  0.1024 -0.0275
   98loPI   C6A 1564   0.868   8.749   8.967 -0.0054  0.2148  0.0522
   98loPI   C1B 1565   1.509   8.510  10.789  0.1031 -0.1993  0.2332
   98loPI   C2B 1566   1.528   8.549  10.306 -0.3208  0.1504  0.0023
   98loPI   C3B 1567   1.524   8.568   9.845 -0.3147 -0.0007  0.1013
   98loPI   C4B 1568   1.545   8.580   9.443  0.1100  0.2175  0.3968
   99loPI    C1 1569  16.544   8.698  11.905  0.3115  0.0107 -0.0083
   99loPI    C2 1570  16.690   8.572  12.255 -0.0164 -0.1420  0.0780
   99loPI    C3 1571  16.341   8.767  12.243  0.0990  0.0555 -0.1427
   99loPI   PO4 1572  16.735   8.440  11.702 -0.3076 -0.2574  0.1014
   99loPI   GL1 1573  17.135   8.442  11.508 -0.2033 -0.0388  0.2113
   99loPI   GL2 1574  17.161   8.703  11.252  0.2962  0.0706  0.0328
   99loPI   C1A 1575  17.164   8.234  11.184 -0.0514  0.2669 -0.2842
   99loPI   C2A 1576  17.329   8.199  10.822  0.2606 -0.2049  0.0372
   99loPI   C3A 1577  17.240   8.197  10.333 -0.2351  0.2581 -0.1847
   99loPI   C4A 1578  17.228   8.195   9.954 -0.1925 -0.2228 -0.0929
   99loPI   C5A 1579  17.276   8.207   9.563 -0.4097  0.1197  0.2484
   99loPI   C6A 1580  17.328   7.920   9.236 -0.0012  0.2453 -0.0200
   99loPI   C1B 1581  17.031   8.619  10.873 -0.3264 -0.0763  0.2017
   99loPI   C2B 1582  17.086   8.638  10.539 -0.0004  0.1561  0.1215
   99loPI   C3B 1583  17.021   8.664  10.045  0.1263  0.0381  0.1056
   99loPI   C4B 1584  17.091   8.669   9.661  0.5263  0.1271 -0.0010
  100loPI    C1 1585   4.583  13.313  11.297  0.0364  0.2062 -0.0673
  100loPI    C2 1586   4.479  13.315  11.684 -0.2105 -0.4696 -0.1161
  100loPI    C3 1587   4.833  13.166  11.573 -0.1045 -0.1998 -0.1493
  100loPI   PO4 1588   4.453  13.296  11.197 -0.1989  0.2452 -0.1391
  100loPI   GL1 1589   4.271  12.990  10.987  0.3496  0.1002  0.0031
  100loPI   GL2 1590   4.240  12.611  11.029  0.1615 -0.1944 -0.2637
  100loPI   C1A 1591   4.405  13.009  10.520 -0.1346  0.1734 -0.0595
  100loPI   C2A 1592   4.414  13.053  10.084 -0.1779 -0.1191 -0.1032
  100loPI   C3A 1593   4.458  13.052   9.653  0.2998  0.0565  0.1785
  100loPI   C4A 1594   4.346  13.012   9.147  0.1428  0.2422 -0.0368
  100loPI   C5A 1595   4.435  13.209   8.742  0.1258  0.1017 -0.1339
  100loPI   C6A 1596   4.367  13.680   8.726 -0.2861 -0.0908 -0.2721
  100loPI   C1B 1597   4.241  12.530  10.633  0.0281  0.3512 -0.1844
  100loPI   C2B 1598   4.291  12.576  10.289  0.1027 -0.3505  0.5153
  100loPI   C3B 1599   4.281  12.552   9.825 -0.0526 -0.0267  0.0295
  100loPI   C4B 1600   4.445  12.558   9.396 -0.2456  0.0671 -0.2070
  101loPI    C1 1601   0.091  10.218  11.795 -0.0538  0.1055  0.2603
  101loPI    C2 1602  -0.194  10.443  11.628  0.0833  0.1069  0.0232
  101loPI    C3 1603  -0.078  10.514  12.005 -0.1557  0.1717  0.0867
  101loPI   PO4 1604   0.167  10.099  11.504  0.0515  0.3124  0.0416
  101loPI   GL1 1605  -0.045   9.920  11.167  0.3006  0.0866 -0.2552
  101loPI   GL2 1606  -0.194  10.196  11.173 -0.1754  0.0144  0.1368
  101loPI   C1A 1607   0.186   9.828  10.810  0.2510  0.2208 -0.0215
  101loPI   C2A 1608   0.208   9.741  10.439  0.1008 -0.1302  0.0286
  101loPI   C3A 1609   0.327   9.970  10.022  0.3053 -0.2210 -0.3542
  101loPI   C4A 1610   0.290  10.030   9.598  0.1489 -0.3092 -0.1476
  101loPI   C5A 1611   0.427   9.917   9.133 -0.1229  0.0467  0.2456
  101loPI   C6A 1612   0.592   9.608   8.854  0.2021 -0.0148 -0.1879
  101loPI   C1B 1613  -0.214  10.103  10.697  0.2059  0.0524 -0.3024
  101loPI   C2B 1614  -0.168  10.116  10.310  0.3302  0.2099  0.0462
  101loPI   C3B 1615  -0.153  10.067   9.923 -0.3409  0.3076  0.1668
  101loPI   C4B 1616  -0.149  10.199   9.416 -0.0859 -0.0411 -0.1092
  102loPI    C1 1617  14.050   2.613  11.435 -0.1266  0.1735  0.0538
  102loPI    C2 1618  13.783   2.327  11.520 -0.0414  0.0838  0.0218
  102loPI    C3 1619  13.678   2.712  11.543 -0.2337  0.0460 -0.1887
  102loPI   PO4 1620  14.157   2.519  11.161 -0.1112  0.1002 -0.1646
  102loPI   GL1 1621  14.416   2.230  10.929  0.1246  0.0164 -0.3802
  102loPI   GL2 1622  14.577   1.992  10.967 -0.2133  0.1856  0.3021
  102loPI   C1A 1623  14.272   2.324  10.551  0.1693  0.0640 -0.0011
  102loPI   C2A 1624  14.265   2.390  10.059  0.0679 -0.3323  0.1179
  102loPI   C3A 1625  14.155   2.374   9.636  0.0449  0.1255 -0.0431
  102loPI   C4A 1626  13.923   2.505   9.226 -0.0662 -0.1191 -0.2347
  102loPI   C5A 1627  13.729   2.543   8.909 -0.0053  0.3155 -0.0773
  102loPI   C6A 1628  13.456   2.344   8.746 -0.1931 -0.2070  0.2804
  102loPI   C1B 1629  14.721   2.075  10.564  0.4014 -0.0241  0.0725
  102loPI   C2B 1630  14.733   2.084  10.129  0.0651  0.2170 -0.0984
  102loPI   C3B 1631  14.585   2.131   9.733 -0.0103 -0.2297 -0.1059
  102loPI   C4B 1632  14.843   2.202   9.376 -0.0557  0.0216 -0.1801
  103loPI    C1 1633   4.689   1.671  11.881 -0.2226  0.0599  0.1591
  103loPI    C2 1634   4.886   1.876  12.162 -0.4550  0.0006  0.3692
  103loPI    C3 1635   4.631   1.587  12.267 -0.0760 -0.4559  0.0769
  103loPI   PO4 1636   4.878   1.527  11.635  0.0926  0.1646 -0.1148
  103loPI   GL1 1637   4.721   1.584  11.253  0.0824 -0.1032  0.4092
  103loPI   GL2 1638   4.699   1.960  11.271 -0.1046  0.3336 -0.0718
  103loPI   C1A 1639   4.966   1.443  10.829  0.1442  0.0424  0.1053
  103loPI   C2A 1640   4.985   1.386  10.466 -0.0076  0.4070 -0.0349
  103loPI   C3A 1641   4.972   1.425  10.107 -0.1393  0.2675 -0.1638
  103loPI   C4A 1642   4.886   1.424   9.627  0.1633 -0.0007  0.1826
  103loPI   C5A 1643   4.892   1.241   9.244  0.1297 -0.1509  0.1400
  103loPI   C6A 1644   4.808   0.875   9.064  0.0541  0.1511 -0.3137
  103loPI   C1B 1645   4.790   1.894  10.826 -0.1946 -0.1716 -0.0753
  103loPI   C2B 1646   4.823   1.888  10.308 -0.3913 -0.2075 -0.1071
  103loPI   C3B 1647   4.707   1.982   9.879  0.1760 -0.0219 -0.1151
  103loPI   C4B 1648   4.716   2.063   9.399 -0.2904 -0.0146 -0.0521
  104loPI    C1 1649   2.178  10.883  11.616 -0.1002 -0.0230  0.0565
  104loPI    C2 1650   2.123  10.517  11.769 -0.2352 -0.0127  0.0337
  104loPI    C3 1651   2.339  10.565  11.436  0.0495 -0.0369  0.2115
  104loPI   PO4 1652   1.942  10.966  11.544  0.1306  0.1164 -0.0102
  104loPI   GL1 1653   1.791  11.019  11.154  0.2470 -0.0669 -0.1952
  104loPI   GL2 1654   1.929  10.764  11.109 -0.0299 -0.0968 -0.0271
  104loPI   C1A 1655   1.453  10.892  10.829  0.2394  0.0260 -0.2053
  104loPI   C2A 1656   1.398  10.839  10.449  0.0249  0.1025 -0.1447
  104loPI   C3A 1657   1.429  10.884   9.965  0.2544  0.1041  0.3226
  104loPI   C4A 1658   1.500  10.790   9.495 -0.1041  0.0698  0.1282
  104loPI   C5A 1659   1.583  10.685   9.021 -0.3421 -0.3617  0.0254
  104loPI   C6A 1660   1.928  10.583   8.777 -0.1837 -0.3159  0.0622
  104loPI   C1B 1661   1.965  10.766  10.575  0.2752  0.0097  0.1625
  104loPI   C2B 1662   1.986  10.885  10.124  0.0292 -0.2046 -0.0744
  104loPI   C3B 1663   1.966  10.824   9.704 -0.1593 -0.2522 -0.0823
  104loPI   C4B 1664   2.040  10.766   9.258 -0.0845 -0.1625  0.0307
  105loPI    C1 1665  12.288  15.760  11.595 -0.2263  0.0237 -0.0428
  105loPI    C2 1666  12.035  15.451  11.581 -0.1992  0.0026 -0.0664
  105loPI    C3 1667  12.035  15.695  11.898 -0.1299 -0.0991  0.0127
  105loPI   PO4 1668  12.359  15.741  11.376 -0.0153 -0.0826  0.3499
  105loPI   GL1 1669  12.464  15.527  11.007 -0.2203 -0.1987 -0.2611
  105loPI   GL2 1670  12.842  15.446  11.032  0.0014 -0.2042  0.0254
  105loPI   C1A 1671  12.306  15.617  10.601 -0.0399 -0.2353 -0.1146
  105loPI   C2A 1672  12.236  15.566  10.236 -0.1076 -0.2970  0.0415
  105loPI   C3A 1673  12.236  15.586   9.735 -0.1126 -0.0015  0.0757
  105loPI   C4A 1674  12.224  15.480   9.315 -0.0932  0.1739  0.1645
  105loPI   C5A 1675  12.332  15.154   8.955  0.2060 -0.0783 -0.0698
  105loPI   C6A 1676  12.584  14.769   8.939  0.0077  0.0514  0.0678
  105loPI   C1B 1677  12.797  15.708  10.705  0.0088 -0.0116  0.1399
  105loPI   C2B 1678  12.764  15.670  10.190  0.3547  0.0710  0.1757
  105loPI   C3B 1679  12.810  15.496   9.820 -0.0209 -0.2719  0.1122
  105loPI   C4B 1680  12.745  15.460   9.411 -0.0695  0.0777 -0.2378
  106loPI    C1 1681   2.918  16.891  11.451  0.2014  0.0192  0.1996
  106loPI    C2 1682   2.676  17.039  11.734  0.0220  0.1231 -0.0045
  106loPI    C3 1683   2.755  16.647  11.722 -0.0388  0.1061  0.1361
  106loPI   PO4 1684   2.799  17.127  11.186 -0.0804 -0.1718  0.0025
  106loPI   GL1 1685   2.565  17.464  10.927  0.2565 -0.1222  0.1354
  106loPI   GL2 1686   2.254  17.336  10.908 -0.1632  0.1149  0.0381
  106loPI   C1A 1687   2.502  17.508  10.487 -0.2725  0.2425 -0.0798
  106loPI   C2A 1688   2.480  17.466  10.111 -0.0773  0.1040 -0.0237
  106loPI   C3A 1689   2.477  17.398   9.734  0.4062 -0.1753 -0.1678
  106loPI   C4A 1690   2.334  17.370   9.313  0.1869 -0.2512 -0.0316
  106loPI   C5A 1691   2.153  17.077   9.082  0.0128  0.3814 -0.1384
  106loPI   C6A 1692   2.196  16.656   8.919  0.0825 -0.0278 -0.0109
  106loPI   C1B 1693   2.030  17.311  10.467  0.0197 -0.2634  0.1095
  106loPI   C2B 1694   2.000  17.475  10.022  0.2529 -0.0697  0.2229
  106loPI   C3B 1695   1.949  17.444   9.652  0.1518 -0.2180  0.0744
  106loPI   C4B 1696   1.912  17.506   9.130 -0.1280 -0.2718 -0.0141
  107loPI    C1 1697   0.879   4.006  11.853 -0.1192  0.0466 -0.3566
  107loPI    C2 1698   0.497   4.047  11.964 -0.0969 -0.0407 -0.2464
  107loPI    C3 1699   0.760   4.338  12.042 -0.0906 -0.0830 -0.1067
  107loPI   PO4 1700   0.882   3.959  11.645  0.1170 -0.0169  0.2387
  107loPI   GL1 1701   1.066   4.142  11.251  0.1646  0.2057 -0.1389
  107loPI   GL2 1702   1.389   4.022  11.264 -0.2443  0.0489  0.0576
  107loPI   C1A 1703   1.115   3.921  10.849  0.2627 -0.0720  0.2455
  107loPI   C2A 1704   1.092   3.911  10.353  0.1658 -0.1588 -0.0372
  107loPI   C3A 1705   1.115   4.009   9.923  0.0206 -0.2241 -0.0420
  107loPI   C4A 1706   1.386   3.970   9.501  0.1823 -0.0817 -0.0616
  107loPI   C5A 1707   1.373   4.172   9.058 -0.1932 -0.0499 -0.0507
  107loPI   C6A 1708   1.200   4.458   8.709 -0.1184  0.0609  0.1589
  107loPI   C1B 1709   1.611   4.026  10.897  0.1860 -0.1794 -0.2419
  107loPI   C2B 1710   1.597   3.954  10.484 -0.1600  0.0819  0.4311
  107loPI   C3B 1711   1.620   3.885  10.003 -0.1704  0.1427 -0.3875
  107loPI   C4B 1712   1.880   3.938   9.755  0.1365 -0.3307  0.0440
  108loPI    C1 1713   0.561   7.334  12.159  0.0186  0.0112  0.0081
  108loPI    C2 1714   0.447   7.696  12.286  0.0399  0.0781 -0.1619
  108loPI    C3 1715   0.389   7.376  12.518 -0.1023  0.1716 -0.0672
  108loPI   PO4 1716   0.558   7.376  11.818  0.0082  0.1641  0.1686
  108loPI   GL1 1717   0.779   7.382  11.482 -0.1051  0.2818 -0.3237
  108loPI   GL2 1718   1.065   7.128  11.402  0.0271  0.0710  0.1807
  108loPI   C1A 1719   0.574   7.282  11.143  0.0919  0.3027  0.1720
  108loPI   C2A 1720   0.553   7.247  10.827 -0.0316 -0.0168 -0.2774
  108loPI   C3A 1721   0.552   7.207  10.391 -0.0226  0.2154 -0.1785
  108loPI   C4A 1722   0.687   7.239  10.047  0.1634 -0.2625 -0.1806
  108loPI   C5A 1723   0.792   7.152   9.603 -0.2129 -0.1437 -0.1011
  108loPI   C6A 1724   0.881   7.179   9.215  0.1167  0.0398  0.1580
  108loPI   C1B 1725   1.056   7.166  10.992 -0.1636 -0.0794 -0.2228
  108loPI   C2B 1726   1.122   7.207  10.561  0.0635 -0.0370 -0.2469
  108loPI   C3B 1727   1.223   7.146  10.111 -0.1827 -0.4697 -0.1527
  108loPI   C4B 1728   1.252   7.188   9.677 -0.0046  0.0788 -0.1135
  109loPI    C1 1729   6.412   2.507  11.772  0.0266 -0.2940  0.0707
  109loPI    C2 1730   6.212   2.769  11.998  0.1113 -0.0824 -0.0958
  109loPI    C3 1731   6.590   2.675  12.089  0.0792 -0.1514 -0.0330
  109loPI   PO4 1732   6.410   2.671  11.525 -0.3712 -0.1124 -0.1407
  109loPI   GL1 1733   6.574   2.682  11.141  0.3166  0.0737 -0.2102
  109loPI   GL2 1734   6.887   2.647  11.170  0.3119 -0.2044  0.1712
  109loPI   C1A 1735   6.432   2.696  10.718 -0.1830  0.0622  0.0891
  109loPI   C2A 1736   6.332   2.706  10.282  0.1587 -0.1121 -0.0650
  109loPI   C3A 1737   6.275   2.689   9.855  0.1561  0.0243  0.0888
  109loPI   C4A 1738   6.247   2.568   9.398 -0.0831 -0.0138  0.0973
  109loPI   C5A 1739   6.334   2.326   9.066  0.3229 -0.0049 -0.0752
  109loPI   C6A 1740   6.635   1.974   8.978  0.0473  0.1385  0.0677
  109loPI   C1B 1741   6.934   2.767  10.786 -0.2411  0.3184  0.1172
  109loPI   C2B 1742   6.942   2.653  10.350  0.0537 -0.0882  0.0015
  109loPI   C3B 1743   6.876   2.702   9.998  0.1594  0.0436  0.1337
  109loPI   C4B 1744   6.824   2.492   9.548  0.2380 -0.1265 -0.0370
  110loPI    C1 1745   3.252   8.703  11.936  0.3620  0.1188  0.0705
  110loPI    C2 1746   2.917   8.894  12.043  0.3945  0.4041 -0.3190
  110loPI    C3 1747   3.174   8.770  12.323 -0.0617  0.1248 -0.0109
  110loPI   PO4 1748   3.271   8.811  11.700  0.2579 -0.1248 -0.0107
  110loPI   GL1 1749   3.044   8.786  11.282 -0.3338  0.2538  0.1470
  110loPI   GL2 1750   3.341   8.599  11.253  0.0671 -0.2426 -0.2569
  110loPI   C1A 1751   2.893   8.883  10.847 -0.1451  0.0339  0.5679
  110loPI   C2A 1752   2.924   8.844  10.461  0.2710  0.0723 -0.1664
  110loPI   C3A 1753   2.850   8.924  10.052  0.1751 -0.3630  0.1775
  110loPI   C4A 1754   2.849   8.985   9.615 -0.2069 -0.3248 -0.1409
  110loPI   C5A 1755   2.923   8.925   9.218 -0.1808  0.1358  0.0263
  110loPI   C6A 1756   2.639   8.779   8.893 -0.1041  0.3015  0.2792
  110loPI   C1B 1757   3.100   8.383  10.960 -0.1067  0.1648  0.3156
  110loPI   C2B 1758   3.123   8.397  10.570  0.2375 -0.2320  0.1955
  110loPI   C3B 1759   3.100   8.418  10.135 -0.3112  0.1643  0.0370
  110loPI   C4B 1760   3.100   8.555   9.743  0.0399  0.1652  0.0383
  111loPI    C1 1761   8.327  11.723  11.749 -0.0621  0.0037  0.0122
  111loPI    C2 1762   8.266  11.462  12.046 -0.0905  0.0769  0.0711
  111loPI    C3 1763   8.040  11.446  11.716  0.0393 -0.0993 -0.0107
  111loPI   PO4 1764   8.491  11.776  11.714 -0.2882 -0.0360 -0.2028
  111loPI   GL1 1765   8.680  11.715  11.265  0.1133  0.1913  0.0107
  111loPI   GL2 1766   8.613  11.997  11.072 -0.0523  0.0122 -0.0865
  111loPI   C1A 1767   9.010  11.686  11.024 -0.1262  0.0300 -0.2232
  111loPI   C2A 1768   9.119  11.602  10.593 -0.0727 -0.0220 -0.1210
  111loPI   C3A 1769   9.127  11.501  10.186  0.0345  0.2863  0.0099
  111loPI   C4A 1770   9.148  11.529   9.743  0.1569  0.1630  0.2353
  111loPI   C5A 1771   9.291  11.330   9.359  0.1840 -0.0490  0.0412
  111loPI   C6A 1772   9.489  11.039   9.222  0.1888 -0.3228  0.1888
  111loPI   C1B 1773   8.596  11.695  10.767  0.0087  0.0428 -0.0170
  111loPI   C2B 1774   8.592  11.567  10.332  0.0313  0.3914 -0.0868
  111loPI   C3B 1775   8.630  11.515   9.881  0.0518 -0.3063 -0.1922
  111loPI   C4B 1776   8.593  11.449   9.473  0.1396 -0.0367 -0.2310
  112loPI    C1 1777  15.242   4.510  11.556 -0.0154 -0.1490  0.0880
  112loPI    C2 1778  15.275   4.745  11.878 -0.1518 -0.0418  0.0243
  112loPI    C3 1779  14.915   4.675  11.717 -0.0907 -0.1438 -0.0685
  112loPI   PO4 1780  15.374   4.618  11.379 -0.0599  0.2339 -0.1716
  112loPI   GL1 1781  15.547   4.430  10.984  0.1800  0.0379  0.3596
  112loPI   GL2 1782  15.717   4.185  10.843  0.3511  0.1146 -0.0597
  112loPI   C1A 1783  15.740   4.728  10.679  0.1389  0.1504 -0.0882
  112loPI   C2A 1784  15.803   4.697  10.219  0.0346 -0.1121 -0.0640
  112loPI   C3A 1785  15.917   4.669   9.777  0.1574 -0.0975 -0.1072
  112loPI   C4A 1786  16.052   4.602   9.349  0.1607 -0.1318 -0.0282
  112loPI   C5A 1787  16.428   4.515   9.215 -0.0347 -0.3077  0.0038
  112loPI   C6A 1788  16.594   4.367   8.782  0.1478  0.0845  0.0214
  112loPI   C1B 1789  15.664   4.205  10.436 -0.4159 -0.1052  0.0394
  112loPI   C2B 1790  15.653   4.282   9.922  0.0677 -0.1509 -0.1408
  112loPI   C3B 1791  15.709   4.259   9.434 -0.1363 -0.0050  0.1456
  112loPI   C4B 1792  15.639   4.017   9.043 -0.1754  0.1046 -0.1104
  113loPI    C1 1793  10.699  15.015  11.937  0.2183 -0.1527 -0.1640
  113loPI    C2 1794  10.397  14.753  11.942  0.2167 -0.1496 -0.0684
  113loPI    C3 1795  10.560  14.876  12.286  0.1625  0.0380 -0.1091
  113loPI   PO4 1796  10.731  15.048  11.642 -0.0960 -0.0214  0.2242
  113loPI   GL1 1797  10.459  14.832  11.344  0.0153  0.0814  0.1370
  113loPI   GL2 1798  10.542  14.582  11.356  0.2293 -0.0368 -0.1704
  113loPI   C1A 1799  10.553  14.855  10.847 -0.0561 -0.0736  0.0285
  113loPI   C2A 1800  10.629  14.816  10.372 -0.1650  0.0736  0.0779
  113loPI   C3A 1801  10.593  14.666  10.024  0.2208  0.0031  0.0025
  113loPI   C4A 1802  10.645  14.493   9.561 -0.1496  0.2089  0.2717
  113loPI   C5A 1803  10.875  14.462   9.101 -0.1273  0.0785 -0.1176
  113loPI   C6A 1804  11.157  14.719   8.835 -0.2358 -0.3447  0.0056
  113loPI   C1B 1805  10.511  14.389  10.992 -0.0180  0.0591 -0.0192
  113loPI   C2B 1806  10.457  14.343  10.657  0.2668 -0.0475  0.2420
  113loPI   C3B 1807  10.385  14.228  10.266 -0.0870 -0.1810  0.2197
  113loPI   C4B 1808  10.351  14.156   9.789 -0.1114 -0.0438 -0.2571
  114loPI    C1 1809   2.666   3.296  11.803 -0.2789 -0.1806 -0.0631
  114loPI    C2 1810   2.301   3.433  11.892 -0.2207 -0.2233  0.2540
  114loPI    C3 1811   2.593   3.450  12.165  0.0567 -0.0529 -0.0466
  114loPI   PO4 1812   2.778   3.432  11.596 -0.5317 -0.0750 -0.0381
  114loPI   GL1 1813   2.842   3.584  11.168  0.0566  0.2406  0.2624
  114loPI   GL2 1814   2.825   3.263  11.166  0.2569  0.3541 -0.1165
  114loPI   C1A 1815   2.429   3.532  11.021  0.1462 -0.1775  0.1258
  114loPI   C2A 1816   2.383   3.538  10.677  0.1664  0.1512  0.3947
  114loPI   C3A 1817   2.485   3.521  10.306 -0.0024  0.1904 -0.0374
  114loPI   C4A 1818   2.404   3.401   9.977  0.2422 -0.2598 -0.0456
  114loPI   C5A 1819   2.420   3.346   9.541  0.1378 -0.0309  0.1564
  114loPI   C6A 1820   2.098   3.331   9.190  0.1492 -0.1473 -0.2341
  114loPI   C1B 1821   2.871   3.399  10.694  0.0696 -0.2226 -0.0551
  114loPI   C2B 1822   2.961   3.480  10.359 -0.0865  0.0491  0.3426
  114loPI   C3B 1823   2.979   3.360   9.868 -0.2902  0.0196  0.6484
  114loPI   C4B 1824   2.901   3.437   9.458 -0.1605  0.0110 -0.1534
  115loPI    C1 1825   3.557  11.093  11.808  0.2536  0.0918 -0.1173
  115loPI    C2 1826   3.910  11.152  11.988  0.1786  0.1047  0.0275
  115loPI    C3 1827   3.571  11.190  12.196  0.0888  0.1508 -0.1255
  115loPI   PO4 1828   3.548  11.190  11.563 -0.0495  0.3035 -0.2711
  115loPI   GL1 1829   3.573  11.220  11.097  0.1718 -0.0061 -0.0211
  115loPI   GL2 1830   3.800  11.257  10.984 -0.0858  0.0506  0.0713
  115loPI   C1A 1831   3.291  11.207  10.720  0.3242 -0.0121 -0.3264
  115loPI   C2A 1832   3.357  11.161  10.241 -0.0164  0.0751 -0.0549
  115loPI   C3A 1833   3.234  11.074   9.841 -0.1619  0.0599 -0.1314
  115loPI   C4A 1834   3.126  11.279   9.420  0.2227 -0.0986  0.0174
  115loPI   C5A 1835   2.858  11.495   9.170 -0.0272 -0.1450 -0.2076
  115loPI   C6A 1836   2.786  11.842   8.928  0.0020  0.1112 -0.2588
  115loPI   C1B 1837   3.833  11.142  10.517  0.0119 -0.0892 -0.1390
  115loPI   C2B 1838   3.908  11.052  10.049  0.2188 -0.0514  0.0817
  115loPI   C3B 1839   3.916  11.132   9.675  0.0061  0.0910  0.1928
  115loPI   C4B 1840   3.606  11.242   9.315 -0.2971  0.1474  0.0799
  116loPI    C1 1841  15.242  15.053  11.975 -0.2080  0.0285  0.1026
  116loPI    C2 1842  15.402  14.750  12.181 -0.0742  0.1277  0.1459
  116loPI    C3 1843  15.032  14.717  12.032 -0.0330 -0.0847  0.0862
  116loPI   PO4 1844  15.390  15.084  11.680  0.0792 -0.4457 -0.1514
  116loPI   GL1 1845  15.408  15.359  11.215  0.3130 -0.0790  0.0858
  116loPI   GL2 1846  15.174  15.119  11.144 -0.1310 -0.1338  0.0511
  116loPI   C1A 1847  15.496  15.417  10.822  0.1198  0.2337  0.1646
  116loPI   C2A 1848  15.490  15.381  10.347 -0.1272  0.0185  0.0459
  116loPI   C3A 1849  15.358  15.352   9.859  0.0954 -0.1568 -0.2728
  116loPI   C4A 1850  15.317  15.316   9.366  0.2174  0.1062  0.1658
  116loPI   C5A 1851  15.189  15.012   8.958 -0.2715  0.2939  0.1680
  116loPI   C6A 1852  14.832  14.996   8.763  0.0614  0.2101  0.1390
  116loPI   C1B 1853  15.188  15.061  10.678 -0.0244  0.3816 -0.1019
  116loPI   C2B 1854  15.035  14.939  10.287  0.1653  0.1328 -0.0351
  116loPI   C3B 1855  15.056  14.977   9.898  0.0048  0.1986 -0.2182
  116loPI   C4B 1856  15.107  14.890   9.530  0.0716  0.1719 -0.0024
  117loPI    C1 1857  11.956   5.387  11.843 -0.0387  0.1183 -0.0387
  117loPI    C2 1858  12.351   5.349  11.893 -0.0301 -0.0824 -0.2431
  117loPI    C3 1859  12.192   5.709  11.820  0.1149 -0.0021 -0.1678
  117loPI   PO4 1860  11.862   5.240  11.658  0.1997 -0.2622 -0.3959
  117loPI   GL1 1861  11.719   5.332  11.167 -0.0190 -0.0927  0.1612
  117loPI   GL2 1862  11.590   5.474  10.971 -0.4389 -0.1235  0.0383
  117loPI   C1A 1863  12.038   5.341  10.902  0.0128 -0.0437  0.0153
  117loPI   C2A 1864  12.214   5.292  10.410  0.0702  0.1955  0.4798
  117loPI   C3A 1865  12.251   5.329   9.934  0.0319  0.0306 -0.0184
  117loPI   C4A 1866  12.124   5.395   9.474  0.2657  0.1851 -0.1110
  117loPI   C5A 1867  12.058   5.696   9.139  0.1677  0.0252 -0.2016
  117loPI   C6A 1868  11.708   5.891   8.857 -0.1682  0.0169  0.1820
  117loPI   C1B 1869  11.704   5.506  10.504  0.0069 -0.1501 -0.0525
  117loPI   C2B 1870  11.792   5.583  10.201  0.1220  0.0265  0.0744
  117loPI   C3B 1871  11.732   5.429   9.760 -0.1118  0.2189 -0.0298
  117loPI   C4B 1872  11.500   5.638   9.475  0.2964  0.0999  0.0385
  118loPI    C1 1873   3.441   0.732  11.730  0.0996 -0.0559  0.0022
  118loPI    C2 1874   3.219   1.065  11.737  0.1605 -0.0081 -0.2313
  118loPI    C3 1875   3.614   1.087  11.799  0.1795 -0.0235 -0.3457
  118loPI   PO4 1876   3.252   0.613  11.459 -0.2380 -0.0164  0.0502
  118loPI   GL1 1877   3.076   0.471  11.017  0.0609 -0.4015 -0.1944
  118loPI   GL2 1878   3.268   0.651  10.895  0.0942 -0.2106 -0.1945
  118loPI   C1A 1879   2.958   0.286  10.596  0.1482  0.1063  0.0720
  118loPI   C2A 1880   3.002   0.283  10.252  0.3395  0.1931  0.0500
  118loPI   C3A 1881   3.014   0.358   9.802 -0.1263 -0.2210 -0.1341
  118loPI   C4A 1882   2.941   0.280   9.427 -0.3466  0.0726 -0.1805
  118loPI   C5A 1883   2.715   0.010   9.075 -0.0390 -0.0744  0.0239
  118loPI   C6A 1884   2.709  -0.307   8.862  0.0215  0.0564  0.5028
  118loPI   C1B 1885   3.234   0.739  10.455  0.2283 -0.1980  0.0586
  118loPI   C2B 1886   3.189   0.751  10.133 -0.0487  0.0070  0.1106
  118loPI   C3B 1887   3.295   0.755   9.685 -0.0714  0.0843 -0.1345
  118loPI   C4B 1888   3.142   0.718   9.266 -0.0353  0.0620 -0.1448
  119loPI    C1 1889  12.083  16.427  11.686  0.1119 -0.0348  0.0125
  119loPI    C2 1890  12.187  16.167  11.972 -0.1318 -0.0943  0.0494
  119loPI    C3 1891  11.838  16.361  11.996 -0.0576  0.0594 -0.0998
  119loPI   PO4 1892  12.193  16.284  11.396  0.0398 -0.3704  0.0008
  119loPI   GL1 1893  12.050  16.012  11.105  0.0131 -0.1870 -0.0014
  119loPI   GL2 1894  11.706  15.853  11.103  0.2437  0.1887 -0.1554
  119loPI   C1A 1895  11.962  16.034  10.634 -0.1127  0.0031 -0.0832
  119loPI   C2A 1896  12.064  16.016  10.210 -0.0908 -0.3642 -0.2397
  119loPI   C3A 1897  12.030  15.998   9.929 -0.1745  0.2477  0.1005
  119loPI   C4A 1898  12.066  15.986   9.505  0.0030  0.1107  0.1151
  119loPI   C5A 1899  11.887  15.824   9.203 -0.0725  0.1940  0.0585
  119loPI   C6A 1900  11.491  15.763   8.866  0.0207  0.2851 -0.2204
  119loPI   C1B 1901  11.641  15.687  10.709  0.0560 -0.1204  0.3574
  119loPI   C2B 1902  11.752  15.667  10.339  0.0871 -0.0006  0.1500
  119loPI   C3B 1903  11.670  15.603   9.905 -0.1874  0.1010 -0.1851
  119loPI   C4B 1904  11.762  15.456   9.538  0.4613  0.2949 -0.0718
  120loPI    C1 1905   1.151  13.787  11.864 -0.1590  0.1671 -0.1498
  120loPI    C2 1906   0.925  13.898  12.175 -0.1220  0.0336 -0.0747
  120loPI    C3 1907   1.292  13.751  12.236 -0.1642 -0.1150 -0.1731
  120loPI   PO4 1908   0.856  13.845  11.619  0.0526  0.1032  0.0420
  120loPI   GL1 1909   0.905  13.668  11.152  0.0987 -0.0149 -0.0625
  120loPI   GL2 1910   0.621  13.562  11.091  0.1801  0.0221 -0.2038
  120loPI   C1A 1911   0.995  13.423  10.803  0.1024  0.0934  0.1939
  120loPI   C2A 1912   0.935  13.271  10.353  0.1771 -0.1093  0.4833
  120loPI   C3A 1913   0.899  13.248   9.935  0.0293 -0.0941  0.1764
  120loPI   C4A 1914   0.683  13.379   9.591 -0.2084  0.1043 -0.1594
  120loPI   C5A 1915   0.712  13.342   9.173  0.2554  0.3061  0.0867
  120loPI   C6A 1916   0.424  13.316   8.846  0.1720  0.0769 -0.2459
  120loPI   C1B 1917   0.428  13.435  10.723  0.0421 -0.0688 -0.0349
  120loPI   C2B 1918   0.268  13.349  10.248  0.0439  0.0015 -0.0033
  120loPI   C3B 1919   0.260  13.229   9.856  0.2553 -0.2452  0.1741
  120loPI   C4B 1920   0.218  13.237   9.357 -0.3439  0.1306  0.1645
  121loPI    C1 1921  11.726   8.937  11.899 -0.5502  0.0089 -0.0318
  121loPI    C2 1922  12.025   8.779  12.112 -0.3032  0.3369 -0.1276
  121loPI    C3 1923  11.651   8.647  12.165 -0.1117 -0.2614 -0.1934
  121loPI   PO4 1924  11.739   8.921  11.613  0.0022  0.2269  0.0432
  121loPI   GL1 1925  11.662   8.617  11.298  0.1094 -0.0944 -0.1218
  121loPI   GL2 1926  11.609   8.855  11.123 -0.2001  0.0009 -0.0581
  121loPI   C1A 1927  12.010   8.587  10.975  0.1695  0.0462  0.1748
  121loPI   C2A 1928  12.010   8.713  10.543  0.1679 -0.0289  0.3519
  121loPI   C3A 1929  12.111   8.691  10.076 -0.0647  0.0841 -0.0449
  121loPI   C4A 1930  12.067   8.662   9.641  0.0597  0.1507  0.2416
  121loPI   C5A 1931  12.020   8.634   9.210 -0.1213  0.1177  0.0364
  121loPI   C6A 1932  11.950   8.457   8.777 -0.2578 -0.2504  0.1867
  121loPI   C1B 1933  11.514   8.717  10.780 -0.1686 -0.0059 -0.0133
  121loPI   C2B 1934  11.522   8.695  10.343  0.0453 -0.1878  0.0372
  121loPI   C3B 1935  11.566   8.703   9.911 -0.1514  0.1827 -0.1640
  121loPI   C4B 1936  11.625   8.804   9.462  0.1288 -0.0074  0.0256
  122loPI    C1 1937  16.278   3.310  11.684  0.0333  0.0668 -0.0836
  122loPI    C2 1938  16.522   3.099  11.920  0.1574  0.0788 -0.1994
  122loPI    C3 1939  16.652   3.437  11.750 -0.0819  0.3235  0.0923
  122loPI   PO4 1940  16.241   3.132  11.519 -0.0413 -0.0203 -0.0151
  122loPI   GL1 1941  16.361   2.913  11.116  0.1099 -0.4028 -0.1395
  122loPI   GL2 1942  16.080   2.760  11.000 -0.2707 -0.2010 -0.1274
  122loPI   C1A 1943  16.572   3.169  10.810  0.0654  0.0940  0.1196
  122loPI   C2A 1944  16.509   3.192  10.356 -0.0128 -0.0414  0.0395
  122loPI   C3A 1945  16.567   3.159   9.916  0.0835  0.2555  0.1475
  122loPI   C4A 1946  16.490   3.100   9.548 -0.0156  0.2988  0.0730
  122loPI   C5A 1947  16.291   3.127   9.100 -0.1406 -0.0874 -0.0783
  122loPI   C6A 1948  15.863   2.889   8.960  0.1397 -0.1437 -0.0387
  122loPI   C1B 1949  16.196   2.739  10.606  0.0525  0.0702  0.1211
  122loPI   C2B 1950  16.270   2.740  10.181  0.0154  0.1390  0.1240
  122loPI   C3B 1951  16.272   2.733   9.802  0.0395  0.3511 -0.3842
  122loPI   C4B 1952  16.436   2.669   9.349 -0.1464 -0.1206  0.1139
  123loPI    C1 1953  14.862  11.760  11.751  0.2330  0.0010 -0.4231
  123loPI    C2 1954  14.988  11.398  11.867 -0.1865 -0.0244 -0.0191
  123loPI    C3 1955  15.040  11.715  12.107 -0.1078  0.1258 -0.2320
  123loPI   PO4 1956  15.020  11.722  11.461 -0.1688 -0.0012 -0.0221
  123loPI   GL1 1957  14.811  11.524  11.081 -0.0148 -0.1551  0.2981
  123loPI   GL2 1958  14.928  11.371  10.813 -0.0997  0.0590 -0.0588
  123loPI   C1A 1959  14.693  11.855  10.745 -0.1748 -0.0110  0.1278
  123loPI   C2A 1960  14.631  11.753  10.353 -0.0964  0.1527  0.1428
  123loPI   C3A 1961  14.689  11.755   9.965  0.1160 -0.0814  0.0278
  123loPI   C4A 1962  14.613  11.773   9.490  0.1569 -0.1038 -0.1237
  123loPI   C5A 1963  14.510  11.923   9.070 -0.2524  0.1021 -0.0947
  123loPI   C6A 1964  14.623  12.224   8.865  0.1639  0.1809 -0.1341
  123loPI   C1B 1965  14.944  11.262  10.408 -0.2490  0.0982 -0.3432
  123loPI   C2B 1966  14.867  11.277   9.961 -0.1236  0.1643 -0.1263
  123loPI   C3B 1967  14.924  11.175   9.640 -0.0702  0.5309 -0.2087
  123loPI   C4B 1968  15.064  10.987   9.277  0.1351 -0.1294  0.1449
  124loPI    C1 1969   2.729   0.455  11.686  0.1234 -0.1186 -0.0747
  124loPI    C2 1970   3.061   0.253  11.778  0.2417  0.0776 -0.0662
  124loPI    C3 1971   2.990   0.609  11.946 -0.2100 -0.1771  0.3041
  124loPI   PO4 1972   2.749   0.537  11.407  0.0968 -0.3228 -0.0303
  124loPI   GL1 1973   2.800   0.927  11.268 -0.2117 -0.0368  0.3756
  124loPI   GL2 1974   3.115   1.054  11.164 -0.0267  0.0592 -0.2801
  124loPI   C1A 1975   2.797   0.795  10.717  0.0555 -0.0315  0.1513
  124loPI   C2A 1976   2.729   0.788  10.283 -0.0692  0.0182 -0.1596
  124loPI   C3A 1977   2.716   0.811   9.984  0.0279  0.2989  0.2586
  124loPI   C4A 1978   2.692   0.741   9.571 -0.1880  0.0710  0.1633
  124loPI   C5A 1979   2.617   0.608   9.105  0.1687  0.0561  0.3908
  124loPI   C6A 1980   2.330   0.484   8.808 -0.0103  0.2108  0.0266
  124loPI   C1B 1981   2.997   1.237  10.743 -0.1560 -0.0658 -0.1731
  124loPI   C2B 1982   3.111   1.240  10.342  0.1180  0.4241  0.1393
  124loPI   C3B 1983   2.997   1.213   9.998  0.0657  0.0268 -0.0354
  124loPI   C4B 1984   3.058   1.137   9.502  0.0830  0.0778 -0.1447
  125loPI    C1 1985  13.399   6.580  11.624 -0.1330 -0.2728  0.0539
  125loPI    C2 1986  13.715   6.553  11.868  0.0084 -0.2291 -0.1218
  125loPI    C3 1987  13.431   6.826  11.937  0.2088 -0.0017 -0.1856
  125loPI   PO4 1988  13.491   6.644  11.382 -0.0828  0.2164 -0.1093
  125loPI   GL1 1989  13.301   6.674  11.065 -0.1806  0.0531  0.0789
  125loPI   GL2 1990  12.981   6.649  11.031 -0.3227  0.2209  0.1602
  125loPI   C1A 1991  13.493   6.705  10.627  0.1382  0.2219  0.2780
  125loPI   C2A 1992  13.467   6.798  10.128  0.1942  0.3454 -0.2221
  125loPI   C3A 1993  13.554   6.781   9.671  0.0137  0.1853  0.0430
  125loPI   C4A 1994  13.611   6.718   9.275 -0.1469 -0.0266 -0.2904
  125loPI   C5A 1995  13.419   6.495   8.975  0.0098 -0.1592  0.2604
  125loPI   C6A 1996  13.240   6.789   8.663 -0.1382 -0.1196  0.1032
  125loPI   C1B 1997  13.000   6.694  10.561  0.1907  0.3116 -0.1034
  125loPI   C2B 1998  12.914   6.769  10.200 -0.0329  0.1124 -0.3098
  125loPI   C3B 1999  12.996   6.762   9.793  0.1381 -0.2339  0.0813
  125loPI   C4B 2000  13.084   6.870   9.347 -0.1885  0.0049  0.1850
  126loPI    C1 2001  12.977   4.211  11.367 -0.0221  0.0695 -0.0803
  126loPI    C2 2002  12.749   3.931  11.194 -0.1481  0.1460 -0.0396
  126loPI    C3 2003  13.017   3.827  11.473 -0.1751  0.0629 -0.0443
  126loPI   PO4 2004  12.835   4.450  11.205  0.1035 -0.1451  0.2161
  126loPI   GL1 2005  12.816   4.645  10.826 -0.2231  0.1043 -0.0490
  126loPI   GL2 2006  12.888   4.887  10.654  0.2403 -0.0232  0.1984
  126loPI   C1A 2007  13.173   4.501  10.558  0.1025 -0.0780 -0.0120
  126loPI   C2A 2008  13.182   4.486  10.110  0.0280  0.0835 -0.0155
  126loPI   C3A 2009  13.099   4.546   9.821 -0.4216 -0.0056 -0.0331
  126loPI   C4A 2010  13.112   4.593   9.396 -0.1895 -0.0051  0.0871
  126loPI   C5A 2011  13.200   4.685   9.093 -0.2636 -0.0808  0.1262
  126loPI   C6A 2012  13.167   4.764   8.666 -0.3123 -0.1805 -0.0002
  126loPI   C1B 2013  12.994   4.955  10.192 -0.1005  0.2452 -0.0495
  126loPI   C2B 2014  12.979   4.996   9.875  0.3480 -0.1304 -0.1320
  126loPI   C3B 2015  12.888   5.025   9.440  0.1392 -0.0930 -0.0569
  126loPI   C4B 2016  12.961   5.185   8.974  0.3080  0.0334 -0.2237
  127loPI    C1 2017  13.588   0.997  11.274  0.2064  0.0934 -0.1451
  127loPI    C2 2018  13.252   0.882  11.091  0.1444 -0.0580  0.0604
  127loPI    C3 2019  13.234   1.137  11.398  0.2415  0.1379 -0.0948
  127loPI   PO4 2020  13.714   1.016  11.080 -0.1061 -0.0155 -0.0362
  127loPI   GL1 2021  13.910   0.926  10.724 -0.1761  0.1205  0.0062
  127loPI   GL2 2022  14.105   0.706  10.641 -0.0513 -0.3382  0.2795
  127loPI   C1A 2023  13.684   0.716  10.404  0.1253  0.4958 -0.0133
  127loPI   C2A 2024  13.723   0.645   9.998  0.2821 -0.2459 -0.1393
  127loPI   C3A 2025  13.776   0.510   9.612 -0.0155 -0.4172  0.2975
  127loPI   C4A 2026  13.783   0.388   9.178  0.0978 -0.1768 -0.1533
  127loPI   C5A 2027  13.509   0.360   8.806 -0.0605  0.0079 -0.0771
  127loPI   C6A 2028  13.089   0.465   8.650  0.0968  0.0095  0.1153
  127loPI   C1B 2029  14.131   0.870  10.274  0.1276  0.1184  0.1796
  127loPI   C2B 2030  14.156   0.874   9.907  0.5639  0.2252 -0.0393
  127loPI   C3B 2031  14.211   0.950   9.416 -0.3511 -0.0354  0.1544
  127loPI   C4B 2032  14.178   0.874   8.987 -0.1755 -0.1868 -0.0479
  128loPI    C1 2033   8.116   3.558  11.508 -0.1960 -0.1723 -0.0789
  128loPI    C2 2034   8.141   3.847  11.232 -0.1386 -0.0550  0.0479
  128loPI    C3 2035   8.220   3.930  11.616 -0.2269 -0.2150  0.1014
  128loPI   PO4 2036   7.827   3.478  11.476  0.3027  0.0630 -0.2070
  128loPI   GL1 2037   7.648   3.310  11.119  0.2123 -0.0046  0.1577
  128loPI   GL2 2038   7.636   3.512  10.780 -0.1161 -0.0277 -0.0536
  128loPI   C1A 2039   7.316   3.092  10.840 -0.2407  0.1176  0.0439
  128loPI   C2A 2040   7.222   3.133  10.484  0.2298  0.1441 -0.1200
  128loPI   C3A 2041   7.100   3.123  10.085  0.0909 -0.0764 -0.1940
  128loPI   C4A 2042   7.180   3.180   9.630 -0.2590  0.1110  0.3537
  128loPI   C5A 2043   7.210   3.281   9.142  0.1182  0.0600  0.1549
  128loPI   C6A 2044   7.452   3.228   8.821  0.0472 -0.1112  0.2225
  128loPI   C1B 2045   7.463   3.481  10.313 -0.0292 -0.0000 -0.1773
  128loPI   C2B 2046   7.406   3.606   9.827  0.1541 -0.1856 -0.1155
  128loPI   C3B 2047   7.419   3.582   9.460  0.1985  0.0551  0.0252
  128loPI   C4B 2048   7.569   3.675   9.106 -0.0653  0.1078  0.2104
  129loPI    C1 2049   3.094  11.168  11.862 -0.2380 -0.0653 -0.0211
  129loPI    C2 2050   2.877  11.083  12.187 -0.2090 -0.1092 -0.0130
  129loPI    C3 2051   3.200  10.864  12.100  0.0921  0.2316  0.2214
  129loPI   PO4 2052   2.966  11.362  11.711  0.0418  0.2263 -0.0310
  129loPI   GL1 2053   2.807  11.521  11.269 -0.3714 -0.0820 -0.0271
  129loPI   GL2 2054   2.944  11.712  11.070 -0.1493  0.3934 -0.2705
  129loPI   C1A 2055   2.786  11.294  10.890 -0.1836  0.1950 -0.1409
  129loPI   C2A 2056   2.854  11.254  10.526 -0.3252 -0.1421 -0.1083
  129loPI   C3A 2057   2.816  11.209  10.073  0.1800 -0.0433 -0.1103
  129loPI   C4A 2058   2.641  11.233   9.597 -0.0600 -0.1123 -0.2955
  129loPI   C5A 2059   2.543  11.158   9.171 -0.1440  0.1470 -0.1202
  129loPI   C6A 2060   2.587  11.354   8.794 -0.0537 -0.0283  0.1008
  129loPI   C1B 2061   3.150  11.781  10.738  0.0585 -0.1076  0.1776
  129loPI   C2B 2062   3.189  11.623  10.324  0.2092 -0.2014  0.1939
  129loPI   C3B 2063   3.097  11.585   9.952  0.2031  0.0666 -0.1802
  129loPI   C4B 2064   2.991  11.746   9.667  0.2034 -0.0271  0.1568
  130loPI    C1 2065   4.503  11.389  11.315 -0.2538 -0.2175 -0.0063
  130loPI    C2 2066   4.626  11.010  11.340  0.2863 -0.0415  0.1303
  130loPI    C3 2067   4.502  11.202  11.668  0.2422 -0.0257  0.1045
  130loPI   PO4 2068   4.297  11.376  11.167  0.1689  0.0491 -0.0745
  130loPI   GL1 2069   4.350  11.146  10.787 -0.0556 -0.0483 -0.0521
  130loPI   GL2 2070   4.246  10.869  10.943  0.0790  0.1655 -0.0235
  130loPI   C1A 2071   4.406  11.005  10.327 -0.0698 -0.1715 -0.2600
  130loPI   C2A 2072   4.416  11.018   9.862  0.3177  0.2158  0.1952
  130loPI   C3A 2073   4.343  10.969   9.382 -0.0793  0.0574  0.1437
  130loPI   C4A 2074   4.116  11.227   9.139 -0.1593 -0.0754 -0.1121
  130loPI   C5A 2075   4.135  11.621   8.863 -0.0939  0.4527 -0.0804
  130loPI   C6A 2076   3.869  11.687   8.505  0.0835  0.0943 -0.2113
  130loPI   C1B 2077   4.126  10.625  10.551 -0.1799  0.3659  0.0326
  130loPI   C2B 2078   4.110  10.612  10.045 -0.0579 -0.0950  0.0922
  130loPI   C3B 2079   3.950  10.662   9.540  0.2141  0.0522 -0.0556
  130loPI   C4B 2080   3.949  10.585   9.057 -0.5773 -0.2226 -0.0110
  131loPI    C1 2081   8.479  16.786  11.560  0.0036  0.0433  0.0019
  131loPI    C2 2082   8.139  16.912  11.728 -0.0078  0.1112 -0.0720
  131loPI    C3 2083   8.178  16.529  11.620  0.0517  0.0345  0.2133
  131loPI   PO4 2084   8.475  16.994  11.308 -0.1844  0.2856 -0.1409
  131loPI   GL1 2085   8.446  16.924  10.905 -0.0275  0.0812  0.3186
  131loPI   GL2 2086   8.564  16.672  10.735 -0.2830  0.0660  0.3222
  131loPI   C1A 2087   8.261  17.139  10.529  0.0288  0.0449 -0.0114
  131loPI   C2A 2088   8.253  17.215  10.136 -0.1062  0.2661 -0.0653
  131loPI   C3A 2089   8.307  17.282   9.686  0.3914 -0.1192  0.3361
  131loPI   C4A 2090   7.993  17.428   9.361  0.0290 -0.1123  0.0209
  131loPI   C5A 2091   8.091  17.584   9.035 -0.0189 -0.1028  0.0751
  131loPI   C6A 2092   8.101  18.012   8.937 -0.0271  0.0262  0.3440
  131loPI   C1B 2093   8.515  16.765  10.303  0.0974  0.0071 -0.1126
  131loPI   C2B 2094   8.503  16.791   9.887 -0.0019 -0.2249  0.0278
  131loPI   C3B 2095   8.549  16.913   9.441  0.0646 -0.0704 -0.0528
  131loPI   C4B 2096   8.345  17.110   9.131  0.3660 -0.2653 -0.1177
  132loPI    C1 2097  15.994   8.576  11.517  0.0434 -0.0566  0.0029
  132loPI    C2 2098  16.037   8.782  11.857 -0.0300  0.0642 -0.0603
  132loPI    C3 2099  15.748   8.508  11.825 -0.1266  0.1678 -0.0808
  132loPI   PO4 2100  16.295   8.518  11.477  0.0226 -0.3476 -0.0224
  132loPI   GL1 2101  16.415   8.463  11.138 -0.1447  0.0903 -0.0846
  132loPI   GL2 2102  16.662   8.272  11.210  0.1516  0.1803  0.0270
  132loPI   C1A 2103  16.433   8.726  10.760 -0.3734  0.1517 -0.1296
  132loPI   C2A 2104  16.519   8.671  10.424  0.1206 -0.2625 -0.2041
  132loPI   C3A 2105  16.518   8.707  10.078 -0.0555  0.0646  0.1664
  132loPI   C4A 2106  16.571   8.670   9.620  0.0878 -0.2812 -0.1981
  132loPI   C5A 2107  16.512   8.497   9.144 -0.3431  0.2008  0.0089
  132loPI   C6A 2108  16.690   8.395   8.716  0.0279  0.2189  0.2676
  132loPI   C1B 2109  16.642   8.216  10.778 -0.0043 -0.3419 -0.1157
  132loPI   C2B 2110  16.752   8.248  10.441 -0.0844 -0.1090 -0.1498
  132loPI   C3B 2111  16.715   8.234   9.973 -0.1430 -0.0848 -0.1087
  132loPI   C4B 2112  16.787   8.212   9.612  0.3323 -0.0921 -0.0936
  133loPI    C1 2113   1.121   2.849  11.828 -0.0246  0.1787  0.0490
  133loPI    C2 2114   1.382   3.134  11.929  0.0435  0.1453 -0.0309
  133loPI    C3 2115   1.498   2.752  11.916  0.0865  0.1676 -0.4108
  133loPI   PO4 2116   0.973   2.866  11.590  0.1815 -0.1591  0.0252
  133loPI   GL1 2117   1.205   2.882  11.147 -0.2176  0.2061 -0.0533
  133loPI   GL2 2118   1.114   3.188  11.250 -0.2796 -0.0506 -0.2225
  133loPI   C1A 2119   1.228   2.656  10.713  0.0000 -0.2430 -0.3340
  133loPI   C2A 2120   1.348   2.659  10.247  0.1687 -0.0583  0.1979
  133loPI   C3A 2121   1.321   2.670   9.778 -0.2911  0.2526  0.1645
  133loPI   C4A 2122   1.309   2.648   9.315 -0.2268 -0.0689  0.1553
  133loPI   C5A 2123   1.570   2.539   8.992  0.1762  0.1697  0.3084
  133loPI   C6A 2124   1.770   2.246   8.686  0.1182  0.1380 -0.0855
  133loPI   C1B 2125   1.128   3.117  10.723  0.0891 -0.0774  0.1721
  133loPI   C2B 2126   1.155   3.103  10.287  0.0193 -0.2620  0.2823
  133loPI   C3B 2127   1.116   3.106   9.918  0.2488  0.4708  0.2541
  133loPI   C4B 2128   1.128   3.074   9.475 -0.2754  0.1086 -0.2012
  134loPI    C1 2129  14.490  11.366  11.708  0.0779 -0.0367  0.0170
  134loPI    C2 2130  14.137  11.494  11.569  0.0213 -0.1028  0.0991
  134loPI    C3 2131  14.157  11.305  11.921  0.1456 -0.0551  0.1181
  134loPI   PO4 2132  14.615  11.304  11.502 -0.0382 -0.0979  0.1160
  134loPI   GL1 2133  14.353  11.312  11.166 -0.2785 -0.0840 -0.1249
  134loPI   GL2 2134  14.236  11.061  11.061  0.1793 -0.2553 -0.1617
  134loPI   C1A 2135  14.460  11.383  10.757 -0.1515  0.1174  0.2894
  134loPI   C2A 2136  14.420  11.305  10.375  0.0150  0.0227 -0.1689
  134loPI   C3A 2137  14.321  11.284   9.903 -0.1428  0.1535 -0.0543
  134loPI   C4A 2138  14.488  11.299   9.494 -0.0157  0.2966  0.1072
  134loPI   C5A 2139  14.330  11.444   9.067 -0.0405 -0.3503  0.1247
  134loPI   C6A 2140  13.875  11.462   8.892 -0.0751 -0.5029  0.3613
  134loPI   C1B 2141  14.152  10.980  10.618  0.0683  0.1313 -0.0210
  134loPI   C2B 2142  14.112  10.956  10.194 -0.0049 -0.1284  0.0565
  134loPI   C3B 2143  14.018  10.842   9.845 -0.1817 -0.0312 -0.0215
  134loPI   C4B 2144  13.913  10.770   9.458 -0.3067 -0.0051 -0.0742
  135loPI    C1 2145   7.929   7.717  11.556 -0.0497  0.3052 -0.1005
  135loPI    C2 2146   7.957   7.579  11.931 -0.2631 -0.1926 -0.2607
  135loPI    C3 2147   8.285   7.703  11.739 -0.1927  0.3592  0.1892
  135loPI   PO4 2148   7.740   7.503  11.457  0.0452  0.1580  0.1487
  135loPI   GL1 2149   7.485   7.567  11.025  0.0420 -0.3880 -0.0444
  135loPI   GL2 2150   7.248   7.569  11.080 -0.0883 -0.1079  0.1141
  135loPI   C1A 2151   7.492   7.719  10.579  0.0777  0.0907  0.0580
  135loPI   C2A 2152   7.451   7.653  10.098 -0.2987  0.0570 -0.0155
  135loPI   C3A 2153   7.611   7.698   9.609 -0.0773  0.2852  0.4584
  135loPI   C4A 2154   7.637   7.539   9.244  0.1228  0.1011 -0.0134
  135loPI   C5A 2155   8.043   7.393   9.109  0.2870 -0.1752 -0.3409
  135loPI   C6A 2156   8.128   7.070   8.834 -0.2443 -0.3727 -0.0566
  135loPI   C1B 2157   7.015   7.604  10.712  0.0141  0.2512 -0.0938
  135loPI   C2B 2158   6.885   7.651  10.322  0.2011 -0.0020  0.0177
  135loPI   C3B 2159   7.057   7.701   9.816  0.1080  0.1078 -0.2138
  135loPI   C4B 2160   7.153   7.698   9.405 -0.0536  0.1440 -0.0978
  136loPI    C1 2161  14.510  15.491  11.668  0.0358  0.2812 -0.1727
  136loPI    C2 2162  14.561  15.683  12.015 -0.0734 -0.0895  0.0538
  136loPI    C3 2163  14.224  15.479  11.947 -0.0158 -0.0915 -0.2371
  136loPI   PO4 2164  14.661  15.686  11.512 -0.0003 -0.2386  0.0162
  136loPI   GL1 2165  14.766  15.804  11.094  0.2670 -0.0373  0.0475
  136loPI   GL2 2166  14.888  15.525  10.923 -0.1363 -0.1557  0.3023
  136loPI   C1A 2167  14.567  15.924  10.677 -0.1480  0.0852 -0.0057
  136loPI   C2A 2168  14.660  15.886  10.234  0.1374 -0.0211 -0.1037
  136loPI   C3A 2169  14.628  15.762   9.807  0.0852 -0.1021 -0.0041
  136loPI   C4A 2170  14.647  15.687   9.288 -0.0627 -0.4416  0.0499
  136loPI   C5A 2171  14.543  15.977   8.962 -0.3706 -0.0948  0.0062
  136loPI   C6A 2172  14.630  16.195   8.613 -0.0931 -0.0581 -0.0948
  136loPI   C1B 2173  14.939  15.483  10.511  0.1100  0.2423 -0.1117
  136loPI   C2B 2174  14.802  15.359  10.112 -0.1024  0.1326 -0.0642
  136loPI   C3B 2175  14.864  15.352   9.609  0.1281 -0.2155 -0.2819
  136loPI   C4B 2176  14.817  15.223   9.204 -0.0463  0.0010  0.0280
  137loPI    C1 2177   2.792   7.250  11.872 -0.0890  0.1159 -0.0211
  137loPI    C2 2178   2.889   7.072  12.216 -0.0980 -0.0383 -0.0975
  137loPI    C3 2179   2.708   7.428  12.220 -0.0050  0.0083  0.0550
  137loPI   PO4 2180   3.012   7.195  11.792 -0.4195 -0.0896 -0.0858
  137loPI   GL1 2181   3.251   7.326  11.502 -0.4360 -0.0113 -0.0052
  137loPI   GL2 2182   2.991   7.458  11.342  0.1086 -0.0330 -0.2315
  137loPI   C1A 2183   3.251   7.068  11.176  0.1301 -0.1156  0.1638
  137loPI   C2A 2184   3.272   7.048  10.711  0.0881 -0.3925 -0.0022
  137loPI   C3A 2185   3.227   7.069  10.240 -0.0479  0.0661  0.0445
  137loPI   C4A 2186   3.228   7.158   9.768  0.0657  0.0070  0.0595
  137loPI   C5A 2187   3.255   6.869   9.471  0.2915  0.1730 -0.0758
  137loPI   C6A 2188   2.833   6.819   9.224  0.1209  0.0249 -0.1927
  137loPI   C1B 2189   3.073   7.545  10.852 -0.0862  0.1313  0.3213
  137loPI   C2B 2190   3.068   7.570  10.375 -0.1681 -0.0821  0.1639
  137loPI   C3B 2191   2.991   7.565   9.890  0.0271 -0.0058  0.0880
  137loPI   C4B 2192   3.086   7.566   9.524  0.1631 -0.0299  0.0478
  138loPI    C1 2193   0.322   6.131  11.808 -0.0113  0.3529  0.0594
  138loPI    C2 2194  -0.009   6.076  11.589  0.1608  0.1124 -0.1474
  138loPI    C3 2195  -0.035   6.112  11.987 -0.0880 -0.2005 -0.1313
  138loPI   PO4 2196   0.473   5.993  11.665 -0.1381 -0.0398  0.0274
  138loPI   GL1 2197   0.397   5.867  11.262 -0.0568  0.0306 -0.1601
  138loPI   GL2 2198   0.661   5.680  11.193 -0.3347  0.0379 -0.0466
  138loPI   C1A 2199   0.078   5.983  11.097 -0.0644 -0.1740  0.0446
  138loPI   C2A 2200   0.043   5.919  10.693  0.1832  0.2857 -0.0158
  138loPI   C3A 2201   0.139   5.914  10.280  0.1113 -0.0150 -0.0916
  138loPI   C4A 2202   0.249   5.956   9.896 -0.0495 -0.0703 -0.0523
  138loPI   C5A 2203   0.311   5.934   9.509 -0.4603 -0.1890 -0.2217
  138loPI   C6A 2204   0.178   5.945   9.116  0.4086 -0.0218  0.1532
  138loPI   C1B 2205   0.700   5.672  10.756 -0.1064 -0.2273 -0.0274
  138loPI   C2B 2206   0.678   5.714  10.326  0.0419  0.3440 -0.2789
  138loPI   C3B 2207   0.756   5.854   9.837  0.3456 -0.3699  0.0392
  138loPI   C4B 2208   0.886   5.767   9.467 -0.3626 -0.1583  0.3252
  139loPI    C1 2209   8.480  14.778  11.636 -0.0600  0.1046  0.2031
  139loPI    C2 2210   8.164  14.616  11.453  0.1593  0.0296 -0.1174
  139loPI    C3 2211   8.304  14.454  11.791  0.0004 -0.0775 -0.1016
  139loPI   PO4 2212   8.648  14.854  11.416  0.0042 -0.4300 -0.2538
  139loPI   GL1 2213   8.604  14.654  11.073  0.1224  0.0844 -0.1054
  139loPI   GL2 2214   8.355  14.701  10.899 -0.2006 -0.1383 -0.1444
  139loPI   C1A 2215   8.839  14.470  10.747  0.0657 -0.2485 -0.0699
  139loPI   C2A 2216   8.896  14.417  10.325 -0.0354 -0.0840  0.3016
  139loPI   C3A 2217   8.840  14.349   9.854 -0.1799 -0.1731  0.0588
  139loPI   C4A 2218   8.885  14.292   9.377  0.1918 -0.0761  0.0920
  139loPI   C5A 2219   8.765  14.278   9.004  0.0551  0.0369  0.0633
  139loPI   C6A 2220   8.568  13.995   8.689  0.0524  0.0705 -0.1322
  139loPI   C1B 2221   8.530  14.750  10.449  0.0948 -0.1081 -0.3229
  139loPI   C2B 2222   8.587  14.757  10.012 -0.2119  0.0017 -0.0109
  139loPI   C3B 2223   8.617  14.703   9.510 -0.0510 -0.1527  0.1261
  139loPI   C4B 2224   8.709  14.788   9.108  0.1605  0.0536 -0.0393
  140loPI    C1 2225   2.980   8.373  11.577  0.0496  0.2063 -0.2711
  140loPI    C2 2226   2.792   8.409  11.928  0.0631 -0.3203 -0.2021
  140loPI    C3 2227   2.685   8.640  11.620 -0.1013 -0.0094  0.0802
  140loPI   PO4 2228   3.042   8.059  11.497  0.2376 -0.2941 -0.2395
  140loPI   GL1 2229   2.832   7.960  11.235 -0.1102 -0.1339  0.1724
  140loPI   GL2 2230   2.569   7.741  11.381  0.2135 -0.1523  0.3200
  140loPI   C1A 2231   2.811   7.965  10.831  0.2388 -0.2267  0.3139
  140loPI   C2A 2232   2.843   8.057  10.382 -0.0836 -0.1509 -0.1565
  140loPI   C3A 2233   2.754   8.062   9.971  0.0001  0.2138 -0.0095
  140loPI   C4A 2234   2.796   8.070   9.555 -0.0669  0.0696 -0.0883
  140loPI   C5A 2235   2.631   7.768   9.291 -0.3781  0.1980  0.2299
  140loPI   C6A 2236   2.326   7.638   8.874 -0.2645 -0.0993 -0.2740
  140loPI   C1B 2237   2.526   7.580  11.021 -0.3052  0.0530 -0.1963
  140loPI   C2B 2238   2.569   7.569  10.568  0.1210  0.0314 -0.0538
  140loPI   C3B 2239   2.572   7.683  10.196  0.1206  0.5862  0.0276
  140loPI   C4B 2240   2.424   7.684   9.758 -0.2205  0.1607 -0.1257
  141loPI    C1 2241   1.370   5.540  11.819 -0.0043  0.0801 -0.1059
  141loPI    C2 2242   1.556   5.608  12.167  0.2062  0.1076 -0.2221
  141loPI    C3 2243   1.168   5.696  12.127  0.1789  0.0976  0.0074
  141loPI   PO4 2244   1.537   5.739  11.690  0.1657 -0.0537  0.0190
  141loPI   GL1 2245   1.702   5.617  11.312 -0.1630  0.3227  0.4440
  141loPI   GL2 2246   1.637   5.260  11.478  0.1902 -0.1034 -0.2047
  141loPI   C1A 2247   1.821   5.725  10.911 -0.1970 -0.0352  0.0699
  141loPI   C2A 2248   1.808   5.709  10.478 -0.0643  0.0985  0.0117
  141loPI   C3A 2249   1.738   5.806  10.182  0.1060  0.0194 -0.2009
  141loPI   C4A 2250   1.842   5.741   9.829  0.2562  0.2096  0.0418
  141loPI   C5A 2251   1.845   5.906   9.315 -0.0153  0.0292 -0.0697
  141loPI   C6A 2252   1.706   5.657   9.003 -0.2038  0.1289 -0.0252
  141loPI   C1B 2253   1.490   5.212  11.044 -0.3540 -0.1666 -0.2311
  141loPI   C2B 2254   1.443   5.230  10.664 -0.2759 -0.0793 -0.2610
  141loPI   C3B 2255   1.480   5.339  10.246 -0.0250  0.0273  0.1995
  141loPI   C4B 2256   1.548   5.286   9.786  0.0138 -0.0396 -0.1051
  142loPI    C1 2257  14.439   0.907  11.699 -0.0069  0.0560  0.0275
  142loPI    C2 2258  14.772   0.704  11.788  0.0681  0.2611  0.2270
  142loPI    C3 2259  14.435   0.638  11.994  0.0371  0.1950  0.1562
  142loPI   PO4 2260  14.514   1.029  11.474  0.1833 -0.0578  0.0466
  142loPI   GL1 2261  14.606   0.784  11.072  0.0136  0.0061  0.1098
  142loPI   GL2 2262  14.565   0.965  10.702  0.1882 -0.2883 -0.1906
  142loPI   C1A 2263  14.944   0.619  10.809 -0.0132 -0.2905 -0.2016
  142loPI   C2A 2264  14.989   0.695  10.424 -0.1541 -0.0989  0.2093
  142loPI   C3A 2265  15.029   0.715   9.941  0.0235 -0.0426 -0.1656
  142loPI   C4A 2266  15.280   0.664   9.633 -0.0351 -0.3567  0.0914
  142loPI   C5A 2267  15.386   0.421   9.242 -0.2738  0.0489  0.3007
  142loPI   C6A 2268  15.659   0.092   9.035  0.0190  0.0210 -0.1885
  142loPI   C1B 2269  14.544   1.083  10.265 -0.0680 -0.1689 -0.0732
  142loPI   C2B 2270  14.674   1.019   9.829  0.0176  0.2982 -0.0857
  142loPI   C3B 2271  14.728   0.789   9.536 -0.1740  0.0559 -0.0427
  142loPI   C4B 2272  14.727   0.610   9.093 -0.0322  0.0787  0.4189
  143loPI    C1 2273  15.508   5.266  11.793 -0.0020 -0.0995 -0.0589
  143loPI    C2 2274  15.122   5.190  11.866 -0.0424  0.1151 -0.0450
  143loPI    C3 2275  15.388   5.184  12.166 -0.0335 -0.0377 -0.0554
  143loPI   PO4 2276  15.548   5.099  11.580  0.1354  0.0130 -0.4127
  143loPI   GL1 2277  15.648   4.976  11.181 -0.0058  0.1673 -0.0839
  143loPI   GL2 2278  15.464   5.174  10.894  0.4171 -0.2993 -0.2705
  143loPI   C1A 2279  15.995   5.071  10.914  0.0532 -0.1920 -0.0989
  143loPI   C2A 2280  16.037   5.100  10.493 -0.0393 -0.0562  0.0593
  143loPI   C3A 2281  16.091   5.068  10.068  0.0785  0.1191  0.1712
  143loPI   C4A 2282  16.236   5.053   9.611  0.1418 -0.1301 -0.2214
  143loPI   C5A 2283  16.265   5.002   9.107 -0.1559 -0.0760 -0.0003
  143loPI   C6A 2284  16.035   4.752   8.804  0.0907  0.2534  0.0549
  143loPI   C1B 2285  15.478   5.186  10.423  0.2200 -0.1086  0.1660
  143loPI   C2B 2286  15.510   5.155   9.999 -0.0713 -0.0728 -0.1289
  143loPI   C3B 2287  15.631   5.119   9.540  0.0925  0.0825 -0.0996
  143loPI   C4B 2288  15.562   4.850   9.180  0.0584  0.0584  0.1921
  144loPI    C1 2289   8.054   0.695  11.468 -0.0184  0.0680  0.0556
  144loPI    C2 2290   8.098   0.308  11.561 -0.2456  0.0263 -0.0059
  144loPI    C3 2291   7.745   0.489  11.617 -0.1553  0.2115 -0.0270
  144loPI   PO4 2292   8.216   0.745  11.271 -0.1474  0.2656 -0.1887
  144loPI   GL1 2293   8.111   0.862  10.858 -0.0321 -0.2466 -0.0061
  144loPI   GL2 2294   8.345   1.097  10.852 -0.0491  0.1690 -0.4789
  144loPI   C1A 2295   7.859   0.970  10.510 -0.0693  0.0535 -0.1950
  144loPI   C2A 2296   7.864   1.052  10.078  0.0322  0.1743  0.1212
  144loPI   C3A 2297   8.019   1.158   9.807 -0.2392 -0.0305  0.0969
  144loPI   C4A 2298   8.339   1.171   9.446  0.2760 -0.2107 -0.1491
  144loPI   C5A 2299   8.668   1.203   9.244  0.0385 -0.1853  0.2242
  144loPI   C6A 2300   8.797   1.375   8.899  0.1589 -0.2750 -0.2336
  144loPI   C1B 2301   8.275   1.206  10.327 -0.0574 -0.4176  0.2109
  144loPI   C2B 2302   8.416   1.341  10.028 -0.0631  0.1980  0.2537
  144loPI   C3B 2303   8.702   1.431   9.714  0.3319 -0.0047  0.0368
  144loPI   C4B 2304   8.666   1.726   9.326  0.1085 -0.0532 -0.1241
  145loPI    C1 2305   7.424   5.175  11.587 -0.1233 -0.1438 -0.3182
  145loPI    C2 2306   7.479   5.016  11.950  0.1458 -0.0582 -0.3196
  145loPI    C3 2307   7.109   5.090  11.818  0.0473 -0.0650 -0.0524
  145loPI   PO4 2308   7.594   5.428  11.520 -0.2844  0.1572 -0.0383
  145loPI   GL1 2309   7.589   5.552  11.164  0.1008 -0.2316  0.0392
  145loPI   GL2 2310   7.329   5.712  11.108  0.0909 -0.0505 -0.0300
  145loPI   C1A 2311   8.007   5.622  10.894 -0.0771  0.0099 -0.2537
  145loPI   C2A 2312   7.987   5.668  10.509 -0.2594  0.0740 -0.1293
  145loPI   C3A 2313   7.952   5.666  10.122  0.0755 -0.1641 -0.2595
  145loPI   C4A 2314   7.840   5.753   9.694  0.1904 -0.1513 -0.0320
  145loPI   C5A 2315   7.841   5.964   9.234 -0.0864 -0.0398 -0.2080
  145loPI   C6A 2316   7.563   6.156   8.876 -0.0987  0.0220 -0.0457
  145loPI   C1B 2317   7.348   5.747  10.614  0.2135  0.1970 -0.1962
  145loPI   C2B 2318   7.379   5.719  10.119  0.2336 -0.1952  0.2948
  145loPI   C3B 2319   7.336   5.801   9.682  0.0561  0.0171  0.4433
  145loPI   C4B 2320   7.304   5.914   9.207  0.1094  0.0066 -0.1024
  146loPI    C1 2321  12.189   1.025  11.375 -0.0491 -0.2318 -0.1258
  146loPI    C2 2322  11.837   1.008  11.565  0.0102 -0.1035 -0.0025
  146loPI    C3 2323  12.154   1.172  11.745  0.1042 -0.1129 -0.1576
  146loPI   PO4 2324  12.119   0.946  11.171  0.0078 -0.3775 -0.3761
  146loPI   GL1 2325  12.122   0.798  10.820 -0.1674 -0.0143 -0.0174
  146loPI   GL2 2326  12.489   0.834  10.862  0.2155 -0.0263  0.0378
  146loPI   C1A 2327  11.976   0.606  10.455  0.3260 -0.3148  0.0364
  146loPI   C2A 2328  12.075   0.552  10.163 -0.2818  0.1630  0.0725
  146loPI   C3A 2329  12.063   0.723   9.817  0.0966 -0.1092 -0.0072
  146loPI   C4A 2330  12.132   0.648   9.405 -0.1175 -0.0369 -0.0650
  146loPI   C5A 2331  12.297   0.594   9.013 -0.2042  0.2609  0.0983
  146loPI   C6A 2332  12.732   0.837   8.848  0.0046  0.0665  0.1147
  146loPI   C1B 2333  12.443   0.761  10.418 -0.1938  0.2541 -0.0017
  146loPI   C2B 2334  12.619   0.755  10.082 -0.1627  0.4647  0.2524
  146loPI   C3B 2335  12.748   0.724   9.834  0.2687  0.1718 -0.1593
  146loPI   C4B 2336  12.620   0.739   9.419  0.1712  0.1405 -0.3605
  147loPI    C1 2337  15.460   6.916  11.934 -0.0370  0.0868  0.1480
  147loPI    C2 2338  15.639   6.574  12.037 -0.1222  0.0205  0.0775
  147loPI    C3 2339  15.272   6.656  12.172 -0.2380 -0.0706 -0.1757
  147loPI   PO4 2340  15.569   6.885  11.601 -0.0399 -0.1527  0.2265
  147loPI   GL1 2341  15.892   7.122  11.335 -0.1398  0.1020 -0.1972
  147loPI   GL2 2342  15.592   7.226  11.268  0.1912  0.3572  0.1615
  147loPI   C1A 2343  16.253   7.081  10.975  0.1618  0.0321  0.0200
  147loPI   C2A 2344  16.323   7.067  10.611  0.1838  0.2420  0.0688
  147loPI   C3A 2345  16.397   6.981  10.165  0.0103  0.1402 -0.4235
  147loPI   C4A 2346  16.335   6.831   9.845 -0.2561  0.0667 -0.0503
  147loPI   C5A 2347  16.523   6.750   9.433 -0.1246 -0.0810 -0.3166
  147loPI   C6A 2348  16.557   6.980   9.013 -0.0763 -0.1783  0.1119
  147loPI   C1B 2349  15.798   7.079  10.837  0.0605  0.1752 -0.1967
  147loPI   C2B 2350  15.867   7.003  10.414  0.0671 -0.0411 -0.1013
  147loPI   C3B 2351  15.861   6.949   9.951 -0.1369 -0.0363 -0.0210
  147loPI   C4B 2352  15.944   6.870   9.597 -0.1606  0.1698  0.3046
  148loPI    C1 2353   9.632   9.140  11.978 -0.1199 -0.0880  0.0149
  148loPI    C2 2354   9.796   8.853  12.204  0.0681  0.0850  0.1006
  148loPI    C3 2355   9.408   8.939  12.242 -0.0525 -0.3379 -0.1150
  148loPI   PO4 2356   9.760   9.060  11.734 -0.3048  0.0774 -0.1717
  148loPI   GL1 2357   9.714   9.323  11.333 -0.0380 -0.3270 -0.0382
  148loPI   GL2 2358   9.557   9.112  11.335  0.2241  0.2173 -0.0899
  148loPI   C1A 2359   9.795   9.218  10.880  0.0553  0.0049  0.0810
  148loPI   C2A 2360   9.815   9.345  10.524  0.0689 -0.4274 -0.1533
  148loPI   C3A 2361   9.883   9.330  10.088  0.1853  0.0813 -0.2120
  148loPI   C4A 2362   9.847   9.322   9.704 -0.1175  0.0465 -0.1814
  148loPI   C5A 2363   9.746   9.310   9.269  0.0311  0.1665 -0.0109
  148loPI   C6A 2364   9.223   9.299   9.058  0.1621  0.1689  0.0476
  148loPI   C1B 2365   9.478   8.852  10.969  0.1492 -0.0309  0.0377
  148loPI   C2B 2366   9.547   8.887  10.510 -0.0616  0.2364 -0.2108
  148loPI   C3B 2367   9.519   8.897  10.085  0.1295 -0.0577 -0.0138
  148loPI   C4B 2368   9.513   8.852   9.641 -0.5793 -0.1843 -0.3281
  149loPI    C1 2369   4.809   9.979  11.513 -0.0866 -0.0251  0.0836
  149loPI    C2 2370   4.895   9.625  11.680  0.0724 -0.0254  0.0024
  149loPI    C3 2371   5.058   9.960  11.825 -0.0586  0.0123  0.0636
  149loPI   PO4 2372   4.878   9.944  11.254  0.0182  0.1057 -0.2141
  149loPI   GL1 2373   4.698  10.104  10.883  0.0534  0.2313 -0.0244
  149loPI   GL2 2374   4.586   9.780  10.878 -0.2134  0.2238 -0.2643
  149loPI   C1A 2375   4.901  10.109  10.478  0.4090  0.3307  0.0693
  149loPI   C2A 2376   4.917  10.176  10.075  0.1694  0.1373  0.2164
  149loPI   C3A 2377   4.841  10.066   9.633  0.1657 -0.0931  0.1127
  149loPI   C4A 2378   4.898   9.931   9.124 -0.3083  0.2521  0.1909
  149loPI   C5A 2379   5.078   9.620   8.911 -0.2680 -0.2889 -0.0477
  149loPI   C6A 2380   5.504   9.395   8.937 -0.0335  0.1575 -0.0214
  149loPI   C1B 2381   4.513   9.677  10.379  0.2883  0.1859 -0.1048
  149loPI   C2B 2382   4.486   9.664   9.930  0.2488  0.1705 -0.1505
  149loPI   C3B 2383   4.510   9.743   9.492  0.0071 -0.2096  0.0320
  149loPI   C4B 2384   4.284   9.802   9.076  0.4049  0.0375  0.2191
  150loPI    C1 2385   2.352   6.272  11.685 -0.1405 -0.1842  0.0488
  150loPI    C2 2386   2.141   6.497  11.939 -0.0034 -0.0383  0.0359
  150loPI    C3 2387   2.176   6.103  12.001 -0.0219 -0.0137  0.2083
  150loPI   PO4 2388   2.252   6.295  11.451  0.0620 -0.3491 -0.1590
  150loPI   GL1 2389   2.417   6.470  11.119 -0.2263 -0.1491  0.0480
  150loPI   GL2 2390   2.595   6.217  11.063 -0.1284 -0.1935  0.0813
  150loPI   C1A 2391   2.472   6.762  10.713 -0.1703  0.3837 -0.0917
  150loPI   C2A 2392   2.544   6.736  10.351 -0.0342  0.2342 -0.2822
  150loPI   C3A 2393   2.408   6.559   9.910  0.2002  0.2989 -0.0771
  150loPI   C4A 2394   2.377   6.867   9.479 -0.2894  0.1714  0.4307
  150loPI   C5A 2395   2.007   7.009   9.319  0.4725  0.3954  0.1887
  150loPI   C6A 2396   1.543   6.939   9.307  0.1652  0.1319  0.3536
  150loPI   C1B 2397   2.688   6.267  10.681 -0.1394  0.3165 -0.0146
  150loPI   C2B 2398   2.735   6.239  10.200  0.1473  0.0432  0.1286
  150loPI   C3B 2399   2.649   6.123   9.803  0.0934  0.1535 -0.1756
  150loPI   C4B 2400   2.619   6.461   9.468 -0.0326  0.0938  0.1690
  151loPI    C1 2401  16.156   2.637  11.555  0.0954 -0.3213  0.0855
  151loPI    C2 2402  16.530   2.638  11.695  0.1319 -0.1002 -0.0086
  151loPI    C3 2403  16.223   2.697  11.944  0.1627 -0.2157  0.0581
  151loPI   PO4 2404  16.178   2.418  11.379  0.1362 -0.0169  0.1162
  151loPI   GL1 2405  16.455   2.290  10.998 -0.1747  0.2749  0.2904
  151loPI   GL2 2406  16.088   2.250  10.916 -0.1035 -0.0774 -0.1366
  151loPI   C1A 2407  16.480   2.247  10.597 -0.0860  0.0272 -0.1854
  151loPI   C2A 2408  16.527   2.303  10.160 -0.0925  0.3217  0.0494
  151loPI   C3A 2409  16.515   2.323   9.705  0.3130 -0.1839 -0.0222
  151loPI   C4A 2410  16.493   2.246   9.152  0.0912  0.0117 -0.3012
  151loPI   C5A 2411  16.370   2.643   8.835  0.0361  0.2666 -0.2012
  151loPI   C6A 2412  16.504   2.916   8.643 -0.0239  0.0502 -0.2533
  151loPI   C1B 2413  15.985   2.294  10.443  0.3151 -0.2263 -0.0402
  151loPI   C2B 2414  16.002   2.340   9.982 -0.0230  0.1332  0.0517
  151loPI   C3B 2415  16.018   2.217   9.583 -0.0232 -0.1534 -0.0620
  151loPI   C4B 2416  15.927   2.392   9.172 -0.1195 -0.1327  0.1369
  152loPI    C1 2417   3.041   3.644  11.948  0.0777 -0.0469  0.0116
  152loPI    C2 2418   3.121   3.255  11.996  0.0597 -0.0385  0.1135
  152loPI    C3 2419   3.153   3.505  12.307 -0.0434  0.0213  0.0765
  152loPI   PO4 2420   3.227   3.744  11.776 -0.0836  0.1926 -0.0738
  152loPI   GL1 2421   3.346   3.764  11.317  0.0662 -0.2171  0.0982
  152loPI   GL2 2422   3.554   3.712  11.401  0.0150  0.2529 -0.1222
  152loPI   C1A 2423   3.227   3.818  10.808 -0.0908 -0.0963 -0.1391
  152loPI   C2A 2424   3.263   3.887  10.351 -0.3901 -0.1414 -0.1279
  152loPI   C3A 2425   3.351   3.877   9.898  0.1191  0.5441  0.0063
  152loPI   C4A 2426   3.329   3.842   9.411 -0.2038  0.0297  0.2186
  152loPI   C5A 2427   3.639   3.690   9.191  0.1008 -0.0203  0.1044
  152loPI   C6A 2428   4.027   3.810   9.090 -0.1093  0.1871  0.0620
  152loPI   C1B 2429   3.692   3.919  11.032 -0.0205 -0.0156 -0.2484
  152loPI   C2B 2430   3.779   3.901  10.609  0.0276  0.0724 -0.2014
  152loPI   C3B 2431   3.788   3.866  10.154 -0.2599  0.3159  0.0780
  152loPI   C4B 2432   3.860   3.811   9.751  0.0699 -0.0945  0.1601
  153loPI    C1 2433   6.242  14.143  11.149  0.1609 -0.1179  0.2003
  153loPI    C2 2434   6.037  14.484  11.188  0.1473 -0.0956 -0.0510
  153loPI    C3 2435   5.843  14.134  11.175  0.1505 -0.1016  0.0530
  153loPI   PO4 2436   6.381  14.215  10.847  0.2649  0.1207  0.2373
  153loPI   GL1 2437   6.240  14.098  10.462 -0.0425 -0.0459 -0.0147
  153loPI   GL2 2438   5.895  14.235  10.688 -0.1856  0.2388 -0.1259
  153loPI   C1A 2439   6.243  14.083   9.932 -0.2943 -0.0122  0.1094
  153loPI   C2A 2440   6.253  13.921   9.536 -0.2132 -0.1329  0.0548
  153loPI   C3A 2441   6.362  13.846   9.151 -0.1626 -0.0488  0.2814
  153loPI   C4A 2442   6.226  14.114   8.824  0.0194 -0.0778 -0.3973
  153loPI   C5A 2443   5.748  14.295   8.731  0.2472 -0.2686  0.2915
  153loPI   C6A 2444   5.324  14.468   8.741 -0.0026  0.1150 -0.1978
  153loPI   C1B 2445   5.851  14.297  10.217 -0.0558  0.2242 -0.0048
  153loPI   C2B 2446   5.796  14.280   9.808  0.3299 -0.0551  0.2040
  153loPI   C3B 2447   5.865  14.304   9.468  0.2333 -0.1572  0.1381
  153loPI   C4B 2448   6.009  14.373   9.221  0.4068 -0.0090  0.0463
  154loPI    C1 2449  16.674   7.402  12.022  0.0328  0.0218 -0.5418
  154loPI    C2 2450  17.050   7.406  12.158 -0.1185  0.2192 -0.1120
  154loPI    C3 2451  16.744   7.390  12.415 -0.4052 -0.1887 -0.4642
  154loPI   PO4 2452  16.730   7.631  11.879 -0.1437  0.1400  0.1291
  154loPI   GL1 2453  16.765   7.528  11.476 -0.0101  0.1572  0.1745
  154loPI   GL2 2454  16.584   7.299  11.324  0.1533 -0.3078 -0.1747
  154loPI   C1A 2455  16.894   7.780  11.048 -0.1183 -0.0351  0.1352
  154loPI   C2A 2456  16.947   7.788  10.603 -0.1186 -0.0358 -0.1401
  154loPI   C3A 2457  16.918   7.837  10.111  0.1510 -0.0484  0.2165
  154loPI   C4A 2458  17.011   7.826   9.742 -0.2685 -0.2678 -0.0456
  154loPI   C5A 2459  16.868   7.800   9.302  0.1933  0.1029 -0.1400
  154loPI   C6A 2460  16.731   7.478   9.009 -0.0260  0.3794 -0.2541
  154loPI   C1B 2461  16.611   7.422  10.850  0.0793 -0.0074  0.1422
  154loPI   C2B 2462  16.719   7.438  10.325  0.0551  0.0217  0.4172
  154loPI   C3B 2463  16.707   7.299   9.882 -0.1357  0.1674  0.1588
  154loPI   C4B 2464  16.694   7.249   9.428 -0.0049  0.1494 -0.0863
  155loPI    C1 2465   1.279   3.664  11.626  0.1176  0.0598 -0.1416
  155loPI    C2 2466   0.987   3.410  11.729  0.1486 -0.0371 -0.2899
  155loPI    C3 2467   1.157   3.643  12.006 -0.2276  0.1879 -0.2414
  155loPI   PO4 2468   1.417   3.529  11.526  0.1980  0.3336  0.0439
  155loPI   GL1 2469   1.501   3.482  11.123 -0.3555 -0.0198  0.2197
  155loPI   GL2 2470   1.606   3.190  11.059 -0.0361  0.0626 -0.1360
  155loPI   C1A 2471   1.391   3.529  10.708 -0.2487  0.2024  0.1581
  155loPI   C2A 2472   1.360   3.546  10.229 -0.4784 -0.2229 -0.0186
  155loPI   C3A 2473   1.313   3.548   9.811  0.0078  0.0648  0.1270
  155loPI   C4A 2474   1.051   3.541   9.372  0.0898  0.1606 -0.1861
  155loPI   C5A 2475   0.919   3.891   9.267  0.2412  0.2090 -0.1984
  155loPI   C6A 2476   0.885   4.259   9.030 -0.0868  0.0382 -0.1222
  155loPI   C1B 2477   1.644   3.122  10.565  0.0655  0.1835 -0.0962
  155loPI   C2B 2478   1.593   3.105  10.087 -0.0810  0.3908 -0.0390
  155loPI   C3B 2479   1.586   3.043   9.621  0.1856 -0.0974 -0.0031
  155loPI   C4B 2480   1.739   2.946   9.256 -0.0325 -0.0600  0.2217
  156loPI    C1 2481   0.459   0.983  11.150 -0.0605 -0.0571  0.1235
  156loPI    C2 2482   0.485   1.009  11.549  0.0750 -0.0089  0.1121
  156loPI    C3 2483   0.554   1.331  11.322 -0.1026 -0.0108  0.0534
  156loPI   PO4 2484   0.588   0.785  11.073 -0.2601 -0.2136 -0.0702
  156loPI   GL1 2485   0.661   0.669  10.725  0.4077 -0.3718  0.1762
  156loPI   GL2 2486   0.645   0.932  10.596  0.2275 -0.1387  0.0599
  156loPI   C1A 2487   0.792   0.508  10.391 -0.2605  0.1446  0.2311
  156loPI   C2A 2488   0.803   0.388   9.886 -0.0642 -0.0017 -0.0099
  156loPI   C3A 2489   0.738   0.449   9.440  0.0892  0.0395 -0.1437
  156loPI   C4A 2490   0.770   0.532   8.948  0.2839 -0.1199  0.1658
  156loPI   C5A 2491   0.910   0.947   8.792  0.1933  0.0636  0.1875
  156loPI   C6A 2492   0.738   1.349   8.877  0.3679 -0.0935  0.1044
  156loPI   C1B 2493   0.649   0.988  10.174 -0.1922 -0.1638 -0.1333
  156loPI   C2B 2494   0.630   0.850   9.761  0.0644  0.1485 -0.0830
  156loPI   C3B 2495   0.627   0.921   9.331 -0.0214  0.0143 -0.0599
  156loPI   C4B 2496   0.401   0.949   8.942 -0.2504 -0.1202  0.0632
  157loPI    C1 2497  10.231   3.496  11.375  0.0156 -0.1676  0.0091
  157loPI    C2 2498  10.169   3.272  11.701 -0.2920  0.0636  0.1141
  157loPI    C3 2499  10.361   3.622  11.732  0.0566 -0.1099 -0.0261
  157loPI   PO4 2500  10.253   3.347  11.184  0.0917 -0.0727  0.0665
  157loPI   GL1 2501   9.934   3.079  10.931 -0.4292  0.0354  0.1825
  157loPI   GL2 2502   9.632   3.284  10.873 -0.0800  0.0661  0.0809
  157loPI   C1A 2503  10.009   3.362  10.565 -0.0309 -0.0821  0.1941
  157loPI   C2A 2504   9.868   3.532  10.162  0.1494 -0.0311  0.0389
  157loPI   C3A 2505   9.902   3.703   9.706  0.2508 -0.1881  0.4728
  157loPI   C4A 2506   9.917   3.714   9.276  0.2297  0.2016  0.1509
  157loPI   C5A 2507   9.968   3.544   8.980 -0.0776 -0.2075  0.0052
  157loPI   C6A 2508   9.813   3.282   8.640 -0.0227  0.1591 -0.0950
  157loPI   C1B 2509   9.588   3.168  10.401 -0.1769 -0.3169  0.0128
  157loPI   C2B 2510   9.489   3.251   9.950 -0.2678  0.0611  0.0582
  157loPI   C3B 2511   9.539   3.328   9.602 -0.1860 -0.1063 -0.1494
  157loPI   C4B 2512   9.526   3.390   9.136 -0.3376  0.0277  0.3819
  158loPI    C1 2513  13.132   9.189  11.775  0.1031 -0.0269 -0.0711
  158loPI    C2 2514  13.499   9.190  11.933  0.0023  0.1092  0.1672
  158loPI    C3 2515  13.186   9.075  12.154 -0.1068  0.0456 -0.0179
  158loPI   PO4 2516  13.132   9.460  11.682 -0.0230  0.3259  0.0423
  158loPI   GL1 2517  13.020   9.609  11.244 -0.0698  0.0349 -0.0997
  158loPI   GL2 2518  12.723   9.652  11.114  0.2426 -0.2337  0.0720
  158loPI   C1A 2519  13.293   9.561  10.926 -0.1085  0.2503 -0.0365
  158loPI   C2A 2520  13.232   9.597  10.508 -0.2501  0.1475  0.1459
  158loPI   C3A 2521  13.198   9.489  10.123 -0.2387 -0.1081  0.2470
  158loPI   C4A 2522  13.118   9.502   9.670 -0.1332 -0.1403 -0.2383
  158loPI   C5A 2523  13.075   9.156   9.325 -0.0359  0.0488  0.1596
  158loPI   C6A 2524  12.734   8.931   9.226 -0.0657 -0.0739 -0.1351
  158loPI   C1B 2525  12.728   9.663  10.633  0.2170 -0.1139  0.1661
  158loPI   C2B 2526  12.755   9.576  10.223 -0.1626 -0.1828 -0.0745
  158loPI   C3B 2527  12.700   9.565   9.894  0.0002 -0.1923  0.0674
  158loPI   C4B 2528  12.636   9.323   9.610  0.0992  0.0874  0.1885
  159loPI    C1 2529   2.100   5.420  11.571  0.0583  0.1504 -0.1324
  159loPI    C2 2530   2.092   5.818  11.536  0.0066  0.1723  0.1172
  159loPI    C3 2531   1.994   5.645  11.884  0.0299 -0.0586  0.0106
  159loPI   PO4 2532   2.321   5.341  11.492 -0.0720  0.3630 -0.0921
  159loPI   GL1 2533   2.394   5.232  11.139 -0.2764  0.1874  0.1929
  159loPI   GL2 2534   2.062   5.276  11.042  0.0025 -0.0573  0.0531
  159loPI   C1A 2535   2.535   5.367  10.668  0.2323  0.0090 -0.0564
  159loPI   C2A 2536   2.535   5.296  10.237  0.2754  0.0682 -0.0213
  159loPI   C3A 2537   2.610   5.231   9.762  0.0583  0.2743  0.0004
  159loPI   C4A 2538   2.421   5.148   9.363  0.3096 -0.2505 -0.0629
  159loPI   C5A 2539   2.545   4.694   9.160  0.0329 -0.0157  0.0424
  159loPI   C6A 2540   2.850   4.409   8.903  0.3381 -0.2672 -0.0709
  159loPI   C1B 2541   2.019   5.249  10.616 -0.0877 -0.1114 -0.3781
  159loPI   C2B 2542   2.015   5.340  10.149  0.0885  0.0646 -0.0253
  159loPI   C3B 2543   2.024   5.242   9.833  0.1912  0.0308  0.1975
  159loPI   C4B 2544   1.874   5.404   9.428 -0.0263 -0.1669 -0.0035
  160loPI    C1 2545  11.206   9.014  11.705 -0.2292  0.0598  0.1375
  160loPI    C2 2546  11.044   9.360  11.586 -0.2564 -0.0129 -0.0406
  160loPI    C3 2547  10.882   9.157  11.891 -0.1917  0.1709  0.1180
  160loPI   PO4 2548  11.234   8.895  11.487  0.0083  0.1972 -0.0680
  160loPI   GL1 2549  11.156   9.108  11.131  0.1127 -0.0712  0.1581
  160loPI   GL2 2550  11.010   8.911  11.017 -0.0798  0.1413  0.0552
  160loPI   C1A 2551  11.325   9.157  10.722 -0.3561 -0.1507  0.2622
  160loPI   C2A 2552  11.294   9.129  10.283 -0.0360  0.1502  0.2777
  160loPI   C3A 2553  11.326   9.159   9.837 -0.2572 -0.0820 -0.1870
  160loPI   C4A 2554  11.337   9.252   9.476 -0.2181 -0.1951 -0.0352
  160loPI   C5A 2555  11.614   9.470   9.177 -0.3002  0.1379  0.0496
  160loPI   C6A 2556  11.674   9.892   9.075  0.1694  0.0715 -0.1514
  160loPI   C1B 2557  11.014   8.760  10.569  0.3077  0.2133  0.2978
  160loPI   C2B 2558  11.083   8.741  10.043 -0.0127 -0.0210  0.2594
  160loPI   C3B 2559  11.160   8.714   9.632 -0.2110 -0.0447  0.2106
  160loPI   C4B 2560  11.199   8.893   9.227 -0.1965 -0.4829 -0.4247
  161loPI    C1 2561   2.724  12.104  11.568 -0.1853 -0.1205 -0.0056
  161loPI    C2 2562   3.027  12.276  11.372 -0.2351 -0.2521 -0.2013
  161loPI    C3 2563   3.072  11.912  11.530 -0.0606  0.0157  0.3967
  161loPI   PO4 2564   2.571  12.115  11.370 -0.1873 -0.2000 -0.0538
  161loPI   GL1 2565   2.450  11.836  11.166 -0.0271 -0.1745 -0.0960
  161loPI   GL2 2566   2.110  11.902  11.122 -0.1621  0.0349  0.0900
  161loPI   C1A 2567   2.639  11.748  10.714  0.4774  0.1342 -0.2474
  161loPI   C2A 2568   2.640  11.667  10.294 -0.3071  0.1733  0.1834
  161loPI   C3A 2569   2.557  11.615   9.865 -0.2745 -0.0399 -0.1008
  161loPI   C4A 2570   2.315  11.619   9.461 -0.1327 -0.2982  0.2264
  161loPI   C5A 2571   2.303  11.671   9.076 -0.4330 -0.0706  0.1097
  161loPI   C6A 2572   2.338  11.822   8.676  0.0653 -0.1651 -0.0624
  161loPI   C1B 2573   2.089  11.863  10.690 -0.2608  0.3612  0.1446
  161loPI   C2B 2574   2.055  11.747  10.319  0.2244 -0.0467  0.1192
  161loPI   C3B 2575   2.027  11.739   9.940 -0.0697 -0.2272  0.1583
  161loPI   C4B 2576   1.876  11.798   9.600  0.0738  0.1876 -0.0377
  162loPI    C1 2577   4.991   0.478  11.498 -0.3756 -0.2622 -0.0286
  162loPI    C2 2578   4.908   0.354  11.869  0.1301 -0.0972  0.1484
  162loPI    C3 2579   5.119   0.120  11.623  0.0846 -0.0665  0.0798
  162loPI   PO4 2580   4.971   0.811  11.559 -0.4768  0.0446 -0.0994
  162loPI   GL1 2581   5.010   1.162  11.263  0.0017  0.3366 -0.1457
  162loPI   GL2 2582   4.944   0.822  11.063  0.0075  0.3425 -0.2653
  162loPI   C1A 2583   5.412   1.334  11.081 -0.0634 -0.3104  0.0701
  162loPI   C2A 2584   5.510   1.399  10.666 -0.3869 -0.0678  0.0930
  162loPI   C3A 2585   5.435   1.438  10.168 -0.1868 -0.1434  0.0045
  162loPI   C4A 2586   5.351   1.475   9.723  0.1944  0.0920  0.2878
  162loPI   C5A 2587   5.408   1.246   9.318  0.1094 -0.4682  0.0448
  162loPI   C6A 2588   5.359   0.867   9.122 -0.1770 -0.1340  0.1670
  162loPI   C1B 2589   5.203   0.970  10.757 -0.2736  0.0970  0.3285
  162loPI   C2B 2590   5.345   1.017  10.361  0.0965 -0.1045  0.0536
  162loPI   C3B 2591   5.205   1.007   9.963 -0.1159  0.1593  0.3197
  162loPI   C4B 2592   5.079   0.956   9.595  0.1726 -0.3675  0.0078
  163loPI    C1 2593   5.242   8.939  11.536  0.1401 -0.1118  0.2189
  163loPI    C2 2594   5.291   8.579  11.703  0.2122 -0.1273  0.1653
  163loPI    C3 2595   5.200   8.895  11.931 -0.1865 -0.2420  0.1725
  163loPI   PO4 2596   5.391   8.888  11.276  0.1412 -0.1243 -0.1937
  163loPI   GL1 2597   5.669   8.830  10.922 -0.0555 -0.0543 -0.0749
  163loPI   GL2 2598   5.771   9.170  10.966  0.1805  0.0209  0.2841
  163loPI   C1A 2599   5.593   8.646  10.392  0.1115  0.1366  0.1593
  163loPI   C2A 2600   5.550   8.689   9.988 -0.1914  0.0095  0.1575
  163loPI   C3A 2601   5.621   8.637   9.567  0.1873  0.0120  0.0506
  163loPI   C4A 2602   5.783   8.581   9.285  0.1748  0.2612  0.0771
  163loPI   C5A 2603   6.104   8.292   9.201  0.2176 -0.0207  0.2562
  163loPI   C6A 2604   6.491   8.303   9.246  0.0370  0.0029 -0.1377
  163loPI   C1B 2605   5.823   9.089  10.499  0.0343  0.2046 -0.2674
  163loPI   C2B 2606   5.792   9.137  10.094 -0.0391  0.0249 -0.3304
  163loPI   C3B 2607   5.931   9.084   9.665 -0.0301  0.1112  0.3115
  163loPI   C4B 2608   6.061   9.263   9.271 -0.3137 -0.1432 -0.3702
  164loPI    C1 2609   9.509   0.698  11.594  0.2235  0.1465  0.0400
  164loPI    C2 2610   9.602   1.069  11.710 -0.0463  0.2015  0.0875
  164loPI    C3 2611   9.747   0.755  11.910 -0.1461  0.2889  0.2996
  164loPI   PO4 2612   9.480   0.651  11.338  0.0862  0.2471  0.4695
  164loPI   GL1 2613   9.352   0.656  10.894  0.2900  0.0645  0.0011
  164loPI   GL2 2614   9.035   0.538  11.010  0.4009 -0.1785 -0.1364
  164loPI   C1A 2615   9.503   0.626  10.576  0.2263  0.1711  0.0956
  164loPI   C2A 2616   9.666   0.348  10.109  0.0193 -0.2161  0.0888
  164loPI   C3A 2617   9.696   0.411   9.703 -0.2378 -0.1469  0.2268
  164loPI   C4A 2618   9.872   0.284   9.291  0.2683  0.0403 -0.1482
  164loPI   C5A 2619   9.747   0.244   8.848 -0.1840  0.1281  0.0033
  164loPI   C6A 2620  10.126   0.041   8.736  0.0306 -0.3047  0.0821
  164loPI   C1B 2621   9.013   0.608  10.533 -0.1202  0.1318  0.0340
  164loPI   C2B 2622   9.152   0.592  10.047 -0.2025  0.3904  0.2152
  164loPI   C3B 2623   9.191   0.493   9.578 -0.3366  0.0962  0.0090
  164loPI   C4B 2624   9.379   0.302   9.259 -0.1718  0.2854  0.2068
  165loPI    C1 2625  12.300   6.910  11.846  0.1752  0.3049  0.2143
  165loPI    C2 2626  12.315   6.575  12.064  0.0501  0.0750 -0.1227
  165loPI    C3 2627  12.485   6.910  12.201  0.2366 -0.1415  0.1879
  165loPI   PO4 2628  12.348   6.842  11.611  0.0561 -0.1726 -0.0969
  165loPI   GL1 2629  12.456   6.833  11.147 -0.1236  0.0477 -0.0200
  165loPI   GL2 2630  12.155   6.657  11.194  0.3302 -0.0112  0.1102
  165loPI   C1A 2631  12.524   6.763  10.699  0.0181 -0.0109 -0.2639
  165loPI   C2A 2632  12.429   6.821  10.292 -0.2670  0.1455 -0.0382
  165loPI   C3A 2633  12.471   6.855   9.823 -0.1368  0.0586 -0.0913
  165loPI   C4A 2634  12.546   7.024   9.383 -0.3087 -0.2396 -0.2164
  165loPI   C5A 2635  12.749   6.969   9.023  0.0296  0.1543  0.2015
  165loPI   C6A 2636  12.957   7.290   8.781  0.1337  0.2269  0.0111
  165loPI   C1B 2637  12.004   6.855  10.846  0.0996  0.0367  0.0338
  165loPI   C2B 2638  11.994   6.990  10.352  0.2304 -0.1650  0.0232
  165loPI   C3B 2639  11.951   6.877   9.966 -0.2401  0.2790  0.0432
  165loPI   C4B 2640  12.000   6.855   9.533 -0.1588 -0.1910 -0.1096
  166loPI    C1 2641  12.127  15.206  12.065 -0.1717  0.1059  0.1605
  166loPI    C2 2642  12.453  15.420  11.979 -0.1542 -0.0452 -0.1625
  166loPI    C3 2643  12.399  15.279  12.349  0.0819  0.0894 -0.0744
  166loPI   PO4 2644  12.089  14.962  11.849 -0.0161 -0.1569 -0.1803
  166loPI   GL1 2645  11.952  14.908  11.430  0.0482  0.2288 -0.1617
  166loPI   GL2 2646  12.183  15.033  11.351  0.2463  0.1558  0.0747
  166loPI   C1A 2647  11.716  14.737  11.144  0.2599  0.1660 -0.1325
  166loPI   C2A 2648  11.441  14.652  10.713 -0.1561  0.2127  0.1186
  166loPI   C3A 2649  11.593  14.791  10.394 -0.1165  0.0940 -0.0247
  166loPI   C4A 2650  11.695  14.614   9.946 -0.0681 -0.0127 -0.2998
  166loPI   C5A 2651  11.728  14.618   9.560 -0.2161 -0.1395  0.1034
  166loPI   C6A 2652  11.300  14.499   9.306  0.0417 -0.2457 -0.1410
  166loPI   C1B 2653  12.174  14.736  10.951 -0.1315  0.2858  0.0125
  166loPI   C2B 2654  12.149  14.767  10.527  0.2591 -0.2406  0.1743
  166loPI   C3B 2655  12.225  14.674  10.114  0.0327 -0.0432 -0.1158
  166loPI   C4B 2656  12.256  14.616   9.717 -0.2163  0.0433 -0.1194
  167loPI    C1 2657   4.524   7.288  11.909 -0.1482  0.0309 -0.0425
  167loPI    C2 2658   4.908   7.382  11.844 -0.1309 -0.0121 -0.0026
  167loPI    C3 2659   4.698   7.578  12.123 -0.1921  0.1405 -0.1544
  167loPI   PO4 2660   4.411   7.350  11.710  0.0257 -0.0634  0.0748
  167loPI   GL1 2661   4.242   7.534  11.315  0.5533  0.2436  0.1438
  167loPI   GL2 2662   4.340   7.189  11.247  0.0784  0.2086 -0.0136
  167loPI   C1A 2663   4.053   7.461  10.898  0.0647  0.1493 -0.0959
  167loPI   C2A 2664   4.064   7.494  10.465 -0.1384 -0.3717 -0.3040
  167loPI   C3A 2665   4.045   7.555   9.978 -0.1384  0.1082  0.0083
  167loPI   C4A 2666   4.024   7.360   9.517 -0.3539 -0.1915  0.1250
  167loPI   C5A 2667   3.635   7.295   9.205  0.3017 -0.1201 -0.0876
  167loPI   C6A 2668   3.167   7.228   9.131  0.1942  0.2919 -0.2714
  167loPI   C1B 2669   4.349   7.069  10.812 -0.0350 -0.0170 -0.0968
  167loPI   C2B 2670   4.276   6.979  10.402 -0.0147 -0.0947  0.0350
  167loPI   C3B 2671   4.263   7.047  10.003  0.0697  0.1680  0.1981
  167loPI   C4B 2672   4.353   6.951   9.636 -0.5254 -0.0101  0.1303
  168loPI    C1 2673   2.989   4.597  11.586  0.0002  0.0453  0.0186
  168loPI    C2 2674   2.842   4.315  11.829  0.0026 -0.0304 -0.0673
  168loPI    C3 2675   3.060   4.615  11.980  0.1314 -0.1594  0.0061
  168loPI   PO4 2676   2.850   4.553  11.369  0.0759  0.4585 -0.2021
  168loPI   GL1 2677   2.477   4.509  11.150  0.2158  0.0425  0.3375
  168loPI   GL2 2678   2.328   4.746  11.156  0.3490  0.0359  0.0850
  168loPI   C1A 2679   2.513   4.359  10.764 -0.1220  0.0334 -0.1538
  168loPI   C2A 2680   2.497   4.369  10.359  0.0225  0.1569 -0.1565
  168loPI   C3A 2681   2.566   4.357   9.978  0.1535 -0.1128 -0.1561
  168loPI   C4A 2682   2.518   4.315   9.488 -0.0941 -0.0887  0.2754
  168loPI   C5A 2683   2.622   4.027   9.126 -0.0833 -0.0766  0.1692
  168loPI   C6A 2684   2.860   3.938   8.925  0.1368  0.2280 -0.1107
  168loPI   C1B 2685   2.252   4.838  10.791  0.1057 -0.0523 -0.1505
  168loPI   C2B 2686   2.216   4.873  10.308 -0.0902 -0.2126 -0.2348
  168loPI   C3B 2687   2.349   4.820   9.835 -0.0582  0.2385 -0.0554
  168loPI   C4B 2688   2.166   4.720   9.452 -0.1120  0.0834  0.2058
  169loPI    C1 2689   6.829   6.980  11.639  0.1026  0.1998 -0.0025
  169loPI    C2 2690   6.725   6.594  11.655  0.1434  0.1921  0.0840
  169loPI    C3 2691   6.904   6.766  11.969  0.0053  0.3160  0.0956
  169loPI   PO4 2692   6.780   7.001  11.400  0.0035  0.0230  0.0237
  169loPI   GL1 2693   6.690   6.973  11.025  0.0162 -0.2125 -0.1579
  169loPI   GL2 2694   6.623   7.281  10.897  0.1398 -0.0153  0.3677
  169loPI   C1A 2695   6.856   6.726  10.761  0.0391 -0.0354 -0.0483
  169loPI   C2A 2696   6.895   6.719  10.354  0.1105 -0.0128  0.1760
  169loPI   C3A 2697   6.878   6.766   9.883  0.2399  0.1100  0.1433
  169loPI   C4A 2698   7.034   6.876   9.556  0.1991  0.4536  0.3229
  169loPI   C5A 2699   7.171   7.124   9.288 -0.1906 -0.1265  0.0013
  169loPI   C6A 2700   7.086   7.380   8.902  0.1684 -0.1589 -0.3240
  169loPI   C1B 2701   6.687   7.197  10.519  0.0233  0.0526  0.0461
  169loPI   C2B 2702   6.749   7.279  10.031 -0.0192 -0.0950  0.0693
  169loPI   C3B 2703   6.825   7.299   9.660  0.1284 -0.0863 -0.0803
  169loPI   C4B 2704   6.725   7.381   9.278 -0.0645 -0.0864 -0.2102
  170loPI    C1 2705   3.915   0.681  11.435  0.1345 -0.0830  0.2088
  170loPI    C2 2706   3.686   0.456  11.197 -0.0824  0.1516  0.1919
  170loPI    C3 2707   3.748   0.346  11.577  0.0773 -0.1030  0.0952
  170loPI   PO4 2708   4.098   0.769  11.280 -0.2382  0.0688  0.1532
  170loPI   GL1 2709   4.179   0.629  10.916 -0.3125  0.2073  0.2578
  170loPI   GL2 2710   4.432   0.492  10.812 -0.1844  0.0532  0.1072
  170loPI   C1A 2711   3.819   0.675  10.669  0.2823  0.2604 -0.0453
  170loPI   C2A 2712   3.828   0.733  10.170 -0.0740  0.2223  0.1814
  170loPI   C3A 2713   3.819   0.658   9.742  0.0067 -0.0224 -0.0216
  170loPI   C4A 2714   3.627   0.569   9.286 -0.1218 -0.1740  0.0887
  170loPI   C5A 2715   3.366   0.337   8.935  0.0272 -0.1013 -0.0350
  170loPI   C6A 2716   3.128   0.041   8.717 -0.1231  0.3077  0.2529
  170loPI   C1B 2717   4.307   0.555  10.438 -0.0172  0.5569  0.0447
  170loPI   C2B 2718   4.366   0.609  10.056 -0.0043 -0.2856 -0.2236
  170loPI   C3B 2719   4.334   0.542   9.664  0.2789 -0.1213 -0.0498
  170loPI   C4B 2720   4.133   0.583   9.305  0.2921 -0.1924 -0.1436
  171loPI    C1 2721  15.755  13.364  11.464  0.2499 -0.1468 -0.0428
  171loPI    C2 2722  15.871  13.432  11.841  0.2234  0.3403 -0.1157
  171loPI    C3 2723  16.084  13.186  11.607  0.3423  0.1772  0.1588
  171loPI   PO4 2724  15.736  13.615  11.395 -0.2207  0.1133  0.1059
  171loPI   GL1 2725  15.717  13.675  11.059 -0.2211 -0.2737 -0.4366
  171loPI   GL2 2726  15.509  13.988  11.142 -0.1407  0.1335  0.2610
  171loPI   C1A 2727  15.778  13.538  10.617 -0.2234 -0.0718 -0.0035
  171loPI   C2A 2728  15.810  13.482  10.261 -0.0075  0.0790  0.1309
  171loPI   C3A 2729  15.735  13.549   9.785  0.0358 -0.0408 -0.0310
  171loPI   C4A 2730  15.739  13.425   9.331 -0.1426  0.0042  0.1336
  171loPI   C5A 2731  16.005  13.085   9.074  0.1782  0.0181 -0.2466
  171loPI   C6A 2732  16.197  12.950   8.759  0.2388  0.2115  0.0342
  171loPI   C1B 2733  15.171  14.030  10.877 -0.2568 -0.1042 -0.0762
  171loPI   C2B 2734  15.026  14.146  10.423 -0.1625 -0.3198 -0.0752
  171loPI   C3B 2735  15.109  14.062   9.980 -0.0924  0.0612  0.3043
  171loPI   C4B 2736  15.032  13.961   9.602 -0.0018  0.1990 -0.1014
  172loPI    C1 2737  16.024  15.131  11.734 -0.1240 -0.1333 -0.1847
  172loPI    C2 2738  15.815  14.833  11.899  0.1386 -0.1130  0.1964
  172loPI    C3 2739  15.758  15.210  12.022  0.2598 -0.0841  0.1655
  172loPI   PO4 2740  16.233  15.047  11.604  0.0439 -0.2643 -0.3740
  172loPI   GL1 2741  16.317  15.070  11.171 -0.4145  0.1613 -0.3133
  172loPI   GL2 2742  16.154  14.785  10.995 -0.0325 -0.3307 -0.0282
  172loPI   C1A 2743  16.456  15.329  10.818  0.0623  0.2710  0.2421
  172loPI   C2A 2744  16.501  15.445  10.404 -0.1556 -0.1206 -0.0910
  172loPI   C3A 2745  16.523  15.344  10.041 -0.1368  0.1444 -0.1332
  172loPI   C4A 2746  16.395  15.281   9.601 -0.0136  0.0307 -0.1457
  172loPI   C5A 2747  16.331  15.190   9.184 -0.3358 -0.3642  0.2662
  172loPI   C6A 2748  16.526  15.045   8.821 -0.2086 -0.1842  0.1780
  172loPI   C1B 2749  16.256  14.928  10.562 -0.3038 -0.0452  0.1625
  172loPI   C2B 2750  16.209  14.997  10.188  0.1440  0.1568  0.0383
  172loPI   C3B 2751  16.099  14.853   9.722  0.0475  0.1720  0.2517
  172loPI   C4B 2752  16.019  14.808   9.244  0.4846  0.3922  0.1008
  173loPI    C1 2753  13.538  15.081  11.567 -0.0829 -0.0491  0.0298
  173loPI    C2 2754  13.848  15.171  11.802 -0.0501  0.0031 -0.0330
  173loPI    C3 2755  13.496  15.352  11.858  0.0064  0.1472 -0.1371
  173loPI   PO4 2756  13.543  15.133  11.272  0.0830 -0.0971  0.1407
  173loPI   GL1 2757  13.489  14.880  10.927  0.0614 -0.0036  0.3249
  173loPI   GL2 2758  13.921  15.039  10.879 -0.1597 -0.2582 -0.1358
  173loPI   C1A 2759  13.592  15.011  10.491  0.2848 -0.0925  0.0089
  173loPI   C2A 2760  13.577  14.988  10.068  0.0314  0.2278  0.0048
  173loPI   C3A 2761  13.520  14.927   9.651 -0.0487  0.2938  0.0158
  173loPI   C4A 2762  13.419  14.985   9.191  0.1030 -0.0950 -0.1720
  173loPI   C5A 2763  13.186  15.219   8.874 -0.0798 -0.1010  0.2090
  173loPI   C6A 2764  12.764  15.132   8.650  0.2089 -0.1179 -0.0108
  173loPI   C1B 2765  14.087  15.075  10.504  0.1021  0.3048  0.2192
  173loPI   C2B 2766  14.129  14.959  10.099 -0.3045  0.0360 -0.1383
  173loPI   C3B 2767  13.986  14.928   9.720  0.2076 -0.1328  0.1273
  173loPI   C4B 2768  14.113  14.940   9.307 -0.2150  0.2411  0.1361
  174loPI    C1 2769  16.996   2.635  11.880 -0.2462 -0.2639  0.0396
  174loPI    C2 2770  17.307   2.419  12.010 -0.0718  0.0003  0.0701
  174loPI    C3 2771  17.296   2.814  12.075 -0.2338  0.0541 -0.2604
  174loPI   PO4 2772  17.012   2.593  11.621 -0.0384 -0.1809  0.1144
  174loPI   GL1 2773  16.811   2.629  11.164 -0.0954  0.1725  0.1730
  174loPI   GL2 2774  16.986   2.280  11.000  0.0292  0.0126 -0.1375
  174loPI   C1A 2775  16.684   2.689  10.760 -0.3796  0.0306  0.0107
  174loPI   C2A 2776  16.726   2.699  10.325  0.1394 -0.0209  0.1429
  174loPI   C3A 2777  16.827   2.722   9.878  0.3360  0.0684  0.2972
  174loPI   C4A 2778  16.937   2.784   9.445 -0.1713  0.1443 -0.0377
  174loPI   C5A 2779  16.810   2.681   8.986 -0.1556 -0.0404 -0.0222
  174loPI   C6A 2780  16.829   2.335   8.700  0.1662 -0.0778 -0.1059
  174loPI   C1B 2781  16.990   2.329  10.594  0.0662 -0.1553 -0.0801
  174loPI   C2B 2782  16.989   2.295  10.121  0.1127 -0.0369  0.0168
  174loPI   C3B 2783  17.129   2.332   9.628  0.0993 -0.1330  0.1248
  174loPI   C4B 2784  17.048   2.265   9.168 -0.0886 -0.1206 -0.1517
  175loPI    C1 2785  15.582  14.455  11.379  0.0253  0.0173  0.1511
  175loPI    C2 2786  15.252  14.670  11.313  0.1311  0.1467  0.0366
  175loPI    C3 2787  15.346  14.557  11.685  0.0024  0.1805  0.0800
  175loPI   PO4 2788  15.717  14.523  11.120 -0.0275 -0.1002  0.4296
  175loPI   GL1 2789  15.713  14.304  10.782 -0.1004  0.0979 -0.4245
  175loPI   GL2 2790  15.983  14.398  10.673  0.2653  0.0964 -0.0178
  175loPI   C1A 2791  15.594  13.998  10.582  0.2988  0.1634 -0.3105
  175loPI   C2A 2792  15.576  13.888  10.169 -0.2981 -0.0212  0.1288
  175loPI   C3A 2793  15.566  14.003   9.738  0.1525  0.0847  0.2127
  175loPI   C4A 2794  15.500  13.900   9.299  0.0390 -0.0683 -0.2400
  175loPI   C5A 2795  15.202  13.580   9.121  0.3534 -0.1918 -0.1411
  175loPI   C6A 2796  15.084  13.305   8.860  0.1262  0.2208  0.0931
  175loPI   C1B 2797  15.901  14.286  10.276 -0.4674  0.1020  0.2739
  175loPI   C2B 2798  15.929  14.330   9.796  0.1479  0.1505  0.2209
  175loPI   C3B 2799  15.779  14.359   9.450  0.0039  0.0552  0.0448
  175loPI   C4B 2800  15.722  14.478   9.026  0.0448 -0.0537  0.0209
  176loPI    C1 2801  13.560  13.887  11.738  0.1416 -0.0646  0.2487
  176loPI    C2 2802  13.277  14.157  11.821  0.1182 -0.0010 -0.0287
  176loPI    C3 2803  13.412  13.914  12.108 -0.2162 -0.0313  0.1076
  176loPI   PO4 2804  13.412  13.724  11.552 -0.1314  0.0686 -0.2408
  176loPI   GL1 2805  13.311  13.544  11.143  0.1646 -0.1706  0.3198
  176loPI   GL2 2806  13.212  13.216  11.104 -0.0347 -0.2625 -0.0390
  176loPI   C1A 2807  13.145  13.631  10.716 -0.0153 -0.2035 -0.0868
  176loPI   C2A 2808  13.224  13.615  10.259  0.2112  0.2911 -0.2601
  176loPI   C3A 2809  13.159  13.682   9.802  0.0224 -0.3930 -0.2032
  176loPI   C4A 2810  13.373  13.658   9.380  0.0647  0.1067 -0.0608
  176loPI   C5A 2811  13.154  13.470   9.073 -0.1255 -0.2252  0.0568
  176loPI   C6A 2812  13.138  13.113   8.823  0.0624  0.1690  0.1394
  176loPI   C1B 2813  13.350  13.125  10.658  0.0362  0.0299 -0.0784
  176loPI   C2B 2814  13.480  13.101  10.214  0.1337 -0.1997 -0.1266
  176loPI   C3B 2815  13.390  13.108   9.812  0.1532 -0.0656  0.2082
  176loPI   C4B 2816  13.427  13.155   9.388  0.2791  0.0023  0.1253
  177loPI    C1 2817  14.946   3.869  11.340 -0.0426  0.2766 -0.1115
  177loPI    C2 2818  14.901   4.192  11.572  0.2619  0.2399  0.0039
  177loPI    C3 2819  15.009   3.842  11.734  0.0294  0.1011 -0.1336
  177loPI   PO4 2820  14.686   3.977  11.151  0.2914 -0.1153 -0.1197
  177loPI   GL1 2821  14.624   4.212  10.807  0.3096 -0.0016 -0.0954
  177loPI   GL2 2822  14.791   4.407  10.775  0.1351 -0.1067 -0.0313
  177loPI   C1A 2823  14.286   4.066  10.424 -0.1104  0.0654  0.0988
  177loPI   C2A 2824  14.274   4.078  10.024 -0.0791  0.1972  0.0455
  177loPI   C3A 2825  14.358   3.970   9.667 -0.1911  0.1829 -0.0449
  177loPI   C4A 2826  14.289   3.821   9.302  0.2843 -0.1444  0.1468
  177loPI   C5A 2827  14.405   3.882   8.895  0.1395  0.1085  0.1546
  177loPI   C6A 2828  14.436   4.254   8.693 -0.3021 -0.1961 -0.2564
  177loPI   C1B 2829  14.822   4.324  10.352 -0.2334  0.4127  0.2481
  177loPI   C2B 2830  14.765   4.298   9.852 -0.1972  0.3204  0.1189
  177loPI   C3B 2831  14.861   4.406   9.527  0.1203  0.2535 -0.1055
  177loPI   C4B 2832  15.179   4.471   9.230  0.1852  0.0442  0.1915
  178loPI    C1 2833   6.095   3.545  11.702 -0.5129 -0.2645 -0.3252
  178loPI    C2 2834   6.056   3.299  12.014 -0.1604 -0.0129 -0.0747
  178loPI    C3 2835   5.850   3.642  12.002  0.3441  0.3143  0.2340
  178loPI   PO4 2836   6.060   3.466  11.502  0.1957  0.0898  0.2203
  178loPI   GL1 2837   5.818   3.497  11.184 -0.0086  0.2291 -0.0049
  178loPI   GL2 2838   5.689   3.211  11.225  0.5108  0.0112 -0.0733
  178loPI   C1A 2839   5.935   3.614  10.779  0.1956  0.0024  0.0462
  178loPI   C2A 2840   5.958   3.655  10.320  0.0273 -0.1152  0.1455
  178loPI   C3A 2841   5.799   3.637   9.982  0.0668  0.0535  0.1067
  178loPI   C4A 2842   6.010   3.693   9.566  0.1779 -0.1174 -0.1510
  178loPI   C5A 2843   5.981   3.559   9.173 -0.2692 -0.0868  0.3435
  178loPI   C6A 2844   6.223   3.322   8.835 -0.0938  0.0096 -0.0306
  178loPI   C1B 2845   5.457   2.802  10.984 -0.0868 -0.0560 -0.0143
  178loPI   C2B 2846   5.338   2.824  10.494  0.0394  0.2998 -0.1535
  178loPI   C3B 2847   5.194   2.790  10.121 -0.2133 -0.0213 -0.0197
  178loPI   C4B 2848   5.227   2.816   9.698 -0.2192  0.2072 -0.1453
  179loPI    C1 2849   7.509   6.272  11.695  0.0515 -0.1586  0.0944
  179loPI    C2 2850   7.281   6.246  11.368 -0.1137 -0.0532  0.1994
  179loPI    C3 2851   7.388   5.914  11.563 -0.1378 -0.1066  0.1226
  179loPI   PO4 2852   7.665   6.459  11.551 -0.0739  0.0782 -0.0540
  179loPI   GL1 2853   7.609   6.613  11.228  0.2369  0.1694  0.3878
  179loPI   GL2 2854   7.331   6.570  11.007  0.0305  0.0159  0.0109
  179loPI   C1A 2855   7.739   6.883  10.869  0.0416 -0.0084  0.0010
  179loPI   C2A 2856   7.721   6.937  10.515  0.1917  0.0006  0.0527
  179loPI   C3A 2857   7.705   7.051   9.968  0.3577 -0.1342 -0.2428
  179loPI   C4A 2858   7.845   7.165   9.582  0.0881  0.1474  0.1020
  179loPI   C5A 2859   7.638   7.063   9.216 -0.0703  0.3045 -0.0457
  179loPI   C6A 2860   7.659   6.707   8.892 -0.1170  0.0841 -0.3552
  179loPI   C1B 2861   7.314   6.609  10.621 -0.3375  0.1936 -0.0594
  179loPI   C2B 2862   7.365   6.721  10.187  0.1630 -0.2819  0.0021
  179loPI   C3B 2863   7.443   6.725   9.785 -0.1242 -0.0608 -0.0596
  179loPI   C4B 2864   7.472   6.656   9.400  0.3218 -0.0480 -0.0301
  180loPI    C1 2865  12.160   3.213  11.585  0.1961  0.0741  0.0452
  180loPI    C2 2866  12.233   3.487  11.866  0.0135  0.0466  0.1213
  180loPI    C3 2867  11.933   3.228  11.914 -0.1248  0.1477 -0.1751
  180loPI   PO4 2868  12.133   3.317  11.377  0.2869  0.0358 -0.1064
  180loPI   GL1 2869  12.222   3.491  10.935 -0.0552  0.0202 -0.1227
  180loPI   GL2 2870  12.489   3.657  10.906  0.1004 -0.0937 -0.1413
  180loPI   C1A 2871  12.033   3.567  10.520 -0.0713  0.3792  0.0508
  180loPI   C2A 2872  11.843   3.531  10.101 -0.0661 -0.0623  0.1343
  180loPI   C3A 2873  11.753   3.588   9.687  0.0002  0.4183  0.4601
  180loPI   C4A 2874  11.668   3.756   9.318  0.1780 -0.1207 -0.0453
  180loPI   C5A 2875  11.584   4.156   9.005  0.0678  0.0082 -0.1150
  180loPI   C6A 2876  11.335   4.396   8.852 -0.0320 -0.0222 -0.4377
  180loPI   C1B 2877  12.492   3.784  10.436  0.1310  0.3112 -0.1269
  180loPI   C2B 2878  12.384   3.882  10.069 -0.2156  0.0067 -0.0231
  180loPI   C3B 2879  12.401   3.933   9.692 -0.2014  0.0636  0.1150
  180loPI   C4B 2880  12.348   4.167   9.333  0.1005 -0.3917  0.1298
  181loPI    C1 2881  10.725   5.046  11.395  0.0431  0.0565 -0.0308
  181loPI    C2 2882  10.579   4.759  11.632 -0.1321  0.0592 -0.1337
  181loPI    C3 2883  10.910   4.692  11.418 -0.1775 -0.0698 -0.1645
  181loPI   PO4 2884  10.570   5.093  11.218 -0.1819  0.1216  0.1332
  181loPI   GL1 2885  10.381   5.177  10.753 -0.1215 -0.2832  0.1254
  181loPI   GL2 2886  10.248   4.938  10.706 -0.1562 -0.2262 -0.0279
  181loPI   C1A 2887  10.637   5.169  10.408  0.0240 -0.0324 -0.1249
  181loPI   C2A 2888  10.790   5.225   9.977 -0.0229  0.2493  0.0355
  181loPI   C3A 2889  10.818   5.245   9.551 -0.1100  0.1231  0.0467
  181loPI   C4A 2890  10.869   5.244   9.069  0.0350 -0.0472  0.2288
  181loPI   C5A 2891  11.050   5.523   8.838 -0.1543  0.0653 -0.1772
  181loPI   C6A 2892  11.330   5.773   8.614  0.2251 -0.1223 -0.0615
  181loPI   C1B 2893  10.153   4.981  10.405 -0.1995 -0.0227 -0.0714
  181loPI   C2B 2894  10.300   5.020  10.060 -0.0135 -0.0683  0.0845
  181loPI   C3B 2895  10.336   5.262   9.631 -0.1159  0.1857 -0.0339
  181loPI   C4B 2896  10.211   5.213   9.259 -0.2373 -0.1550  0.0489
  182loPI    C1 2897   0.748  12.167  11.219  0.0765  0.0609 -0.0667
  182loPI    C2 2898   0.781  11.914  11.527  0.0921 -0.0478 -0.1570
  182loPI    C3 2899   0.563  12.248  11.564  0.0480 -0.0886 -0.0465
  182loPI   PO4 2900   0.617  11.983  11.028  0.2087 -0.3040 -0.0795
  182loPI   GL1 2901   0.563  11.902  10.620  0.0457 -0.1496 -0.0768
  182loPI   GL2 2902   0.229  12.001  10.751  0.2933 -0.0557  0.0429
  182loPI   C1A 2903   0.474  11.820  10.199  0.3566 -0.4955  0.3833
  182loPI   C2A 2904   0.383  11.908   9.686  0.0743  0.1418  0.3343
  182loPI   C3A 2905   0.382  11.712   9.208  0.0414 -0.0323 -0.1078
  182loPI   C4A 2906   0.171  11.277   9.114 -0.0187 -0.1468  0.0339
  182loPI   C5A 2907   0.280  10.828   9.127  0.1483 -0.2679  0.1973
  182loPI   C6A 2908   0.157  10.396   9.059  0.0133 -0.0019  0.1805
  182loPI   C1B 2909   0.030  11.941  10.399  0.0935 -0.0499  0.1975
  182loPI   C2B 2910  -0.181  11.926   9.992  0.0531  0.0809  0.1191
  182loPI   C3B 2911  -0.120  11.975   9.560 -0.2725  0.0867  0.1862
  182loPI   C4B 2912   0.055  12.084   9.148  0.1536 -0.0801  0.2997
  183loPI    C1 2913   0.615   9.778  11.508  0.1126 -0.1160  0.0052
  183loPI    C2 2914   0.348   9.611  11.260  0.0976  0.0971 -0.1250
  183loPI    C3 2915   0.543   9.943  11.150  0.2325  0.0852  0.0721
  183loPI   PO4 2916   0.706   9.582  11.561  0.0636  0.2411 -0.1775
  183loPI   GL1 2917   0.760   9.269  11.313  0.1148  0.0866 -0.1389
  183loPI   GL2 2918   0.865   9.054  11.212 -0.1687  0.1456  0.0434
  183loPI   C1A 2919   0.644   9.428  10.911  0.2019  0.2214  0.0255
  183loPI   C2A 2920   0.635   9.439  10.432 -0.2314 -0.1272 -0.0377
  183loPI   C3A 2921   0.574   9.531  10.116 -0.1427  0.0568 -0.1837
  183loPI   C4A 2922   0.523   9.565   9.771  0.1301 -0.0723  0.4312
  183loPI   C5A 2923   0.597   9.526   9.404 -0.3378 -0.1148  0.0625
  183loPI   C6A 2924   0.857   9.248   9.098 -0.2468 -0.0427 -0.0996
  183loPI   C1B 2925   0.844   8.990  10.767  0.2327  0.0086 -0.0621
  183loPI   C2B 2926   0.842   8.960  10.393  0.2562  0.0988 -0.5246
  183loPI   C3B 2927   0.817   9.017  10.000 -0.0270 -0.2490  0.0911
  183loPI   C4B 2928   0.767   9.115   9.654 -0.1302  0.0899 -0.0194
  184loPI    C1 2929  16.615   6.239  11.799  0.2090 -0.2724  0.0742
  184loPI    C2 2930  16.654   6.399  12.164 -0.4311  0.0720  0.0054
  184loPI    C3 2931  16.406   6.090  12.105  0.1408 -0.3983 -0.0326
  184loPI   PO4 2932  16.661   6.503  11.661  0.4944 -0.2185  0.3093
  184loPI   GL1 2933  16.852   6.479  11.297 -0.0716  0.1856 -0.0020
  184loPI   GL2 2934  16.794   6.813  11.260 -0.0391 -0.1248  0.2677
  184loPI   C1A 2935  17.033   6.489  10.895  0.0680  0.0349 -0.1895
  184loPI   C2A 2936  17.028   6.447  10.455 -0.0266  0.1890 -0.0492
  184loPI   C3A 2937  17.012   6.368  10.049 -0.3395  0.0427  0.1853
  184loPI   C4A 2938  17.112   6.375   9.738 -0.1188 -0.1740 -0.3349
  184loPI   C5A 2939  17.297   6.387   9.441 -0.1658  0.0504 -0.3091
  184loPI   C6A 2940  17.226   6.501   8.984  0.2516 -0.0763 -0.2355
  184loPI   C1B 2941  16.790   6.986  10.807 -0.0896  0.0169  0.2797
  184loPI   C2B 2942  16.885   6.988  10.328 -0.0050 -0.3702 -0.1641
  184loPI   C3B 2943  16.866   6.825   9.924  0.1221  0.0692 -0.3258
  184loPI   C4B 2944  17.044   6.840   9.449  0.1441  0.3948  0.0919
  185loPI    C1 2945   0.671  16.320  11.513 -0.0187  0.1723 -0.0554
  185loPI    C2 2946   0.389  16.216  11.777  0.0194  0.0455 -0.0639
  185loPI    C3 2947   0.775  16.199  11.880  0.0240  0.2316 -0.0479
  185loPI   PO4 2948   0.491  16.419  11.287  0.3034  0.3149 -0.0650
  185loPI   GL1 2949   0.609  16.573  10.947  0.1150 -0.0505 -0.0219
  185loPI   GL2 2950   0.918  16.633  10.731 -0.0509 -0.0872 -0.0319
  185loPI   C1A 2951   0.351  16.605  10.616  0.3347 -0.0047  0.0565
  185loPI   C2A 2952   0.359  16.581  10.197 -0.1585  0.1612  0.0987
  185loPI   C3A 2953   0.352  16.571   9.739 -0.0762 -0.1516  0.0637
  185loPI   C4A 2954   0.173  16.529   9.242 -0.0115 -0.3398  0.0391
  185loPI   C5A 2955  -0.107  16.282   8.959 -0.3103 -0.1656  0.2784
  185loPI   C6A 2956  -0.170  15.891   8.895  0.4173 -0.4131 -0.0213
  185loPI   C1B 2957   0.830  16.559  10.310 -0.0075 -0.1736  0.0978
  185loPI   C2B 2958   0.818  16.592   9.922 -0.0679  0.4570 -0.0656
  185loPI   C3B 2959   0.795  16.534   9.515 -0.0327  0.2985 -0.1669
  185loPI   C4B 2960   0.782  16.653   9.154 -0.1601 -0.0713  0.1007
  186loPI    C1 2961  11.450  11.104  11.675 -0.1005 -0.0587 -0.1993
  186loPI    C2 2962  11.276  11.262  11.999  0.1806 -0.1675  0.0091
  186loPI    C3 2963  11.478  10.918  12.028  0.0769 -0.2600 -0.3172
  186loPI   PO4 2964  11.447  11.322  11.485  0.0818  0.0271  0.0522
  186loPI   GL1 2965  11.339  11.316  11.099 -0.0029  0.1283  0.3464
  186loPI   GL2 2966  11.532  11.560  11.062 -0.1797 -0.1022 -0.1522
  186loPI   C1A 2967  11.242  11.383  10.687 -0.2527  0.4310 -0.1534
  186loPI   C2A 2968  11.180  11.553  10.343 -0.2300 -0.2392  0.0425
  186loPI   C3A 2969  11.216  11.462  10.013  0.0953 -0.1755  0.1017
  186loPI   C4A 2970  11.224  11.439   9.586  0.3824  0.4222  0.1476
  186loPI   C5A 2971  11.460  11.332   9.139 -0.0078  0.1772 -0.0562
  186loPI   C6A 2972  11.824  11.665   8.916 -0.2640 -0.1185 -0.0886
  186loPI   C1B 2973  11.728  11.520  10.736  0.0211 -0.2062 -0.1235
  186loPI   C2B 2974  11.676  11.546  10.278  0.0690 -0.0465  0.1295
  186loPI   C3B 2975  11.827  11.455   9.817 -0.1733 -0.2268  0.0025
  186loPI   C4B 2976  11.977  11.327   9.408  0.1031 -0.1183  0.1875
  187loPI    C1 2977  10.145  12.378  11.568 -0.1787 -0.3936 -0.0404
  187loPI    C2 2978  10.449  12.515  11.788 -0.1497  0.0086 -0.3194
  187loPI    C3 2979  10.214  12.224  11.930 -0.0852  0.2018  0.2058
  187loPI   PO4 2980   9.960  12.588  11.526  0.0566 -0.0747  0.0036
  187loPI   GL1 2981  10.127  12.714  11.154 -0.0011  0.0360  0.0676
  187loPI   GL2 2982   9.886  12.987  11.060 -0.0050 -0.1482  0.1493
  187loPI   C1A 2983  10.148  12.682  10.825 -0.2029  0.3541  0.2993
  187loPI   C2A 2984  10.257  12.616  10.412 -0.0791 -0.1262 -0.1559
  187loPI   C3A 2985  10.300  12.446  10.149  0.1663  0.1081 -0.2316
  187loPI   C4A 2986  10.246  12.453   9.796 -0.2335  0.0528 -0.1560
  187loPI   C5A 2987  10.178  12.334   9.482  0.1900  0.2984 -0.3255
  187loPI   C6A 2988   9.913  11.971   9.289 -0.2535 -0.1806  0.2462
  187loPI   C1B 2989   9.968  13.107  10.601  0.0096 -0.0040  0.1700
  187loPI   C2B 2990  10.026  13.022  10.175  0.1000  0.0260 -0.0698
  187loPI   C3B 2991  10.081  12.892   9.762  0.1382 -0.1520  0.0649
  187loPI   C4B 2992  10.140  12.841   9.339 -0.1563 -0.0691 -0.2152
  188loPI    C1 2993  13.795   9.847  11.932  0.1023  0.0210  0.0946
  188loPI    C2 2994  13.895  10.086  11.628 -0.0960  0.1831  0.1543
  188loPI    C3 2995  13.982  10.193  12.003  0.1877 -0.0370  0.1553
  188loPI   PO4 2996  13.791   9.604  11.764 -0.1042  0.0480 -0.1408
  188loPI   GL1 2997  13.987   9.611  11.392 -0.0146  0.2626  0.0900
  188loPI   GL2 2998  13.742   9.759  11.170 -0.1164 -0.0282  0.0672
  188loPI   C1A 2999  14.181   9.587  10.957 -0.2430  0.0159  0.0404
  188loPI   C2A 3000  14.176   9.431  10.479 -0.1853 -0.3954 -0.6079
  188loPI   C3A 3001  14.157   9.554  10.057 -0.1272  0.0170  0.2001
  188loPI   C4A 3002  14.154   9.499   9.562  0.1328  0.2214 -0.1625
  188loPI   C5A 3003  14.082   9.233   9.149  0.1699 -0.0856 -0.1825
  188loPI   C6A 3004  13.985   8.868   8.830 -0.2766  0.0978 -0.1660
  188loPI   C1B 3005  13.741   9.583  10.673  0.3911  0.2065  0.0423
  188loPI   C2B 3006  13.689   9.481  10.217 -0.0477  0.0068 -0.1373
  188loPI   C3B 3007  13.692   9.433   9.786 -0.1872  0.2891  0.0127
  188loPI   C4B 3008  13.607   9.377   9.295 -0.3601  0.3609  0.1376
  189loPI    C1 3009   8.317   5.514  11.760 -0.0436  0.0293  0.1306
  189loPI    C2 3010   8.497   5.870  11.742 -0.1387  0.0756  0.0924
  189loPI    C3 3011   8.676   5.565  11.929  0.0550  0.0752 -0.0903
  189loPI   PO4 3012   8.185   5.494  11.524  0.0526 -0.1664  0.0496
  189loPI   GL1 3013   8.083   5.267  11.248 -0.0014 -0.1497 -0.2509
  189loPI   GL2 3014   7.760   5.063  11.205 -0.1170  0.1877  0.3055
  189loPI   C1A 3015   8.229   5.197  10.864 -0.1482  0.1768  0.0370
  189loPI   C2A 3016   8.170   5.208  10.367 -0.0926 -0.1855 -0.0004
  189loPI   C3A 3017   8.132   5.266   9.868 -0.1416  0.0437 -0.1041
  189loPI   C4A 3018   8.114   5.344   9.524  0.1976  0.2603 -0.1767
  189loPI   C5A 3019   7.981   5.438   9.245  0.0077 -0.3176 -0.1626
  189loPI   C6A 3020   7.706   5.608   8.918  0.2212  0.0319 -0.1859
  189loPI   C1B 3021   7.649   5.251  10.782  0.0384  0.1623 -0.0294
  189loPI   C2B 3022   7.617   5.300  10.327 -0.1555  0.1139  0.1880
  189loPI   C3B 3023   7.643   5.390   9.897  0.0601  0.2873  0.2172
  189loPI   C4B 3024   7.531   5.402   9.405 -0.0354 -0.0905 -0.0289
  190loPI    C1 3025   2.552  10.233  11.756 -0.0402  0.0954 -0.0418
  190loPI    C2 3026   2.694  10.026  12.067  0.0874  0.0442 -0.1332
  190loPI    C3 3027   2.315  10.153  12.068 -0.0043 -0.2216 -0.0915
  190loPI   PO4 3028   2.612  10.083  11.590  0.4302 -0.0651  0.0110
  190loPI   GL1 3029   2.513   9.884  11.165 -0.3238 -0.1214  0.0405
  190loPI   GL2 3030   2.679  10.167  11.064  0.0516  0.0836 -0.0462
  190loPI   C1A 3031   2.319   9.760  10.794  0.1458  0.0861  0.1866
  190loPI   C2A 3032   2.352   9.919  10.517  0.1809  0.2275  0.0319
  190loPI   C3A 3033   2.353   9.882  10.180 -0.2624  0.0302 -0.1609
  190loPI   C4A 3034   2.414   9.841   9.798  0.2753  0.2065 -0.3330
  190loPI   C5A 3035   2.413   9.972   9.437  0.2063  0.1539  0.2341
  190loPI   C6A 3036   2.171  10.203   9.117  0.0929 -0.0882 -0.0475
  190loPI   C1B 3037   2.873  10.315  10.753 -0.0534 -0.0471  0.2796
  190loPI   C2B 3038   2.809  10.267  10.249  0.1663 -0.4223 -0.0584
  190loPI   C3B 3039   2.694  10.302   9.897  0.1605  0.2682  0.0931
  190loPI   C4B 3040   2.687  10.382   9.485 -0.1606  0.1649 -0.1013
  191loPI    C1 3041  13.066  16.478  11.707 -0.1385 -0.2057 -0.2838
  191loPI    C2 3042  13.430  16.373  11.835 -0.1078  0.2080 -0.0128
  191loPI    C3 3043  13.106  16.205  11.997 -0.0479  0.1486  0.0465
  191loPI   PO4 3044  13.209  16.580  11.449 -0.0569  0.0939  0.2022
  191loPI   GL1 3045  13.278  16.514  11.054 -0.2088 -0.0254 -0.0507
  191loPI   GL2 3046  13.230  16.802  11.000  0.4357 -0.3281 -0.0988
  191loPI   C1A 3047  13.411  16.434  10.650 -0.0167  0.3016  0.0999
  191loPI   C2A 3048  13.351  16.441  10.201  0.2405  0.2462 -0.2104
  191loPI   C3A 3049  13.399  16.275   9.743 -0.0786  0.4672 -0.0479
  191loPI   C4A 3050  13.504  16.237   9.284 -0.0581 -0.2053  0.1896
  191loPI   C5A 3051  13.283  16.073   8.943  0.1002  0.1202 -0.1774
  191loPI   C6A 3052  13.077  15.918   8.690  0.0726 -0.0501 -0.1402
  191loPI   C1B 3053  13.071  16.868  10.575  0.1307 -0.0272  0.2167
  191loPI   C2B 3054  13.135  16.904  10.077  0.2323  0.0104 -0.0198
  191loPI   C3B 3055  13.189  16.856   9.646 -0.0839  0.2861 -0.0118
  191loPI   C4B 3056  13.330  16.668   9.291 -0.0661  0.1087  0.1191
  192loPI    C1 3057  15.247   8.611  11.807  0.0073  0.0641  0.0166
  192loPI    C2 3058  15.482   8.889  11.973  0.0180  0.0546  0.0172
  192loPI    C3 3059  15.125   8.807  12.133  0.1200 -0.1093  0.1642
  192loPI   PO4 3060  15.198   8.641  11.506  0.1416 -0.1909 -0.2316
  192loPI   GL1 3061  15.256   8.475  11.182 -0.2186 -0.1946  0.3477
  192loPI   GL2 3062  15.574   8.505  11.170 -0.2363  0.1503 -0.2010
  192loPI   C1A 3063  15.183   8.467  10.724 -0.2271  0.0053 -0.0760
  192loPI   C2A 3064  15.093   8.452  10.271 -0.1663  0.0433  0.1213
  192loPI   C3A 3065  15.226   8.351   9.804  0.2038  0.0487  0.0150
  192loPI   C4A 3066  15.132   8.358   9.397  0.0914  0.3070  0.2927
  192loPI   C5A 3067  14.873   8.093   9.184 -0.2833 -0.0046 -0.3590
  192loPI   C6A 3068  14.556   7.961   8.925  0.0850  0.0365 -0.0167
  192loPI   C1B 3069  15.661   8.413  10.828 -0.0129  0.0522  0.4772
  192loPI   C2B 3070  15.706   8.402  10.396 -0.1168 -0.0260 -0.0713
  192loPI   C3B 3071  15.747   8.282   9.918  0.0470 -0.2080 -0.0001
  192loPI   C4B 3072  15.705   8.385   9.505 -0.0185  0.1233 -0.1098
  193loPI    C1 3073   2.882  12.672  11.962  0.1092 -0.2183  0.0223
  193loPI    C2 3074   2.680  12.329  12.003 -0.0938 -0.0754  0.2485
  193loPI    C3 3075   2.566  12.653  12.206  0.0024  0.1697 -0.0799
  193loPI   PO4 3076   2.871  12.710  11.630 -0.1803 -0.1805 -0.0980
  193loPI   GL1 3077   2.923  12.895  11.165 -0.0048  0.1504  0.0178
  193loPI   GL2 3078   2.983  12.611  11.012  0.1172  0.0324  0.0913
  193loPI   C1A 3079   2.992  13.115  10.698  0.1765  0.4053 -0.1368
  193loPI   C2A 3080   2.961  13.066  10.339  0.1715 -0.0734 -0.0386
  193loPI   C3A 3081   2.845  13.114   9.936  0.1663 -0.1116  0.2645
  193loPI   C4A 3082   2.737  13.121   9.454 -0.2588 -0.0936  0.1701
  193loPI   C5A 3083   2.746  12.919   8.983  0.2386  0.1085 -0.0149
  193loPI   C6A 3084   2.526  13.087   8.519  0.1279 -0.4216 -0.2948
  193loPI   C1B 3085   2.717  12.661  10.641  0.1875 -0.0889 -0.0087
  193loPI   C2B 3086   2.637  12.728  10.225  0.1480  0.2851  0.2498
  193loPI   C3B 3087   2.539  12.711   9.768 -0.0063  0.1229  0.1557
  193loPI   C4B 3088   2.509  12.536   9.351  0.2430  0.1698  0.2055
  194loPI    C1 3089   8.633  15.380  11.466 -0.2165 -0.0939  0.2589
  194loPI    C2 3090   8.964  15.523  11.641 -0.1583  0.1797 -0.0637
  194loPI    C3 3091   8.635  15.457  11.859  0.0861 -0.0374  0.2493
  194loPI   PO4 3092   8.621  15.516  11.253 -0.0539  0.0839  0.0142
  194loPI   GL1 3093   8.638  15.657  10.904 -0.2080 -0.0150  0.0823
  194loPI   GL2 3094   8.322  15.562  10.882  0.1766  0.3755 -0.1062
  194loPI   C1A 3095   8.655  15.742  10.462 -0.2176 -0.1713 -0.1482
  194loPI   C2A 3096   8.752  15.776   9.988  0.0326  0.1257 -0.0701
  194loPI   C3A 3097   8.913  16.010   9.589 -0.0323 -0.1013  0.1147
  194loPI   C4A 3098   9.043  16.053   9.161  0.0547 -0.2177  0.1423
  194loPI   C5A 3099   8.961  15.771   8.856  0.3105 -0.0230 -0.3296
  194loPI   C6A 3100   9.153  15.408   8.624  0.3872  0.1800  0.1506
  194loPI   C1B 3101   8.127  15.652  10.519 -0.3314  0.1504  0.2662
  194loPI   C2B 3102   8.253  15.606  10.123 -0.4803 -0.1867  0.1400
  194loPI   C3B 3103   8.315  15.478   9.760 -0.2185  0.0493 -0.1025
  194loPI   C4B 3104   8.644  15.581   9.476  0.1724  0.1357 -0.0218
  195loPI    C1 3105  11.140   7.998  11.890  0.0075  0.0644  0.1402
  195loPI    C2 3106  11.316   8.256  12.139  0.1528  0.1398 -0.0385
  195loPI    C3 3107  11.264   7.876  12.251 -0.0245  0.2341  0.2097
  195loPI   PO4 3108  11.224   8.020  11.666 -0.2380 -0.2326  0.3055
  195loPI   GL1 3109  11.274   8.198  11.305 -0.2565  0.0189  0.1531
  195loPI   GL2 3110  10.988   8.026  11.218  0.0159  0.0073  0.1308
  195loPI   C1A 3111  11.171   8.417  10.959 -0.0324  0.2680  0.1113
  195loPI   C2A 3112  11.299   8.278  10.600  0.0872 -0.0154  0.1451
  195loPI   C3A 3113  11.240   8.253  10.144 -0.0055  0.2876  0.2957
  195loPI   C4A 3114  11.308   8.288   9.698 -0.2294 -0.0105  0.2574
  195loPI   C5A 3115  11.203   8.378   9.268 -0.1775  0.0272 -0.2308
  195loPI   C6A 3116  11.037   8.405   8.926  0.0284 -0.0730 -0.1200
  195loPI   C1B 3117  11.034   7.944  10.818 -0.0158 -0.2243 -0.0427
  195loPI   C2B 3118  11.015   7.883  10.335 -0.2941  0.0009  0.0195
  195loPI   C3B 3119  11.053   7.877   9.851  0.2962  0.1033  0.2249
  195loPI   C4B 3120  11.232   7.914   9.386  0.0261 -0.0212 -0.0264
  196loPI    C1 3121   3.457  13.589  11.605  0.1396 -0.1499 -0.0863
  196loPI    C2 3122   3.498  13.935  11.802 -0.0568  0.0821 -0.4417
  196loPI    C3 3123   3.286  13.636  11.963 -0.0525  0.1974 -0.2190
  196loPI   PO4 3124   3.561  13.686  11.357 -0.0760 -0.1247  0.1717
  196loPI   GL1 3125   3.694  13.792  10.946  0.3319  0.0711 -0.0612
  196loPI   GL2 3126   3.787  13.448  10.939 -0.1157  0.1620 -0.1605
  196loPI   C1A 3127   3.634  13.919  10.560 -0.1130  0.2806  0.1003
  196loPI   C2A 3128   3.588  13.978  10.090 -0.2140  0.2490  0.0936
  196loPI   C3A 3129   3.521  13.931   9.683 -0.0525  0.0660  0.2711
  196loPI   C4A 3130   3.571  13.986   9.191 -0.1270  0.0994  0.0515
  196loPI   C5A 3131   3.382  13.977   8.799 -0.1385  0.0704  0.0224
  196loPI   C6A 3132   2.993  14.179   8.717  0.1764  0.0043  0.1377
  196loPI   C1B 3133   3.789  13.464  10.522 -0.1844 -0.2538  0.1084
  196loPI   C2B 3134   3.782  13.527  10.084 -0.3696 -0.2169 -0.1620
  196loPI   C3B 3135   3.597  13.454   9.593 -0.1141 -0.3162  0.2059
  196loPI   C4B 3136   3.583  13.464   9.167  0.1438  0.1480  0.0867
  197loPI    C1 3137   6.939   9.782  11.925 -0.0507  0.0349  0.0252
  197loPI    C2 3138   7.236   9.895  12.168  0.1387 -0.2807 -0.0537
  197loPI    C3 3139   6.870   9.827  12.316  0.1745 -0.1645  0.0902
  197loPI   PO4 3140   6.918  10.015  11.746 -0.1435 -0.1161 -0.1477
  197loPI   GL1 3141   7.042  10.075  11.290 -0.2683 -0.0889 -0.3146
  197loPI   GL2 3142   6.705  10.009  11.185 -0.0666  0.2949  0.2610
  197loPI   C1A 3143   7.080  10.421  10.956 -0.0002  0.0350  0.3022
  197loPI   C2A 3144   7.253  10.389  10.585  0.0103  0.0974  0.0035
  197loPI   C3A 3145   7.259  10.417  10.216  0.0336  0.2986 -0.1322
  197loPI   C4A 3146   7.280  10.365   9.819  0.0376 -0.2192 -0.0700
  197loPI   C5A 3147   7.104  10.417   9.411  0.1570 -0.1526  0.0284
  197loPI   C6A 3148   6.886  10.631   9.110 -0.0118 -0.1980  0.2765
  197loPI   C1B 3149   6.919   9.980  10.727  0.7283  0.2083  0.2281
  197loPI   C2B 3150   7.068   9.943  10.411 -0.3788 -0.0185  0.2592
  197loPI   C3B 3151   6.985   9.892   9.974  0.0174  0.1047  0.1432
  197loPI   C4B 3152   7.073   9.951   9.505  0.2688 -0.0315  0.0476
  198loPI    C1 3153   9.634   9.907  11.955 -0.1772 -0.2377 -0.2494
  198loPI    C2 3154   9.668   9.597  12.206 -0.1808  0.0967  0.1748
  198loPI    C3 3155   9.321   9.793  12.176 -0.1922  0.0347 -0.1266
  198loPI   PO4 3156   9.821   9.972  11.800  0.0078  0.1696  0.0551
  198loPI   GL1 3157   9.757   9.813  11.364 -0.2241  0.1775  0.3388
  198loPI   GL2 3158   9.997  10.071  11.292  0.1285 -0.2607 -0.1381
  198loPI   C1A 3159   9.682   9.783  10.969  0.4308 -0.1155  0.0147
  198loPI   C2A 3160   9.587   9.764  10.589  0.0764 -0.0970 -0.1514
  198loPI   C3A 3161   9.641   9.759  10.101 -0.1785  0.1856 -0.0478
  198loPI   C4A 3162   9.630   9.764   9.665  0.1983 -0.1295 -0.1886
  198loPI   C5A 3163   9.499   9.778   9.154  0.1556  0.2403  0.1062
  198loPI   C6A 3164   9.612  10.088   8.862 -0.0715 -0.0383  0.0945
  198loPI   C1B 3165  10.198  10.116  10.801 -0.0636  0.1315 -0.0856
  198loPI   C2B 3166  10.371  10.144  10.345 -0.0303  0.3606  0.1946
  198loPI   C3B 3167  10.399  10.195   9.811  0.3344 -0.0224 -0.0442
  198loPI   C4B 3168  10.271  10.214   9.462 -0.0377  0.2306  0.0609
  199loPI    C1 3169  12.525   8.642  12.099 -0.1147  0.1160  0.1553
  199loPI    C2 3170  12.922   8.635  12.150 -0.0884  0.0802 -0.0475
  199loPI    C3 3171  12.688   8.392  12.365 -0.0090  0.1676  0.1396
  199loPI   PO4 3172  12.516   8.726  11.821  0.0594  0.0046 -0.3284
  199loPI   GL1 3173  12.501   8.610  11.413 -0.0835  0.2707  0.0335
  199loPI   GL2 3174  12.248   8.884  11.329 -0.1224 -0.1045 -0.0549
  199loPI   C1A 3175  12.627   8.640  10.959 -0.3349 -0.2369 -0.1079
  199loPI   C2A 3176  12.535   8.691  10.544 -0.1885 -0.0920  0.2005
  199loPI   C3A 3177  12.664   8.662  10.113 -0.0027 -0.1985  0.1387
  199loPI   C4A 3178  12.559   8.637   9.708 -0.0492 -0.3201  0.0532
  199loPI   C5A 3179  12.487   8.419   9.258 -0.0768  0.2519  0.0688
  199loPI   C6A 3180  12.843   8.335   8.940 -0.0182 -0.1259 -0.3308
  199loPI   C1B 3181  12.413   9.116  11.049  0.0890 -0.3015 -0.1362
  199loPI   C2B 3182  12.424   9.281  10.645  0.2894 -0.4174  0.0084
  199loPI   C3B 3183  12.465   9.087  10.240  0.0585 -0.1640  0.0729
  199loPI   C4B 3184  12.275   9.077   9.858  0.1551  0.0775  0.0007
  200loPI    C1 3185   9.465   3.617  11.545  0.1351  0.1601 -0.0970
  200loPI    C2 3186   9.851   3.645  11.647  0.0993  0.0445  0.0750
  200loPI    C3 3187   9.584   3.506  11.911 -0.0331 -0.0398 -0.1013
  200loPI   PO4 3188   9.414   3.532  11.323  0.0788  0.0932 -0.0423
  200loPI   GL1 3189   9.165   3.503  10.982 -0.3138 -0.0833 -0.0643
  200loPI   GL2 3190   8.955   3.710  10.889 -0.3524 -0.0456 -0.2115
  200loPI   C1A 3191   9.193   3.300  10.627 -0.2075  0.0049  0.1066
  200loPI   C2A 3192   9.102   3.272  10.249 -0.1115  0.1638 -0.1819
  200loPI   C3A 3193   8.983   3.247   9.804  0.0449 -0.0430 -0.1127
  200loPI   C4A 3194   9.056   3.533   9.486 -0.3769 -0.0169 -0.1184
  200loPI   C5A 3195   8.969   3.548   9.097  0.1554  0.3184 -0.1844
  200loPI   C6A 3196   8.699   3.441   8.882 -0.0066  0.1834  0.1023
  200loPI   C1B 3197   8.853   3.964  10.595  0.0466  0.0534  0.0223
  200loPI   C2B 3198   8.815   3.879  10.192  0.0283  0.1177  0.1372
  200loPI   C3B 3199   8.878   4.005   9.762  0.0379  0.1362  0.1008
  200loPI   C4B 3200   8.833   4.041   9.289  0.1377  0.0388 -0.0656
  201loPI    C1 3201  14.362   1.812  11.584  0.2465  0.0296  0.1060
  201loPI    C2 3202  14.495   2.149  11.413  0.1036  0.0971  0.1266
  201loPI    C3 3203  14.242   2.167  11.723 -0.1444 -0.0307 -0.0648
  201loPI   PO4 3204  14.305   1.585  11.348 -0.1888 -0.2212 -0.0268
  201loPI   GL1 3205  14.277   1.642  10.915  0.0732  0.3316 -0.2993
  201loPI   GL2 3206  14.098   1.859  10.745  0.0724  0.1412 -0.1101
  201loPI   C1A 3207  14.607   1.552  10.647 -0.0165  0.2399  0.0863
  201loPI   C2A 3208  14.732   1.591  10.282 -0.2035  0.3064  0.1472
  201loPI   C3A 3209  14.626   1.575   9.872 -0.0799  0.3686 -0.0322
  201loPI   C4A 3210  14.628   1.353   9.443  0.2856  0.1311  0.1352
  201loPI   C5A 3211  14.666   1.091   9.093  0.2217  0.1718  0.0840
  201loPI   C6A 3212  14.637   0.963   8.689  0.0712 -0.0304  0.0263
  201loPI   C1B 3213  14.235   1.902  10.274 -0.0182 -0.0015 -0.0014
  201loPI   C2B 3214  14.171   1.864   9.837  0.0704  0.2510  0.1302
  201loPI   C3B 3215  14.097   1.949   9.422 -0.3249 -0.0842 -0.3888
  201loPI   C4B 3216  14.345   2.282   9.138 -0.0878  0.3063  0.0715
  202loPI    C1 3217   6.771   4.351  11.667  0.1046  0.1265 -0.2732
  202loPI    C2 3218   7.146   4.300  11.796 -0.0459  0.0250  0.1395
  202loPI    C3 3219   6.919   4.591  11.950 -0.1649  0.0346 -0.0500
  202loPI   PO4 3220   6.740   4.314  11.394 -0.0944  0.1092 -0.0608
  202loPI   GL1 3221   6.718   4.530  11.071 -0.1734 -0.0188 -0.2636
  202loPI   GL2 3222   7.026   4.505  10.951  0.0699 -0.1192  0.2216
  202loPI   C1A 3223   6.575   4.489  10.648 -0.1256 -0.1406 -0.5695
  202loPI   C2A 3224   6.503   4.491  10.136  0.1818 -0.0534 -0.0194
  202loPI   C3A 3225   6.509   4.525   9.679 -0.2210  0.0877  0.1580
  202loPI   C4A 3226   6.628   4.431   9.296 -0.0241  0.2655 -0.1039
  202loPI   C5A 3227   6.512   4.243   8.900  0.1902 -0.0543  0.0586
  202loPI   C6A 3228   6.259   3.909   8.836  0.0197 -0.1194  0.2111
  202loPI   C1B 3229   7.089   4.515  10.484 -0.2572  0.0523  0.2725
  202loPI   C2B 3230   6.958   4.423   9.963 -0.0578  0.1650 -0.0560
  202loPI   C3B 3231   7.046   4.494   9.600  0.0330 -0.2809 -0.1160
  202loPI   C4B 3232   7.072   4.544   9.108  0.0861 -0.2592  0.1592
  203loPI    C1 3233   0.484   8.547  11.920 -0.1202  0.2483  0.2256
  203loPI    C2 3234   0.456   8.176  11.774 -0.1582  0.2260  0.2896
  203loPI    C3 3235   0.814   8.352  11.805 -0.1614  0.2761  0.0575
  203loPI   PO4 3236   0.410   8.714  11.772 -0.0427 -0.1522  0.0837
  203loPI   GL1 3237   0.566   8.583  11.394  0.3520  0.0069  0.1853
  203loPI   GL2 3238   0.688   8.272  11.276  0.0323  0.1425  0.3249
  203loPI   C1A 3239   0.526   8.619  10.979  0.0794 -0.1480 -0.0578
  203loPI   C2A 3240   0.494   8.621  10.601  0.0013 -0.0309 -0.0203
  203loPI   C3A 3241   0.481   8.609  10.173  0.1040  0.1853 -0.1949
  203loPI   C4A 3242   0.536   8.594   9.785 -0.0866 -0.0127 -0.1178
  203loPI   C5A 3243   0.495   8.762   9.396 -0.2086 -0.0011 -0.1408
  203loPI   C6A 3244   0.320   8.559   9.028  0.0627  0.1996 -0.2553
  203loPI   C1B 3245   0.699   8.123  10.886 -0.0251 -0.0604 -0.0325
  203loPI   C2B 3246   0.686   8.169  10.413 -0.0606  0.0790 -0.1479
  203loPI   C3B 3247   0.794   8.160  10.016 -0.1729 -0.1557  0.0481
  203loPI   C4B 3248   0.745   8.176   9.541 -0.0079 -0.1101 -0.0988
  204loPI    C1 3249  12.365   4.669  11.549  0.0516 -0.3563  0.2626
  204loPI    C2 3250  12.553   4.889  11.824  0.0195 -0.0936  0.0777
  204loPI    C3 3251  12.154   4.874  11.819  0.0238 -0.2754  0.1797
  204loPI   PO4 3252  12.364   4.689  11.305 -0.0893  0.0088  0.1594
  204loPI   GL1 3253  12.295   4.872  10.998  0.2479  0.1947 -0.0439
  204loPI   GL2 3254  12.457   5.088  10.924  0.1196  0.2197  0.0599
  204loPI   C1A 3255  12.433   4.830  10.571  0.0392 -0.1669  0.3331
  204loPI   C2A 3256  12.453   4.930  10.102 -0.2263 -0.3599  0.0767
  204loPI   C3A 3257  12.474   4.882   9.717  0.0083  0.2780  0.1580
  204loPI   C4A 3258  12.410   5.023   9.272 -0.0126  0.1400  0.2666
  204loPI   C5A 3259  12.220   4.927   8.980 -0.0188 -0.0779  0.2104
  204loPI   C6A 3260  11.772   4.924   8.899  0.0676  0.0500 -0.0898
  204loPI   C1B 3261  12.644   5.329  10.664  0.0549  0.2010  0.0258
  204loPI   C2B 3262  12.667   5.337  10.261 -0.0616 -0.0728  0.0472
  204loPI   C3B 3263  12.716   5.409   9.799  0.0827 -0.1588 -0.3636
  204loPI   C4B 3264  12.625   5.547   9.375 -0.2461  0.0575  0.0540
  205loPI    C1 3265   1.938  15.329  11.349  0.2533  0.1221 -0.1255
  205loPI    C2 3266   1.539  15.310  11.332  0.2468 -0.1448  0.2084
  205loPI    C3 3267   1.718  15.645  11.456  0.1282 -0.0317  0.0791
  205loPI   PO4 3268   2.016  15.283  11.069  0.2078  0.3660  0.4979
  205loPI   GL1 3269   1.905  15.195  10.735  0.1381 -0.0159  0.0724
  205loPI   GL2 3270   1.564  15.053  10.913  0.0413 -0.2386  0.1228
  205loPI   C1A 3271   1.520  15.109  10.388  0.1233 -0.0690 -0.2698
  205loPI   C2A 3272   1.390  15.126  10.012  0.2111  0.0898 -0.1288
  205loPI   C3A 3273   1.374  15.073   9.633  0.1055  0.0147  0.0225
  205loPI   C4A 3274   1.290  15.152   9.230  0.1365  0.2962 -0.1352
  205loPI   C5A 3275   1.345  15.368   8.868  0.1426 -0.0224 -0.1057
  205loPI   C6A 3276   1.009  15.365   8.615  0.2202 -0.1527  0.0038
  205loPI   C1B 3277   1.288  14.767  10.631 -0.0808 -0.0928 -0.0774
  205loPI   C2B 3278   1.145  14.747  10.219  0.0772  0.1788  0.1826
  205loPI   C3B 3279   1.112  14.662   9.747 -0.2719  0.0476  0.3866
  205loPI   C4B 3280   0.969  14.710   9.389  0.0476 -0.0387 -0.0420
  206loPI    C1 3281   9.222  12.184  11.763  0.1125  0.1349  0.3178
  206loPI    C2 3282   9.352  11.873  11.978 -0.0726 -0.0282  0.1981
  206loPI    C3 3283   8.966  11.976  11.990 -0.0583  0.0452  0.0474
  206loPI   PO4 3284   9.308  12.114  11.544  0.1673 -0.2108 -0.1794
  206loPI   GL1 3285   9.645  11.926  11.313 -0.1041 -0.2704 -0.2593
  206loPI   GL2 3286   9.732  12.228  11.233  0.0842 -0.1858  0.1653
  206loPI   C1A 3287   9.540  11.726  10.939  0.1398  0.1198 -0.1504
  206loPI   C2A 3288   9.805  11.700  10.519 -0.0321 -0.2207  0.1120
  206loPI   C3A 3289   9.596  11.542  10.180  0.2162  0.2253 -0.2101
  206loPI   C4A 3290   9.696  11.530   9.745 -0.1577  0.2242  0.0559
  206loPI   C5A 3291   9.781  11.455   9.304 -0.1165 -0.0850 -0.1710
  206loPI   C6A 3292   9.753  11.533   8.846 -0.2317  0.0330 -0.0666
  206loPI   C1B 3293   9.700  12.500  10.886 -0.2454  0.2173  0.2228
  206loPI   C2B 3294   9.754  12.705  10.493 -0.2667  0.2696  0.2093
  206loPI   C3B 3295   9.810  12.574  10.017 -0.2546 -0.0897  0.2614
  206loPI   C4B 3296   9.719  12.416   9.616  0.0183 -0.1569 -0.0526
  207loPI    C1 3297   7.084  13.648  11.653 -0.2155 -0.1191 -0.0475
  207loPI    C2 3298   7.349  13.698  11.948 -0.1265  0.0566 -0.1554
  207loPI    C3 3299   6.967  13.805  12.002 -0.1162  0.0639 -0.0955
  207loPI   PO4 3300   7.095  13.416  11.461 -0.0497  0.1966 -0.0847
  207loPI   GL1 3301   7.348  13.153  11.116 -0.0109  0.0277 -0.0561
  207loPI   GL2 3302   7.091  13.250  10.909 -0.0134  0.2240  0.0371
  207loPI   C1A 3303   7.539  12.975  10.773  0.2231  0.0550 -0.0180
  207loPI   C2A 3304   7.512  12.915  10.301  0.1807  0.1163  0.3957
  207loPI   C3A 3305   7.635  12.893   9.931  0.0628 -0.0442  0.1362
  207loPI   C4A 3306   7.667  12.586   9.721  0.1842  0.2736  0.2853
  207loPI   C5A 3307   7.656  12.556   9.332  0.1887 -0.2309 -0.1752
  207loPI   C6A 3308   7.391  12.362   9.039  0.0664 -0.1977  0.4556
  207loPI   C1B 3309   7.073  13.186  10.424 -0.0261  0.0031  0.0137
  207loPI   C2B 3310   7.163  13.099  10.031  0.0531 -0.1590  0.2275
  207loPI   C3B 3311   7.314  13.151   9.632 -0.2568 -0.1749  0.0167
  207loPI   C4B 3312   7.596  13.022   9.424  0.0505  0.2289  0.1911
  208loPI    C1 3313   8.969  14.534  11.804  0.1298  0.1870 -0.0996
  208loPI    C2 3314   9.258  14.301  11.952 -0.0575  0.0099 -0.0065
  208loPI    C3 3315   9.159  14.640  12.140  0.0503  0.0428 -0.0080
  208loPI   PO4 3316   9.075  14.543  11.498  0.0950 -0.2115 -0.1498
  208loPI   GL1 3317   9.099  14.700  11.098  0.1567  0.1348 -0.1950
  208loPI   GL2 3318   9.340  14.540  11.004 -0.3023  0.0173  0.0817
  208loPI   C1A 3319   9.089  14.912  10.748  0.1297  0.2242  0.3343
  208loPI   C2A 3320   9.143  14.834  10.258 -0.1841  0.3339 -0.1307
  208loPI   C3A 3321   9.083  14.730   9.929  0.1770 -0.1066  0.0891
  208loPI   C4A 3322   9.247  14.685   9.502  0.1138 -0.2535 -0.3768
  208loPI   C5A 3323   9.185  14.720   9.066  0.0438  0.1545 -0.2295
  208loPI   C6A 3324   9.355  14.956   8.830 -0.1181  0.3126 -0.1178
  208loPI   C1B 3325   9.296  14.395  10.596 -0.1804 -0.1208 -0.0842
  208loPI   C2B 3326   9.376  14.361  10.184 -0.0386  0.1002 -0.1340
  208loPI   C3B 3327   9.339  14.301   9.792 -0.0498  0.0886  0.1647
  208loPI   C4B 3328   9.367  14.211   9.392 -0.1748 -0.3296  0.1166
  209loPI    C1 3329   2.329   7.162  11.830 -0.1977  0.0320 -0.1140
  209loPI    C2 3330   2.202   7.275  12.192 -0.2186 -0.1497 -0.0632
  209loPI    C3 3331   2.392   6.926  12.148 -0.2008 -0.1202 -0.2251
  209loPI   PO4 3332   2.205   7.257  11.641 -0.1967  0.1441  0.0924
  209loPI   GL1 3333   2.089   7.348  11.222 -0.0787 -0.3258 -0.3885
  209loPI   GL2 3334   2.072   6.997  11.208  0.4024 -0.2877  0.1477
  209loPI   C1A 3335   1.948   7.672  11.031 -0.1771  0.2147  0.2788
  209loPI   C2A 3336   2.036   7.672  10.549  0.0980  0.3182  0.1904
  209loPI   C3A 3337   2.064   7.585  10.152  0.0647 -0.1621  0.0677
  209loPI   C4A 3338   1.969   7.649   9.659  0.0696 -0.1819 -0.0829
  209loPI   C5A 3339   1.715   7.455   9.308  0.1230 -0.1383  0.3395
  209loPI   C6A 3340   1.860   7.398   8.877 -0.1318 -0.0162 -0.0465
  209loPI   C1B 3341   2.252   7.202  10.802  0.1028  0.4389 -0.0719
  209loPI   C2B 3342   2.290   7.208  10.311  0.1144 -0.1729  0.0945
  209loPI   C3B 3343   2.250   7.207   9.838  0.1935 -0.3031 -0.0527
  209loPI   C4B 3344   2.289   7.405   9.379 -0.2377 -0.0557 -0.0848
  210loPI    C1 3345   6.750   6.030  11.718  0.1777 -0.0625  0.0758
  210loPI    C2 3346   7.034   6.269  11.865 -0.1033  0.1443  0.2937
  210loPI    C3 3347   6.658   6.299  12.000 -0.2137 -0.1818  0.0690
  210loPI   PO4 3348   6.854   5.990  11.443 -0.1716  0.0201  0.0907
  210loPI   GL1 3349   6.881   5.988  11.055 -0.0674  0.0122  0.1285
  210loPI   GL2 3350   7.116   6.165  10.908 -0.1540  0.0118 -0.0330
  210loPI   C1A 3351   6.887   5.784  10.718  0.1199 -0.0126  0.2537
  210loPI   C2A 3352   6.871   5.786  10.294  0.1580  0.0101 -0.1773
  210loPI   C3A 3353   6.847   5.895   9.889 -0.0400 -0.0137 -0.2462
  210loPI   C4A 3354   6.880   5.837   9.507  0.0093  0.0869  0.2147
  210loPI   C5A 3355   6.767   6.079   9.077  0.1507 -0.0869 -0.0771
  210loPI   C6A 3356   6.610   6.556   8.982  0.2148  0.0267 -0.1873
  210loPI   C1B 3357   7.103   6.197  10.469 -0.1213 -0.1291  0.0342
  210loPI   C2B 3358   7.217   6.255   9.984 -0.0829 -0.1928 -0.1941
  210loPI   C3B 3359   7.142   6.328   9.583 -0.2880 -0.2950  0.1000
  210loPI   C4B 3360   7.053   6.499   9.170 -0.0808 -0.0887  0.2812
  211loPI    C1 3361   3.161   1.610  11.465  0.0504  0.1839 -0.1652
  211loPI    C2 3362   3.404   1.571  11.781 -0.0010 -0.1521 -0.1639
  211loPI    C3 3363   3.007   1.553  11.830 -0.0297  0.3223 -0.1766
  211loPI   PO4 3364   3.400   1.491  11.295 -0.2726  0.1861 -0.1053
  211loPI   GL1 3365   3.458   1.373  10.905 -0.0712  0.1058 -0.0134
  211loPI   GL2 3366   3.551   1.089  10.792  0.0385 -0.0011  0.2490
  211loPI   C1A 3367   3.346   1.625  10.482 -0.1338  0.0431 -0.1256
  211loPI   C2A 3368   3.314   1.598  10.053  0.1682 -0.0015  0.0695
  211loPI   C3A 3369   3.350   1.535   9.562 -0.0787  0.1980 -0.0373
  211loPI   C4A 3370   3.222   1.471   9.143  0.0326  0.3233  0.1957
  211loPI   C5A 3371   3.322   1.189   8.853 -0.0488 -0.3286  0.4965
  211loPI   C6A 3372   3.496   1.256   8.478  0.0476  0.1044  0.1771
  211loPI   C1B 3373   3.607   1.237  10.446  0.2223 -0.0814 -0.2744
  211loPI   C2B 3374   3.527   1.085  10.002  0.1033 -0.0334  0.2554
  211loPI   C3B 3375   3.654   1.120   9.542  0.7246  0.0724  0.3748
  211loPI   C4B 3376   3.767   1.167   9.054 -0.0231 -0.0173 -0.0054
  212loPI    C1 3377   7.954  14.148  11.593  0.0791 -0.0417  0.0120
  212loPI    C2 3378   7.711  14.367  11.363 -0.0082 -0.1438  0.0062
  212loPI    C3 3379   7.784  14.478  11.741 -0.1149 -0.1479  0.0282
  212loPI   PO4 3380   8.118  14.104  11.406 -0.0839 -0.3244 -0.5095
  212loPI   GL1 3381   7.962  13.810  11.146  0.2169  0.1780  0.0406
  212loPI   GL2 3382   7.989  13.557  11.299 -0.0781  0.0628  0.1578
  212loPI   C1A 3383   8.096  13.684  10.767  0.0947 -0.0046 -0.1122
  212loPI   C2A 3384   8.149  13.624  10.297  0.1693  0.0849  0.1136
  212loPI   C3A 3385   8.213  13.490   9.854 -0.1124  0.4159 -0.0198
  212loPI   C4A 3386   8.336  13.466   9.482  0.0402  0.0229  0.0567
  212loPI   C5A 3387   8.785  13.444   9.442 -0.0259 -0.0874 -0.2869
  212loPI   C6A 3388   9.034  13.309   9.211 -0.0751 -0.1263  0.0146
  212loPI   C1B 3389   7.857  13.273  11.050 -0.0828  0.1491 -0.1296
  212loPI   C2B 3390   7.972  13.215  10.601 -0.1754  0.0224 -0.0102
  212loPI   C3B 3391   8.043  13.116  10.134  0.0238  0.1693  0.0264
  212loPI   C4B 3392   8.034  13.006   9.686  0.2024  0.0300  0.1594
  213loPI    C1 3393   9.237   1.464  11.797 -0.1915 -0.2030  0.3120
  213loPI    C2 3394   9.614   1.490  11.930 -0.1072  0.1166  0.0246
  213loPI    C3 3395   9.348   1.774  12.024 -0.1841  0.0737 -0.0609
  213loPI   PO4 3396   9.313   1.443  11.475  0.1215  0.2548 -0.0412
  213loPI   GL1 3397   9.194   1.483  11.080 -0.0809  0.0963 -0.0624
  213loPI   GL2 3398   9.107   1.843  10.935  0.1186  0.1121  0.1668
  213loPI   C1A 3399   9.468   1.458  10.836 -0.0550 -0.0899  0.1286
  213loPI   C2A 3400   9.560   1.505  10.391 -0.2997 -0.3275 -0.0411
  213loPI   C3A 3401   9.666   1.438   9.992  0.0539 -0.0540 -0.1249
  213loPI   C4A 3402   9.746   1.417   9.607  0.3785 -0.1726 -0.3329
  213loPI   C5A 3403   9.862   1.349   9.199  0.0149  0.3262 -0.1005
  213loPI   C6A 3404   9.837   1.259   8.811 -0.1773  0.1426 -0.1630
  213loPI   C1B 3405   9.292   1.907  10.594  0.1650  0.1478  0.0727
  213loPI   C2B 3406   9.268   1.862  10.168  0.0563 -0.0730 -0.1498
  213loPI   C3B 3407   9.448   1.922   9.845  0.0888 -0.0633  0.2307
  213loPI   C4B 3408   9.653   1.893   9.475  0.2695  0.2204 -0.4001
  214loPI    C1 3409  15.169   9.273  11.905  0.0570 -0.0129 -0.1331
  214loPI    C2 3410  15.518   9.400  12.054  0.0819 -0.0830 -0.1312
  214loPI    C3 3411  15.182   9.600  12.134  0.1364  0.0453 -0.2202
  214loPI   PO4 3412  15.268   9.201  11.632  0.0973 -0.0122  0.3183
  214loPI   GL1 3413  15.316   9.074  11.208 -0.0363 -0.0173 -0.0377
  214loPI   GL2 3414  14.970   8.979  11.045 -0.2957 -0.0462  0.1581
  214loPI   C1A 3415  15.461   8.845  10.824 -0.0328 -0.0051  0.0867
  214loPI   C2A 3416  15.379   8.879  10.414  0.3150  0.1863  0.0988
  214loPI   C3A 3417  15.480   8.754  10.004 -0.0497 -0.0697 -0.3266
  214loPI   C4A 3418  15.385   8.779   9.594 -0.0634 -0.0817  0.2796
  214loPI   C5A 3419  15.359   8.876   9.203 -0.0592 -0.1254  0.0947
  214loPI   C6A 3420  15.199   8.546   8.950 -0.3516  0.4423 -0.0611
  214loPI   C1B 3421  14.975   8.929  10.638  0.0659  0.0671  0.1805
  214loPI   C2B 3422  14.881   8.949  10.227 -0.0911  0.1466  0.2326
  214loPI   C3B 3423  14.959   8.846   9.825 -0.2130 -0.0993  0.0102
  214loPI   C4B 3424  14.861   8.822   9.464  0.0050 -0.2181  0.3246
  215loPI    C1 3425  11.323  15.687  11.718  0.0803 -0.0136  0.0313
  215loPI    C2 3426  11.484  15.965  11.956  0.3359 -0.1168 -0.0172
  215loPI    C3 3427  11.175  15.746  12.085  0.2742  0.0384  0.1022
  215loPI   PO4 3428  11.493  15.611  11.542 -0.0148 -0.1648 -0.1592
  215loPI   GL1 3429  11.602  15.341  11.298 -0.1043  0.1735  0.1490
  215loPI   GL2 3430  11.404  15.221  11.018  0.0800  0.1897  0.2963
  215loPI   C1A 3431  11.992  15.434  11.034 -0.1622  0.3701 -0.0050
  215loPI   C2A 3432  11.989  15.251  10.622  0.0855  0.1000 -0.1919
  215loPI   C3A 3433  11.914  15.134  10.217 -0.0745 -0.1240 -0.0422
  215loPI   C4A 3434  12.025  15.037   9.800 -0.1209 -0.0238  0.3700
  215loPI   C5A 3435  12.037  15.000   9.316 -0.0431 -0.1862  0.1180
  215loPI   C6A 3436  11.721  14.809   9.037  0.0562  0.0114 -0.0800
  215loPI   C1B 3437  11.482  15.248  10.579  0.1323  0.0071  0.3403
  215loPI   C2B 3438  11.446  15.216  10.162 -0.0124  0.0007 -0.4643
  215loPI   C3B 3439  11.520  15.117   9.809  0.0856 -0.0697  0.1370
  215loPI   C4B 3440  11.367  15.024   9.381  0.1132 -0.0804  0.1799
  216loPI    C1 3441   2.293  15.930  11.463  0.1083  0.2332 -0.2128
  216loPI    C2 3442   2.043  16.135  11.698  0.0054 -0.0245 -0.0929
  216loPI    C3 3443   2.416  16.266  11.640 -0.0122  0.1155  0.1013
  216loPI   PO4 3444   2.159  15.898  11.183  0.1781 -0.2002  0.0060
  216loPI   GL1 3445   2.203  15.631  10.761 -0.1736 -0.0364 -0.0208
  216loPI   GL2 3446   2.379  15.358  10.622 -0.0627  0.1601  0.0304
  216loPI   C1A 3447   1.844  15.536  10.347  0.0181  0.0343 -0.3880
  216loPI   C2A 3448   1.734  15.498  10.038  0.3775  0.0382  0.0668
  216loPI   C3A 3449   1.653  15.496   9.570 -0.1630 -0.1007 -0.0540
  216loPI   C4A 3450   1.835  15.454   9.064 -0.3419  0.0381  0.0276
  216loPI   C5A 3451   2.089  15.552   8.739  0.0076  0.1016 -0.1703
  216loPI   C6A 3452   2.622  15.486   8.649  0.2494 -0.1857 -0.1003
  216loPI   C1B 3453   2.396  15.491  10.204 -0.1319 -0.1745 -0.2838
  216loPI   C2B 3454   2.214  15.491   9.819  0.3828  0.0999 -0.0031
  216loPI   C3B 3455   2.258  15.475   9.414  0.1541 -0.0675 -0.0965
  216loPI   C4B 3456   2.393  15.812   9.116 -0.1028 -0.3064 -0.1657
  217loPI    C1 3457   3.107  14.327  11.407 -0.3837 -0.3134  0.0227
  217loPI    C2 3458   3.020  14.225  11.784 -0.2116  0.0737  0.1727
  217loPI    C3 3459   2.798  14.499  11.595 -0.4175 -0.2595 -0.0813
  217loPI   PO4 3460   3.357  14.298  11.345  0.0152 -0.0940 -0.2003
  217loPI   GL1 3461   3.413  14.191  10.958 -0.0953 -0.0527  0.3319
  217loPI   GL2 3462   3.197  13.978  11.002  0.1770 -0.1589  0.1647
  217loPI   C1A 3463   3.363  14.456  10.594  0.0400 -0.0359  0.2491
  217loPI   C2A 3464   3.397  14.426  10.192  0.1679 -0.0507  0.0273
  217loPI   C3A 3465   3.260  14.486   9.692  0.0967  0.0306  0.0324
  217loPI   C4A 3466   3.239  14.363   9.278 -0.0210  0.1177  0.0507
  217loPI   C5A 3467   2.914  14.590   8.985  0.3388 -0.1164  0.0815
  217loPI   C6A 3468   2.893  14.906   8.886  0.0254  0.1820  0.2441
  217loPI   C1B 3469   3.142  13.982  10.536 -0.2205 -0.0775 -0.0749
  217loPI   C2B 3470   3.028  13.979  10.067 -0.0872 -0.0426  0.0975
  217loPI   C3B 3471   3.009  14.052   9.569  0.1784 -0.3241 -0.2857
  217loPI   C4B 3472   2.799  14.030   9.149 -0.0360  0.1989  0.0239
  218loPI    C1 3473  15.479  11.447  11.700  0.0619 -0.0075 -0.0915
  218loPI    C2 3474  15.500  11.788  11.908 -0.1679  0.0019 -0.0810
  218loPI    C3 3475  15.449  11.440  12.099  0.1277 -0.0474 -0.0871
  218loPI   PO4 3476  15.536  11.520  11.498 -0.3491  0.1262 -0.1902
  218loPI   GL1 3477  15.785  11.295  11.125 -0.1569 -0.1968 -0.0179
  218loPI   GL2 3478  15.432  11.216  10.975 -0.1939  0.0389 -0.0706
  218loPI   C1A 3479  15.935  11.192  10.693 -0.1240 -0.0007 -0.0042
  218loPI   C2A 3480  15.863  11.042  10.288  0.0514 -0.0870  0.3714
  218loPI   C3A 3481  15.879  11.078   9.832  0.1586 -0.1245 -0.0893
  218loPI   C4A 3482  15.822  11.162   9.394 -0.1821  0.1493 -0.1254
  218loPI   C5A 3483  15.888  10.981   8.926  0.0576 -0.1895 -0.0997
  218loPI   C6A 3484  16.375  10.863   8.821 -0.1436  0.0289 -0.2678
  218loPI   C1B 3485  15.401  11.258  10.635  0.2320  0.3508 -0.0005
  218loPI   C2B 3486  15.362  11.225  10.133 -0.3758 -0.0946 -0.1164
  218loPI   C3B 3487  15.424  11.162   9.676 -0.1986 -0.0939  0.0069
  218loPI   C4B 3488  15.371  11.401   9.186  0.2902  0.0859  0.1875
  219loPI    C1 3489  11.800  12.169  11.684  0.0852  0.0295 -0.0418
  219loPI    C2 3490  12.040  11.895  11.849  0.2147  0.1427 -0.0402
  219loPI    C3 3491  11.898  12.196  12.071 -0.1192 -0.0516  0.0169
  219loPI   PO4 3492  11.686  11.981  11.443  0.1198  0.4177 -0.0506
  219loPI   GL1 3493  11.814  11.950  11.169  0.0292 -0.0298 -0.1435
  219loPI   GL2 3494  12.076  11.793  11.006 -0.0114 -0.3105 -0.0580
  219loPI   C1A 3495  11.527  12.009  10.785  0.4650  0.1066  0.4077
  219loPI   C2A 3496  11.421  12.010  10.369  0.2114 -0.3023  0.1984
  219loPI   C3A 3497  11.564  11.900   9.915 -0.0917  0.0706 -0.0483
  219loPI   C4A 3498  11.559  11.919   9.451  0.1060 -0.0130  0.0410
  219loPI   C5A 3499  11.339  11.833   9.058 -0.2872  0.0772  0.1477
  219loPI   C6A 3500  11.055  11.746   8.801  0.1193 -0.1171 -0.2831
  219loPI   C1B 3501  12.018  12.025  10.577 -0.2478 -0.0845 -0.0888
  219loPI   C2B 3502  12.009  11.905  10.138  0.1478 -0.2130  0.1262
  219loPI   C3B 3503  12.031  11.931   9.749 -0.2793  0.1252 -0.0975
  219loPI   C4B 3504  12.143  11.831   9.329  0.2340 -0.1109  0.0049
  220loPI    C1 3505  15.656   9.448  11.471 -0.0783  0.0286 -0.0644
  220loPI    C2 3506  15.818   9.680  11.753  0.0324 -0.0284 -0.0807
  220loPI    C3 3507  15.895   9.288  11.748 -0.1871 -0.0736 -0.0285
  220loPI   PO4 3508  15.682   9.687  11.268  0.0108 -0.0863  0.0961
  220loPI   GL1 3509  15.716   9.666  10.899  0.0128 -0.1633  0.2228
  220loPI   GL2 3510  16.033   9.694  10.808  0.3053  0.1117  0.1971
  220loPI   C1A 3511  15.492   9.744  10.520  0.1471  0.0750  0.0493
  220loPI   C2A 3512  15.485   9.742  10.047  0.3253  0.2107  0.0337
  220loPI   C3A 3513  15.507   9.653   9.615  0.3051 -0.1350  0.0300
  220loPI   C4A 3514  15.538   9.543   9.192 -0.3141  0.1249  0.2333
  220loPI   C5A 3515  15.186   9.314   8.945 -0.0550 -0.0759  0.1877
  220loPI   C6A 3516  14.893   9.003   8.987 -0.0173  0.0510  0.0089
  220loPI   C1B 3517  15.938   9.661  10.353 -0.0101 -0.0188 -0.0736
  220loPI   C2B 3518  16.029   9.598   9.895  0.0385 -0.1593  0.0639
  220loPI   C3B 3519  16.061   9.441   9.497  0.0054  0.2312 -0.0574
  220loPI   C4B 3520  16.054   9.597   9.048  0.0033  0.0275 -0.1715
  221loPI    C1 3521   5.552   5.288  11.809  0.0663  0.0676 -0.0125
  221loPI    C2 3522   5.657   5.362  12.188  0.1296 -0.0420 -0.0083
  221loPI    C3 3523   5.435   5.041  12.101  0.1715 -0.0540 -0.0721
  221loPI   PO4 3524   5.468   5.537  11.738  0.2304  0.2149  0.1043
  221loPI   GL1 3525   5.468   5.744  11.297  0.0664 -0.0593 -0.0180
  221loPI   GL2 3526   5.390   6.085  11.275 -0.1991  0.2012 -0.0663
  221loPI   C1A 3527   5.549   5.665  10.911  0.0338 -0.2326 -0.0495
  221loPI   C2A 3528   5.433   5.569  10.547 -0.1085 -0.1455 -0.1865
  221loPI   C3A 3529   5.514   5.540  10.074 -0.1306  0.1198 -0.2607
  221loPI   C4A 3530   5.608   5.466   9.651 -0.0013 -0.0556  0.0289
  221loPI   C5A 3531   5.594   5.379   9.186 -0.0862 -0.0432 -0.0304
  221loPI   C6A 3532   5.537   5.088   8.841  0.0623  0.1798 -0.0173
  221loPI   C1B 3533   5.286   6.036  10.798  0.0422 -0.1007 -0.2321
  221loPI   C2B 3534   5.272   6.005  10.320  0.1788 -0.2866  0.2087
  221loPI   C3B 3535   5.346   5.976   9.915  0.0929 -0.1262 -0.1455
  221loPI   C4B 3536   5.375   5.934   9.472 -0.0049 -0.1477  0.0435
  222loPI    C1 3537   9.177  12.685  11.604 -0.1442  0.0717 -0.1967
  222loPI    C2 3538   9.491  12.624  11.364 -0.0021  0.1368 -0.0292
  222loPI    C3 3539   9.539  12.620  11.761 -0.2919 -0.2860  0.0077
  222loPI   PO4 3540   9.012  12.534  11.483  0.2315 -0.2388 -0.2816
  222loPI   GL1 3541   9.004  12.327  11.113  0.0216 -0.3039 -0.2140
  222loPI   GL2 3542   9.265  12.191  11.032 -0.2206  0.0691 -0.0877
  222loPI   C1A 3543   8.928  12.060  10.700  0.1156 -0.0989  0.0312
  222loPI   C2A 3544   8.880  11.987  10.295  0.0973 -0.0084  0.5325
  222loPI   C3A 3545   8.901  11.943   9.874  0.0386  0.0308 -0.2307
  222loPI   C4A 3546   8.887  11.882   9.415 -0.0203  0.1085 -0.1391
  222loPI   C5A 3547   8.747  11.716   9.085  0.2846 -0.2007  0.2303
  222loPI   C6A 3548   8.354  11.451   8.943  0.1809  0.0021 -0.0754
  222loPI   C1B 3549   9.444  12.109  10.669 -0.2296 -0.0054  0.2849
  222loPI   C2B 3550   9.375  11.978  10.300 -0.0983  0.2093 -0.1176
  222loPI   C3B 3551   9.440  11.970   9.812  0.1453 -0.0676 -0.0344
  222loPI   C4B 3552   9.381  11.851   9.328 -0.0669  0.2767  0.1032
  223loPI    C1 3553  15.010   1.844  11.346 -0.0930  0.0692  0.1363
  223loPI    C2 3554  15.126   1.684  11.693 -0.1350  0.0483  0.1408
  223loPI    C3 3555  14.798   1.548  11.510 -0.0101 -0.0669 -0.0001
  223loPI   PO4 3556  15.012   2.118  11.397 -0.2881  0.5963  0.2648
  223loPI   GL1 3557  15.321   2.225  11.128  0.1333  0.1148  0.1063
  223loPI   GL2 3558  15.054   2.242  10.900  0.0766  0.1872 -0.1313
  223loPI   C1A 3559  15.492   2.058  10.762 -0.0528  0.1745  0.0014
  223loPI   C2A 3560  15.543   2.061  10.289 -0.0350  0.3203 -0.0864
  223loPI   C3A 3561  15.659   1.991   9.904  0.1303  0.1812  0.0288
  223loPI   C4A 3562  15.811   1.835   9.345 -0.1274  0.2606  0.0617
  223loPI   C5A 3563  16.211   1.798   9.066  0.0909 -0.2348  0.3694
  223loPI   C6A 3564  16.594   1.760   9.060  0.3026  0.1745 -0.0358
  223loPI   C1B 3565  15.106   2.398  10.435  0.0500 -0.0905  0.2398
  223loPI   C2B 3566  15.174   2.364   9.994 -0.2345 -0.1090 -0.1749
  223loPI   C3B 3567  15.210   2.224   9.680  0.1368 -0.1381 -0.2753
  223loPI   C4B 3568  15.361   1.938   9.285  0.0138  0.1302 -0.1260
  224loPI    C1 3569   4.009   2.030  11.608  0.0996 -0.0006  0.0979
  224loPI    C2 3570   3.893   1.648  11.617  0.0014  0.0306  0.1617
  224loPI    C3 3571   3.716   1.917  11.856  0.0016  0.1348  0.0453
  224loPI   PO4 3572   4.037   2.025  11.320 -0.0857 -0.3137 -0.3403
  224loPI   GL1 3573   4.258   1.906  10.895  0.1816 -0.2398  0.0818
  224loPI   GL2 3574   4.286   1.556  10.908 -0.0325 -0.1242  0.0888
  224loPI   C1A 3575   4.161   1.994  10.462  0.2810 -0.2531 -0.1301
  224loPI   C2A 3576   4.270   2.034  10.049  0.2910 -0.0440  0.1403
  224loPI   C3A 3577   4.272   1.992   9.633  0.0934 -0.1116 -0.2053
  224loPI   C4A 3578   4.225   1.999   9.190  0.1665  0.2451  0.1915
  224loPI   C5A 3579   3.925   2.021   8.933 -0.2162  0.0778 -0.0535
  224loPI   C6A 3580   3.583   2.137   8.769 -0.0533  0.3836  0.0708
  224loPI   C1B 3581   4.468   1.511  10.544 -0.0839 -0.0777  0.2280
  224loPI   C2B 3582   4.390   1.582  10.122  0.3639 -0.1198 -0.0112
  224loPI   C3B 3583   4.322   1.496   9.753 -0.2235  0.2405 -0.0026
  224loPI   C4B 3584   4.489   1.591   9.302  0.0127 -0.2387 -0.1035
  225loPI    C1 3585   0.085  15.832  11.463 -0.0923  0.0498 -0.0267
  225loPI    C2 3586   0.152  15.479  11.639 -0.0109  0.1038  0.0515
  225loPI    C3 3587  -0.185  15.680  11.716 -0.1124 -0.0123 -0.0854
  225loPI   PO4 3588   0.324  15.948  11.387  0.1666  0.2373 -0.1533
  225loPI   GL1 3589   0.498  15.950  11.061 -0.2075  0.1040  0.0359
  225loPI   GL2 3590   0.644  16.129  10.787 -0.1247  0.2080  0.4784
  225loPI   C1A 3591   0.341  15.753  10.667 -0.1975  0.1811 -0.2249
  225loPI   C2A 3592   0.271  15.690  10.194 -0.0372  0.1057 -0.0993
  225loPI   C3A 3593   0.183  15.678   9.831  0.2854 -0.1538 -0.0814
  225loPI   C4A 3594   0.076  15.670   9.430 -0.0662  0.0456  0.2375
  225loPI   C5A 3595   0.143  15.534   9.022  0.0804  0.1865 -0.2318
  225loPI   C6A 3596   0.415  15.353   8.771  0.1933 -0.0817 -0.3962
  225loPI   C1B 3597   0.507  16.133  10.335 -0.2947 -0.0556 -0.1179
  225loPI   C2B 3598   0.408  16.079   9.907  0.0456 -0.3304  0.1323
  225loPI   C3B 3599   0.406  16.128   9.553  0.1575 -0.0118 -0.1353
  225loPI   C4B 3600   0.262  16.027   9.101  0.0039  0.0573  0.0183
  226loPI    C1 3601   6.468   0.891  11.573  0.1534  0.1733  0.2437
  226loPI    C2 3602   6.474   1.084  11.923  0.1447 -0.1531  0.4280
  226loPI    C3 3603   6.223   0.778  11.868  0.1716 -0.1274  0.1471
  226loPI   PO4 3604   6.524   1.003  11.371 -0.0197  0.1805 -0.2310
  226loPI   GL1 3605   6.528   0.996  10.960 -0.2557  0.1376  0.1890
  226loPI   GL2 3606   6.581   0.769  10.834 -0.1930  0.3273  0.0559
  226loPI   C1A 3607   6.535   1.273  10.659  0.1582  0.0946 -0.0187
  226loPI   C2A 3608   6.313   1.414  10.324  0.1859 -0.0017 -0.0553
  226loPI   C3A 3609   6.017   1.388   9.953 -0.0804  0.2790 -0.1540
  226loPI   C4A 3610   5.918   1.393   9.507  0.0683  0.0525 -0.1267
  226loPI   C5A 3611   5.811   1.686   9.394 -0.1967 -0.2922  0.2721
  226loPI   C6A 3612   5.934   2.042   9.274 -0.0008 -0.1078  0.1500
  226loPI   C1B 3613   6.555   0.877  10.416  0.1378  0.0815  0.2951
  226loPI   C2B 3614   6.485   1.002   9.968  0.2685 -0.2261  0.1776
  226loPI   C3B 3615   6.641   0.962   9.562 -0.0337 -0.2027  0.1510
  226loPI   C4B 3616   6.682   1.241   9.226 -0.0183 -0.1715 -0.0264
  227loPI    C1 3617  12.616   5.947  11.594  0.0505 -0.0286 -0.0237
  227loPI    C2 3618  12.458   6.115  11.921  0.0065 -0.0335 -0.0422
  227loPI    C3 3619  12.711   5.807  11.956  0.0062 -0.0305 -0.0127
  227loPI   PO4 3620  12.332   5.970  11.425 -0.1050 -0.2797  0.2099
  227loPI   GL1 3621  12.102   6.117  11.172  0.0931 -0.1808 -0.3869
  227loPI   GL2 3622  11.970   5.857  10.942 -0.3414  0.4481 -0.0519
  227loPI   C1A 3623  12.193   6.319  10.787 -0.2306  0.0305 -0.1101
  227loPI   C2A 3624  12.188   6.422  10.451  0.1723  0.1446 -0.4282
  227loPI   C3A 3625  12.207   6.451  10.015 -0.1435  0.0771 -0.1065
  227loPI   C4A 3626  12.172   6.382   9.642 -0.2477 -0.0202  0.0554
  227loPI   C5A 3627  12.229   6.548   9.184  0.2439  0.0504  0.1468
  227loPI   C6A 3628  12.417   6.632   8.741 -0.0235  0.0864 -0.0916
  227loPI   C1B 3629  11.928   5.991  10.532 -0.2927  0.0400  0.0901
  227loPI   C2B 3630  11.926   6.040  10.109  0.0058 -0.0152 -0.1359
  227loPI   C3B 3631  11.876   5.954   9.659 -0.0653  0.0412  0.0382
  227loPI   C4B 3632  11.857   6.137   9.294 -0.0970 -0.2152 -0.1942
  228loPI    C1 3633  16.232   7.476  11.659 -0.0783  0.3269  0.0715
  228loPI    C2 3634  15.874   7.344  11.780 -0.1124  0.1022 -0.2604
  228loPI    C3 3635  16.196   7.287  12.010 -0.2610  0.1619 -0.0340
  228loPI   PO4 3636  16.175   7.579  11.396 -0.0059  0.1712 -0.2322
  228loPI   GL1 3637  16.173   7.540  11.025  0.5194 -0.0374  0.0179
  228loPI   GL2 3638  16.387   7.876  11.043 -0.3213  0.1457  0.1076
  228loPI   C1A 3639  16.068   7.492  10.608  0.1307  0.2543  0.0335
  228loPI   C2A 3640  16.163   7.433  10.116  0.1004  0.0654 -0.3394
  228loPI   C3A 3641  16.130   7.378   9.747  0.0486 -0.0572 -0.0637
  228loPI   C4A 3642  16.196   7.191   9.384  0.4009 -0.0673  0.0193
  228loPI   C5A 3643  16.128   7.226   9.019  0.1839 -0.0983 -0.3741
  228loPI   C6A 3644  16.158   7.577   8.954  0.1392  0.1144  0.1912
  228loPI   C1B 3645  16.401   7.847  10.596  0.2677  0.2509  0.2664
  228loPI   C2B 3646  16.427   7.855  10.179  0.0066  0.0609 -0.0107
  228loPI   C3B 3647  16.462   7.724   9.777  0.2039  0.0022  0.0846
  228loPI   C4B 3648  16.385   7.624   9.387  0.1250  0.0934  0.0365
  229loPI    C1 3649  15.278   7.710  11.743 -0.2572 -0.3921 -0.1983
  229loPI    C2 3650  15.331   7.380  11.963 -0.1533 -0.1781  0.1049
  229loPI    C3 3651  15.342   7.740  12.137 -0.1572 -0.0074 -0.2399
  229loPI   PO4 3652  15.483   7.676  11.500 -0.0729 -0.0806 -0.2360
  229loPI   GL1 3653  15.378   7.791  11.145 -0.1352  0.3251  0.1503
  229loPI   GL2 3654  15.350   8.040  10.968  0.0850 -0.1977  0.0513
  229loPI   C1A 3655  15.548   7.582  10.842  0.0967  0.3607  0.2933
  229loPI   C2A 3656  15.548   7.526  10.460  0.0416  0.0254  0.2550
  229loPI   C3A 3657  15.677   7.501  10.007  0.4678  0.2015 -0.2439
  229loPI   C4A 3658  15.663   7.379   9.676  0.0072 -0.0933  0.0473
  229loPI   C5A 3659  15.775   7.355   9.288  0.5408  0.0115  0.1716
  229loPI   C6A 3660  15.625   7.577   8.948 -0.1899  0.2105  0.0655
  229loPI   C1B 3661  15.328   8.049  10.453  0.0609 -0.1969  0.2292
  229loPI   C2B 3662  15.408   7.947  10.013 -0.1712  0.1298 -0.0538
  229loPI   C3B 3663  15.396   7.896   9.657  0.0585  0.1179 -0.0899
  229loPI   C4B 3664  15.393   7.920   9.194  0.1180 -0.0217 -0.0104
  230loPI    C1 3665   0.056   4.205  11.692  0.0325 -0.1600  0.1334
  230loPI    C2 3666  -0.035   4.208  12.082 -0.0911  0.0907  0.1047
  230loPI    C3 3667   0.231   4.469  11.937  0.0166 -0.0567  0.0343
  230loPI   PO4 3668   0.206   4.045  11.577 -0.1923  0.3291 -0.0565
  230loPI   GL1 3669   0.441   3.913  11.328  0.1188 -0.1352  0.1564
  230loPI   GL2 3670   0.614   4.118  11.097 -0.1822 -0.0000 -0.2025
  230loPI   C1A 3671   0.292   3.682  11.000  0.1483 -0.0029 -0.1014
  230loPI   C2A 3672   0.188   3.619  10.594  0.1018 -0.0641 -0.2347
  230loPI   C3A 3673   0.262   3.577  10.123  0.0271 -0.1699  0.0482
  230loPI   C4A 3674   0.289   3.599   9.652  0.2061 -0.0297  0.0345
  230loPI   C5A 3675   0.380   3.559   9.212  0.1033  0.2909 -0.0193
  230loPI   C6A 3676   0.423   3.200   8.882 -0.0194  0.2949  0.1495
  230loPI   C1B 3677   0.606   4.098  10.622  0.4518  0.2554 -0.1029
  230loPI   C2B 3678   0.602   4.068  10.225  0.0017  0.2498  0.0560
  230loPI   C3B 3679   0.608   4.095   9.801  0.1327  0.0415  0.3006
  230loPI   C4B 3680   0.462   4.070   9.338 -0.0700  0.4013  0.3584
  231loPI    C1 3681  11.902   3.841  11.656 -0.0891 -0.0389  0.1012
  231loPI    C2 3682  11.886   3.785  12.052  0.0949 -0.0314  0.1104
  231loPI    C3 3683  12.208   3.955  11.887 -0.1295  0.2914 -0.0040
  231loPI   PO4 3684  11.762   3.654  11.498  0.2738 -0.1223  0.0913
  231loPI   GL1 3685  11.668   3.497  11.117 -0.0517  0.1627  0.0073
  231loPI   GL2 3686  11.915   3.834  11.058  0.1398  0.0440 -0.1338
  231loPI   C1A 3687  11.483   3.385  10.692 -0.1823 -0.2930  0.1262
  231loPI   C2A 3688  11.505   3.222  10.249 -0.1734 -0.0349  0.0385
  231loPI   C3A 3689  11.424   3.258   9.833  0.1365  0.2718 -0.0130
  231loPI   C4A 3690  11.424   3.310   9.385  0.1278  0.1938 -0.3168
  231loPI   C5A 3691  11.262   3.045   9.025  0.2736  0.0669 -0.1420
  231loPI   C6A 3692  11.126   3.385   8.743 -0.0085  0.2347 -0.0288
  231loPI   C1B 3693  11.964   4.049  10.697  0.0328  0.0441 -0.0103
  231loPI   C2B 3694  11.960   4.040  10.329  0.3122 -0.2342 -0.3272
  231loPI   C3B 3695  11.956   4.116   9.856 -0.1410 -0.0490 -0.1448
  231loPI   C4B 3696  11.843   4.218   9.483 -0.4344 -0.1330 -0.1264
  232loPI    C1 3697  11.505   7.079  11.887  0.0384 -0.1040 -0.1237
  232loPI    C2 3698  11.464   7.394  12.131  0.2232 -0.0759 -0.1274
  232loPI    C3 3699  11.222   7.078  12.169 -0.1237  0.1652 -0.2804
  232loPI   PO4 3700  11.519   7.192  11.657 -0.0105  0.1074 -0.0658
  232loPI   GL1 3701  11.740   7.153  11.194 -0.2825  0.0364  0.1582
  232loPI   GL2 3702  12.063   7.153  11.286  0.0408  0.0091 -0.1141
  232loPI   C1A 3703  11.784   7.363  10.819  0.0274  0.1474  0.1497
  232loPI   C2A 3704  11.762   7.460  10.360  0.1717  0.0871 -0.0910
  232loPI   C3A 3705  11.683   7.374   9.954 -0.2251  0.0732  0.0271
  232loPI   C4A 3706  11.751   7.357   9.612 -0.0470 -0.1737 -0.0366
  232loPI   C5A 3707  11.995   7.288   9.273 -0.0305  0.0148  0.0307
  232loPI   C6A 3708  12.165   7.029   8.981  0.2955  0.4657 -0.3138
  232loPI   C1B 3709  12.275   7.266  10.890  0.0145 -0.1238  0.2661
  232loPI   C2B 3710  12.208   7.409  10.531 -0.4154 -0.1028  0.1934
  232loPI   C3B 3711  12.256   7.345  10.103 -0.0309 -0.1515 -0.1711
  232loPI   C4B 3712  12.276   7.318   9.713  0.1053  0.1914  0.0032
  233loPI    C1 3713  16.198  13.713  11.631 -0.0949  0.0236 -0.1859
  233loPI    C2 3714  16.268  14.104  11.678 -0.0501  0.0007 -0.0572
  233loPI    C3 3715  15.961  13.932  11.868  0.1650 -0.1043  0.2011
  233loPI   PO4 3716  16.244  13.633  11.362  0.2713  0.2384  0.1923
  233loPI   GL1 3717  16.333  13.708  11.008  0.2040  0.1390 -0.1782
  233loPI   GL2 3718  16.097  13.902  10.815  0.2224 -0.1130 -0.2391
  233loPI   C1A 3719  16.366  13.460  10.648 -0.0606 -0.2759 -0.0295
  233loPI   C2A 3720  16.290  13.443  10.270  0.0073  0.0657 -0.0851
  233loPI   C3A 3721  16.280  13.447   9.810 -0.0410  0.3404  0.3014
  233loPI   C4A 3722  16.285  13.385   9.431  0.1423 -0.0797 -0.0679
  233loPI   C5A 3723  16.557  13.099   9.136  0.0745 -0.0041 -0.0117
  233loPI   C6A 3724  16.673  12.796   8.765  0.0228 -0.1783 -0.1037
  233loPI   C1B 3725  16.128  13.883  10.480  0.0716 -0.2518  0.2938
  233loPI   C2B 3726  16.084  13.848  10.009 -0.1425 -0.2471  0.1413
  233loPI   C3B 3727  16.025  13.885   9.559  0.0011  0.1277 -0.2021
  233loPI   C4B 3728  16.003  14.022   9.138  0.1872 -0.1993  0.0536
  234loPI    C1 3729   0.313  13.749  11.433  0.2021 -0.1042  0.1643
  234loPI    C2 3730   0.021  13.951  11.617  0.0547 -0.0544 -0.1198
  234loPI    C3 3731   0.143  13.600  11.763  0.0458  0.0556  0.1574
  234loPI   PO4 3732   0.156  13.809  11.143 -0.6110  0.2514 -0.1092
  234loPI   GL1 3733   0.175  14.130  10.830 -0.1434  0.2104 -0.1407
  234loPI   GL2 3734   0.471  14.386  10.795 -0.2754  0.0231  0.3193
  234loPI   C1A 3735   0.121  13.794  10.531  0.1458 -0.2033 -0.0114
  234loPI   C2A 3736   0.051  13.795  10.140  0.0770 -0.0097 -0.1579
  234loPI   C3A 3737  -0.050  13.911   9.602  0.1042 -0.1895  0.0623
  234loPI   C4A 3738  -0.119  14.079   9.175 -0.1882  0.2403 -0.0558
  234loPI   C5A 3739  -0.132  14.158   8.670  0.1962 -0.1788  0.0474
  234loPI   C6A 3740   0.107  14.202   8.323  0.1508 -0.2805  0.2718
  234loPI   C1B 3741   0.347  14.220  10.374 -0.1304 -0.0111  0.2328
  234loPI   C2B 3742   0.292  14.201   9.899  0.0421 -0.1783 -0.0036
  234loPI   C3B 3743   0.239  14.340   9.507 -0.0209 -0.0197  0.0330
  234loPI   C4B 3744   0.235  14.549   9.051 -0.1454  0.3068  0.1046
  235loPI    C1 3745   7.077  15.440  11.272  0.0262  0.0684 -0.3674
  235loPI    C2 3746   7.476  15.412  11.271  0.0301  0.0182  0.1103
  235loPI    C3 3747   7.263  15.226  11.554 -0.3512 -0.1302 -0.2619
  235loPI   PO4 3748   7.016  15.393  10.944  0.1472  0.2439 -0.3150
  235loPI   GL1 3749   6.784  15.423  10.666 -0.0074  0.0715  0.2414
  235loPI   GL2 3750   6.640  15.213  10.585 -0.0272  0.3919  0.1959
  235loPI   C1A 3751   7.034  15.516  10.331  0.3367 -0.0678  0.2196
  235loPI   C2A 3752   7.122  15.691   9.928  0.1716  0.0790 -0.1088
  235loPI   C3A 3753   7.505  15.657   9.659  0.0227 -0.2960 -0.1615
  235loPI   C4A 3754   7.563  15.570   9.237 -0.0258  0.3144  0.1686
  235loPI   C5A 3755   7.469  15.420   8.869  0.0665  0.1297  0.2619
  235loPI   C6A 3756   7.695  15.151   8.481 -0.0021 -0.0823  0.0733
  235loPI   C1B 3757   6.793  15.070  10.201 -0.3918  0.3324 -0.1257
  235loPI   C2B 3758   6.724  14.777   9.891 -0.4393  0.1110 -0.2273
  235loPI   C3B 3759   6.790  14.702   9.457  0.0663 -0.0450 -0.0424
  235loPI   C4B 3760   6.619  14.893   9.058 -0.1991 -0.1330 -0.0176
  236loPI    C1 3761   5.022   5.303  11.932 -0.0167 -0.0376  0.0115
  236loPI    C2 3762   5.174   5.536  12.220 -0.0501  0.3530 -0.2782
  236loPI    C3 3763   4.963   5.210  12.317  0.0552  0.4013  0.1348
  236loPI   PO4 3764   4.988   5.494  11.732 -0.1029  0.0552 -0.2636
  236loPI   GL1 3765   4.963   5.643  11.297 -0.0021 -0.2235 -0.1726
  236loPI   GL2 3766   4.835   5.314  11.226  0.1690 -0.0278  0.0923
  236loPI   C1A 3767   4.946   5.641  10.834 -0.0099 -0.3781  0.0226
  236loPI   C2A 3768   4.920   5.596  10.360  0.2204  0.1003  0.4270
  236loPI   C3A 3769   4.960   5.563   9.978  0.0284  0.1643  0.1022
  236loPI   C4A 3770   5.112   5.502   9.462 -0.0614  0.2196 -0.0184
  236loPI   C5A 3771   5.083   5.562   9.049  0.2823  0.2921 -0.1285
  236loPI   C6A 3772   4.710   5.594   8.797 -0.1116 -0.2477 -0.1548
  236loPI   C1B 3773   4.771   5.114  10.854  0.1197  0.1553  0.1292
  236loPI   C2B 3774   4.601   5.230  10.500 -0.2281 -0.0329  0.1653
  236loPI   C3B 3775   4.613   5.134  10.158  0.0542  0.2165  0.2120
  236loPI   C4B 3776   4.830   5.164   9.712  0.2489 -0.1639 -0.1349
  237loPI    C1 3777   9.971   5.940  11.384 -0.0893 -0.4527 -0.0444
  237loPI    C2 3778   9.949   5.866  11.777  0.1615  0.1124  0.0856
  237loPI    C3 3779   9.641   6.039  11.588  0.0673 -0.0978  0.0435
  237loPI   PO4 3780  10.227   5.997  11.352  0.1415  0.4135 -0.3028
  237loPI   GL1 3781  10.394   6.149  10.949  0.1823 -0.1016  0.2221
  237loPI   GL2 3782  10.012   6.211  10.948 -0.1737  0.1018 -0.1219
  237loPI   C1A 3783  10.365   6.197  10.486  0.1143  0.0888  0.1378
  237loPI   C2A 3784  10.356   6.161   9.951  0.0048 -0.0047  0.1024
  237loPI   C3A 3785  10.360   6.082   9.575 -0.1890  0.0450  0.2275
  237loPI   C4A 3786  10.447   6.115   9.107 -0.0617  0.1346  0.0512
  237loPI   C5A 3787  10.787   5.978   8.888  0.3471 -0.0760  0.1495
  237loPI   C6A 3788  11.186   6.121   8.894  0.3846 -0.1686 -0.0078
  237loPI   C1B 3789   9.901   6.132  10.540  0.0572  0.1599 -0.1204
  237loPI   C2B 3790   9.831   6.251  10.121  0.3879  0.3744  0.1674
  237loPI   C3B 3791   9.880   6.077   9.762 -0.2597 -0.4054 -0.0068
  237loPI   C4B 3792   9.689   6.109   9.283  0.1400  0.2296  0.4216
  238loPI    C1 3793   3.851   9.693  11.477 -0.2434 -0.0839 -0.0937
  238loPI    C2 3794   3.502   9.888  11.500 -0.0767  0.1997  0.0921
  238loPI    C3 3795   3.780   9.941  11.783  0.0836 -0.0943 -0.0059
  238loPI   PO4 3796   3.909   9.726  11.290 -0.1949  0.0655 -0.1799
  238loPI   GL1 3797   4.057   9.629  10.938 -0.1608  0.4171 -0.1375
  238loPI   GL2 3798   3.988   9.288  10.968 -0.1558  0.2484  0.3220
  238loPI   C1A 3799   4.034   9.710  10.453 -0.1383 -0.0249 -0.0969
  238loPI   C2A 3800   3.942   9.716  10.022 -0.0355  0.1380  0.1022
  238loPI   C3A 3801   4.001   9.805   9.607 -0.0323 -0.1666 -0.0557
  238loPI   C4A 3802   3.771   9.746   9.166  0.1847  0.2773 -0.1891
  238loPI   C5A 3803   3.494   9.466   9.052 -0.1088 -0.1078  0.0210
  238loPI   C6A 3804   3.125   9.358   8.936 -0.1248  0.1606  0.1919
  238loPI   C1B 3805   3.747   9.236  10.650 -0.2189 -0.0289  0.0814
  238loPI   C2B 3806   3.637   9.339  10.264  0.0927  0.0233  0.0112
  238loPI   C3B 3807   3.666   9.401   9.824  0.0396  0.0100  0.1813
  238loPI   C4B 3808   3.731   9.303   9.439  0.4590  0.4090  0.1958
  239loPI    C1 3809   8.341  10.443  11.720  0.5206 -0.0376 -0.0772
  239loPI    C2 3810   8.594  10.519  12.020  0.3480  0.0035  0.0596
  239loPI    C3 3811   8.275  10.753  11.964  0.1757 -0.2244  0.0739
  239loPI   PO4 3812   8.476  10.477  11.408  0.0380  0.2447  0.3381
  239loPI   GL1 3813   8.782  10.102  11.113  0.2304  0.0366  0.1649
  239loPI   GL2 3814   8.734  10.267  10.957  0.0297 -0.0244  0.1114
  239loPI   C1A 3815   8.522   9.860  10.796 -0.1794  0.1551  0.1810
  239loPI   C2A 3816   8.566   9.916  10.317  0.0133 -0.0345 -0.3236
  239loPI   C3A 3817   8.630   9.786   9.858  0.0207 -0.1252  0.1749
  239loPI   C4A 3818   8.477   9.787   9.439 -0.1241 -0.0670  0.0200
  239loPI   C5A 3819   8.269  10.019   9.067  0.0547 -0.0142 -0.0120
  239loPI   C6A 3820   7.868  10.165   8.990 -0.1386  0.0392  0.0139
  239loPI   C1B 3821   8.804  10.255  10.517 -0.2001 -0.0588 -0.0009
  239loPI   C2B 3822   8.843  10.301  10.098  0.0640  0.0567  0.1052
  239loPI   C3B 3823   8.780  10.223   9.632 -0.1840 -0.1524 -0.1467
  239loPI   C4B 3824   8.745  10.182   9.178  0.0044  0.0697 -0.0011
  240loPI    C1 3825  10.322   1.811  11.654  0.0698 -0.0574  0.0792
  240loPI    C2 3826  10.158   2.101  11.875 -0.0610  0.0474 -0.1520
  240loPI    C3 3827  10.073   1.719  11.953 -0.1755  0.0878 -0.0770
  240loPI   PO4 3828  10.227   1.861  11.433 -0.3309  0.0355 -0.3037
  240loPI   GL1 3829  10.034   1.750  11.096 -0.2835 -0.1445 -0.1067
  240loPI   GL2 3830  10.301   1.699  10.936 -0.1002  0.0299  0.0465
  240loPI   C1A 3831   9.785   1.843  10.703  0.2401 -0.1148  0.2411
  240loPI   C2A 3832   9.775   1.926  10.245 -0.0668 -0.0491 -0.3308
  240loPI   C3A 3833   9.979   1.816   9.828  0.1455  0.1257 -0.0831
  240loPI   C4A 3834  10.127   1.748   9.378  0.0469  0.0535 -0.2447
  240loPI   C5A 3835   9.915   1.792   8.934  0.3054  0.0535  0.1219
  240loPI   C6A 3836  10.099   1.768   8.571 -0.0339 -0.1222  0.1148
  240loPI   C1B 3837  10.301   1.774  10.564  0.0552 -0.2058  0.2732
  240loPI   C2B 3838  10.300   1.864  10.188 -0.0186  0.2127  0.0910
  240loPI   C3B 3839  10.459   1.745   9.852 -0.0041  0.1093  0.1499
  240loPI   C4B 3840  10.361   2.168   9.644 -0.1761 -0.2005 -0.0677
  241loPI    C1 3841  10.341   8.218  12.008 -0.0263  0.1845  0.0388
  241loPI    C2 3842  10.211   7.989  12.310 -0.0892  0.2163  0.0359
  241loPI    C3 3843  10.457   8.296  12.383  0.0576  0.1010  0.0307
  241loPI   PO4 3844  10.183   8.117  11.787  0.4743  0.1559 -0.1597
  241loPI   GL1 3845  10.366   8.041  11.336  0.0783  0.1213  0.0496
  241loPI   GL2 3846  10.109   8.310  11.266 -0.1235  0.4633 -0.0453
  241loPI   C1A 3847  10.535   7.941  11.008  0.2619 -0.1538  0.0882
  241loPI   C2A 3848  10.531   7.874  10.538 -0.0012  0.0054 -0.3508
  241loPI   C3A 3849  10.512   7.947  10.097  0.0608  0.1476 -0.1143
  241loPI   C4A 3850  10.565   7.888   9.671  0.0272  0.1788  0.0254
  241loPI   C5A 3851  10.775   7.549   9.472 -0.1448 -0.1297  0.0969
  241loPI   C6A 3852  11.093   7.468   9.209 -0.1967 -0.4199  0.1879
  241loPI   C1B 3853  10.195   8.294  10.835  0.2088 -0.1644  0.0377
  241loPI   C2B 3854  10.266   8.379  10.343 -0.3049 -0.3295 -0.1363
  241loPI   C3B 3855  10.243   8.361   9.856  0.1144  0.2085  0.0580
  241loPI   C4B 3856  10.269   8.337   9.384 -0.2203  0.2076 -0.0960
  242loPI    C1 3857   4.241  13.676  11.399 -0.0848  0.1251  0.0191
  242loPI    C2 3858   3.974  13.724  11.693 -0.0298 -0.1080  0.1097
  242loPI    C3 3859   4.304  13.950  11.683 -0.1054  0.0046  0.1411
  242loPI   PO4 3860   4.172  13.722  11.170 -0.0107 -0.0705 -0.1994
  242loPI   GL1 3861   4.261  13.451  10.796  0.1004 -0.0919 -0.1102
  242loPI   GL2 3862   4.585  13.611  10.770  0.0800  0.1515 -0.3374
  242loPI   C1A 3863   4.236  13.488  10.327 -0.4590 -0.0443 -0.0880
  242loPI   C2A 3864   4.222  13.445   9.932 -0.0706  0.1464 -0.0497
  242loPI   C3A 3865   4.101  13.406   9.454 -0.0472  0.0140  0.1824
  242loPI   C4A 3866   4.028  13.367   9.005  0.0797  0.1632 -0.3130
  242loPI   C5A 3867   3.741  13.646   8.740 -0.0012 -0.1959  0.1869
  242loPI   C6A 3868   3.876  14.053   8.771 -0.1055  0.3762  0.0190
  242loPI   C1B 3869   4.530  13.854  10.387  0.2289  0.0575  0.0921
  242loPI   C2B 3870   4.575  13.768  10.019 -0.1758 -0.1139  0.0691
  242loPI   C3B 3871   4.484  13.734   9.633 -0.0865 -0.2244  0.0203
  242loPI   C4B 3872   4.509  13.524   9.201  0.3017 -0.3193 -0.0763
  243loPI    C1 3873   5.697  13.559  11.139 -0.2804 -0.1121 -0.0383
  243loPI    C2 3874   5.392  13.314  11.224 -0.2431 -0.1928 -0.1354
  243loPI    C3 3875   5.658  13.408  11.507 -0.3153 -0.1827 -0.0708
  243loPI   PO4 3876   5.575  13.765  11.015  0.1547  0.0372  0.0359
  243loPI   GL1 3877   5.649  13.806  10.645 -0.0292  0.0964 -0.2254
  243loPI   GL2 3878   5.489  13.958  10.420 -0.0588 -0.1590  0.1159
  243loPI   C1A 3879   5.911  13.784  10.245 -0.0564 -0.0584 -0.2080
  243loPI   C2A 3880   5.888  13.757   9.833 -0.1241  0.1701 -0.1657
  243loPI   C3A 3881   5.891  13.637   9.338 -0.0644 -0.0762  0.0814
  243loPI   C4A 3882   5.805  13.807   8.878 -0.4451  0.2174  0.0342
  243loPI   C5A 3883   5.711  13.929   8.371 -0.0654  0.1827 -0.1521
  243loPI   C6A 3884   5.646  13.785   7.978 -0.2354 -0.4225  0.0570
  243loPI   C1B 3885   5.429  13.996   9.948  0.2150 -0.0310 -0.3349
  243loPI   C2B 3886   5.480  13.820   9.550 -0.0982  0.1130 -0.2535
  243loPI   C3B 3887   5.423  13.648   9.149  0.3096 -0.3240 -0.2410
  243loPI   C4B 3888   5.326  13.396   8.810 -0.0940 -0.3876 -0.1550
  244loPI    C1 3889   0.102   1.959  11.697  0.0459  0.0001 -0.0953
  244loPI    C2 3890  -0.151   2.141  11.947 -0.0128 -0.0108 -0.1467
  244loPI    C3 3891   0.071   1.834  12.075  0.1994  0.1937 -0.0172
  244loPI   PO4 3892   0.211   2.154  11.510  0.3375 -0.1378 -0.2664
  244loPI   GL1 3893   0.325   2.391  11.243  0.1974 -0.0686  0.0416
  244loPI   GL2 3894   0.399   2.227  11.030  0.2501 -0.0728  0.0166
  244loPI   C1A 3895   0.193   2.715  10.869  0.2091  0.1997 -0.2454
  244loPI   C2A 3896   0.175   2.765  10.437  0.0894 -0.2428  0.0770
  244loPI   C3A 3897   0.274   2.704   9.936 -0.3046 -0.0655  0.1719
  244loPI   C4A 3898   0.376   2.714   9.552 -0.0495 -0.1484  0.0676
  244loPI   C5A 3899   0.287   2.819   9.160 -0.0980  0.0114  0.0223
  244loPI   C6A 3900   0.196   2.529   8.813  0.0043  0.1470  0.2296
  244loPI   C1B 3901   0.440   2.327  10.667  0.0365  0.0196 -0.0759
  244loPI   C2B 3902   0.523   2.372  10.219 -0.0346  0.2732 -0.1481
  244loPI   C3B 3903   0.559   2.270   9.719  0.0433 -0.1331 -0.2410
  244loPI   C4B 3904   0.476   2.287   9.211 -0.1123  0.2350  0.6249
  245loPI    C1 3905   1.697   8.580  12.091 -0.1610 -0.0437  0.0435
  245loPI    C2 3906   1.889   8.258  12.229  0.0112 -0.0239 -0.1440
  245loPI    C3 3907   1.976   8.620  12.376 -0.1344 -0.0534  0.0189
  245loPI   PO4 3908   1.776   8.661  11.699 -0.0730 -0.0680 -0.0133
  245loPI   GL1 3909   1.711   8.803  11.350 -0.0831  0.1707  0.1721
  245loPI   GL2 3910   1.370   9.002  11.363 -0.1766  0.1271  0.1104
  245loPI   C1A 3911   1.824   8.911  10.791 -0.2004 -0.0464  0.0014
  245loPI   C2A 3912   1.837   9.050  10.338  0.3820 -0.1724 -0.2965
  245loPI   C3A 3913   1.853   9.040   9.856  0.2152 -0.2094 -0.1000
  245loPI   C4A 3914   1.741   9.054   9.415  0.1717  0.1902 -0.2636
  245loPI   C5A 3915   1.671   9.239   9.023  0.1316  0.0306  0.1665
  245loPI   C6A 3916   1.896   9.365   8.775 -0.0467  0.0553  0.3141
  245loPI   C1B 3917   1.324   8.942  10.986  0.2151 -0.0261  0.0837
  245loPI   C2B 3918   1.349   8.958  10.554 -0.0619  0.0404  0.0284
  245loPI   C3B 3919   1.319   9.048  10.100  0.1238  0.1418 -0.0470
  245loPI   C4B 3920   1.270   9.000   9.637  0.0724  0.0290 -0.1455
  246loPI    C1 3921   9.527  13.481  11.974  0.1321  0.0646  0.1227
  246loPI    C2 3922   9.339  13.833  11.950 -0.0520 -0.0545 -0.2731
  246loPI    C3 3923   9.131  13.493  11.923  0.1391 -0.1958 -0.0123
  246loPI   PO4 3924   9.708  13.504  11.749 -0.1234 -0.0046  0.0251
  246loPI   GL1 3925   9.826  13.477  11.298  0.0984  0.1830  0.2141
  246loPI   GL2 3926  10.197  13.398  11.356  0.0798  0.0276  0.1049
  246loPI   C1A 3927   9.938  13.796  10.959 -0.0150  0.0552  0.1462
  246loPI   C2A 3928  10.070  13.857  10.550 -0.0423 -0.2778  0.0784
  246loPI   C3A 3929  10.062  13.820  10.079  0.3867  0.2323  0.1937
  246loPI   C4A 3930  10.085  13.808   9.611 -0.2962  0.1362  0.2342
  246loPI   C5A 3931  10.130  13.683   9.185 -0.0486 -0.2199 -0.0931
  246loPI   C6A 3932  10.089  13.205   9.019 -0.0979 -0.2471 -0.0994
  246loPI   C1B 3933  10.210  13.427  10.823  0.0325 -0.3488 -0.0043
  246loPI   C2B 3934  10.302  13.466  10.383 -0.0460 -0.0377  0.1514
  246loPI   C3B 3935  10.316  13.349   9.900 -0.1866  0.1301  0.0592
  246loPI   C4B 3936  10.456  13.265   9.421 -0.1022 -0.0051  0.4916
  247loPI    C1 3937   5.563  11.118  11.429  0.0176  0.1379  0.1911
  247loPI    C2 3938   5.341  11.191  11.753 -0.1195  0.2197  0.0800
  247loPI    C3 3939   5.196  10.963  11.458  0.1520 -0.1791  0.2452
  247loPI   PO4 3940   5.732  11.280  11.463 -0.0885 -0.2748 -0.1598
  247loPI   GL1 3941   5.966  11.424  11.151 -0.0806  0.0793  0.1845
  247loPI   GL2 3942   5.735  11.464  10.985 -0.1067 -0.1106 -0.4488
  247loPI   C1A 3943   6.397  11.510  10.912  0.1563 -0.0018  0.0255
  247loPI   C2A 3944   6.482  11.422  10.545  0.3090  0.0696 -0.0779
  247loPI   C3A 3945   6.412  11.380  10.116  0.1122  0.2440  0.0024
  247loPI   C4A 3946   6.341  11.411   9.728  0.1555  0.1330 -0.0640
  247loPI   C5A 3947   6.225  11.298   9.363  0.2430 -0.0426  0.0155
  247loPI   C6A 3948   6.145  11.176   8.968 -0.0274  0.1575 -0.1978
  247loPI   C1B 3949   5.630  11.442  10.645 -0.0159  0.4063  0.0911
  247loPI   C2B 3950   5.632  11.438  10.128  0.1804  0.0545 -0.1037
  247loPI   C3B 3951   5.730  11.409   9.708 -0.0815  0.4241 -0.1895
  247loPI   C4B 3952   5.646  11.365   9.364  0.2477  0.1623  0.0615
  248loPI    C1 3953  16.924   0.350  11.616  0.0338  0.2493  0.1195
  248loPI    C2 3954  17.172   0.038  11.655 -0.1685  0.0636 -0.0502
  248loPI    C3 3955  17.254   0.384  11.839  0.0151 -0.1147  0.2090
  248loPI   PO4 3956  16.713   0.296  11.453  0.3254  0.0048  0.1758
  248loPI   GL1 3957  16.384   0.154  11.168 -0.0843 -0.2337  0.0786
  248loPI   GL2 3958  16.627   0.078  11.010 -0.0221 -0.0764  0.1196
  248loPI   C1A 3959  16.130  -0.040  10.856  0.0320  0.0909 -0.1064
  248loPI   C2A 3960  16.100   0.065  10.350  0.0039 -0.1031 -0.0299
  248loPI   C3A 3961  16.079   0.073   9.931  0.1608 -0.0327  0.1180
  248loPI   C4A 3962  15.998   0.049   9.464 -0.3043  0.1613 -0.4261
  248loPI   C5A 3963  16.181   0.104   9.009  0.3279  0.1472 -0.0147
  248loPI   C6A 3964  16.533   0.191   8.876  0.0961  0.0223  0.0966
  248loPI   C1B 3965  16.707  -0.015  10.635  0.2836  0.0836  0.1443
  248loPI   C2B 3966  16.602   0.018  10.265 -0.1465  0.0695  0.0519
  248loPI   C3B 3967  16.577  -0.045   9.844  0.3093  0.1034  0.1002
  248loPI   C4B 3968  16.534  -0.024   9.407 -0.0761 -0.1445  0.1238
  249loPI    C1 3969   5.915   4.075  11.729  0.0374 -0.0277 -0.1089
  249loPI    C2 3970   6.283   4.227  11.687  0.0458 -0.0205 -0.0119
  249loPI    C3 3971   6.207   3.967  11.981 -0.0516  0.0566  0.0317
  249loPI   PO4 3972   5.860   4.010  11.494  0.1250 -0.0811  0.1980
  249loPI   GL1 3973   6.017   3.959  11.125 -0.2142  0.0094  0.3067
  249loPI   GL2 3974   6.284   4.224  11.170  0.1615 -0.0106 -0.1404
  249loPI   C1A 3975   6.304   3.987  10.681 -0.0572  0.1148 -0.2878
  249loPI   C2A 3976   6.226   4.062  10.220 -0.2356  0.2491  0.1446
  249loPI   C3A 3977   6.191   4.068   9.879  0.3922  0.0195 -0.0286
  249loPI   C4A 3978   6.314   4.082   9.468  0.1565 -0.1794  0.0161
  249loPI   C5A 3979   6.053   4.279   9.141  0.0786  0.0807 -0.0249
  249loPI   C6A 3980   5.854   4.695   9.002 -0.2385 -0.0197  0.0558
  249loPI   C1B 3981   6.139   4.523  10.897 -0.0842  0.0367  0.1835
  249loPI   C2B 3982   6.076   4.518  10.493  0.1516 -0.1819  0.1408
  249loPI   C3B 3983   5.977   4.525  10.052 -0.1171 -0.1553 -0.2852
  249loPI   C4B 3984   5.984   4.453   9.629 -0.0399 -0.1211 -0.3130
  250loPI    C1 3985   1.658  10.431  11.723  0.2535  0.0162 -0.1660
  250loPI    C2 3986   1.793  10.135  11.956 -0.2289 -0.0759  0.0096
  250loPI    C3 3987   1.717  10.495  12.114  0.1730  0.0925 -0.1660
  250loPI   PO4 3988   1.768  10.383  11.444  0.0470 -0.1184 -0.0563
  250loPI   GL1 3989   1.653  10.368  11.136  0.0012 -0.1395 -0.0055
  250loPI   GL2 3990   1.487  10.097  11.110  0.2424  0.2931 -0.0649
  250loPI   C1A 3991   1.643  10.449  10.773 -0.1566 -0.0873 -0.2503
  250loPI   C2A 3992   1.613  10.353  10.352 -0.0842 -0.0591 -0.0530
  250loPI   C3A 3993   1.625  10.436   9.851 -0.0472 -0.0597 -0.1490
  250loPI   C4A 3994   1.759  10.379   9.448  0.0885 -0.3003  0.1888
  250loPI   C5A 3995   1.607  10.190   9.097  0.0266 -0.0330 -0.2737
  250loPI   C6A 3996   1.708  10.023   8.661 -0.0264  0.0938  0.0090
  250loPI   C1B 3997   1.402   9.988  10.723 -0.2860  0.0705  0.0831
  250loPI   C2B 3998   1.315   9.998  10.236 -0.3350  0.2200 -0.0588
  250loPI   C3B 3999   1.338   9.963   9.806 -0.2215 -0.0298  0.1895
  250loPI   C4B 4000   1.318   9.976   9.437  0.1918 -0.2539  0.0014
  251loPI    C1 4001   7.808   1.789  11.543 -0.0402  0.0538 -0.0020
  251loPI    C2 4002   7.931   1.411  11.581 -0.0874  0.0312 -0.0706
  251loPI    C3 4003   8.032   1.683  11.856  0.0868  0.0056 -0.1084
  251loPI   PO4 4004   7.982   1.867  11.286  0.0179  0.1274 -0.1267
  251loPI   GL1 4005   8.210   2.114  11.025  0.1677  0.1997  0.0647
  251loPI   GL2 4006   7.850   2.254  10.913 -0.0592 -0.1676  0.0584
  251loPI   C1A 4007   8.215   2.052  10.620 -0.2838  0.0952  0.0566
  251loPI   C2A 4008   8.065   2.172  10.178  0.0063  0.1992 -0.2883
  251loPI   C3A 4009   8.030   2.295   9.716  0.1583 -0.1238 -0.1035
  251loPI   C4A 4010   8.146   2.161   9.389 -0.1586  0.2138  0.1927
  251loPI   C5A 4011   8.410   2.092   9.121  0.2335  0.1697  0.1802
  251loPI   C6A 4012   8.706   2.357   9.040 -0.0690  0.1738  0.1073
  251loPI   C1B 4013   7.721   2.268  10.509 -0.1672  0.2088  0.0605
  251loPI   C2B 4014   7.589   2.221   9.976 -0.0392  0.2065 -0.2221
  251loPI   C3B 4015   7.504   2.307   9.547 -0.0313  0.2271  0.0913
  251loPI   C4B 4016   7.560   2.155   9.079 -0.1319 -0.1037 -0.0026
  252loPI    C1 4017   7.734  16.357  11.435 -0.1721  0.3796 -0.1075
  252loPI    C2 4018   7.411  16.163  11.567 -0.1657  0.4087 -0.0482
  252loPI    C3 4019   7.672  16.316  11.828  0.1646 -0.0574 -0.0922
  252loPI   PO4 4020   7.856  16.288  11.271 -0.0858  0.0154  0.1823
  252loPI   GL1 4021   7.919  16.451  10.918  0.0910  0.2297 -0.1335
  252loPI   GL2 4022   7.749  16.275  10.676 -0.3504 -0.0258  0.1815
  252loPI   C1A 4023   8.060  16.686  10.538 -0.1265  0.2085 -0.0621
  252loPI   C2A 4024   8.045  16.746  10.076  0.1319 -0.2479  0.0567
  252loPI   C3A 4025   7.963  16.882   9.720  0.0104 -0.0382  0.3183
  252loPI   C4A 4026   7.833  16.931   9.273  0.1802 -0.0163 -0.2042
  252loPI   C5A 4027   7.450  17.018   9.130  0.0245  0.0363  0.0398
  252loPI   C6A 4028   7.100  17.247   9.055 -0.1439  0.1517 -0.0871
  252loPI   C1B 4029   7.768  16.367  10.256  0.1218  0.0479 -0.0781
  252loPI   C2B 4030   7.809  16.377   9.784 -0.1282  0.1935 -0.1874
  252loPI   C3B 4031   8.050  16.429   9.362 -0.0656  0.0649 -0.0597
  252loPI   C4B 4032   8.302  16.549   9.165  0.1631 -0.0196 -0.0653
  253loPI    C1 4033   1.171  10.445  11.747 -0.0206  0.0051 -0.1373
  253loPI    C2 4034   0.847  10.649  11.864 -0.0428 -0.1152  0.0135
  253loPI    C3 4035   0.922  10.286  12.017  0.2294 -0.0360  0.0733
  253loPI   PO4 4036   1.179  10.416  11.474  0.0419 -0.2799  0.0663
  253loPI   GL1 4037   1.029  10.579  11.138 -0.2182  0.0105 -0.0292
  253loPI   GL2 4038   0.723  10.576  11.059 -0.1740  0.0843  0.0375
  253loPI   C1A 4039   1.156  10.374  10.826 -0.0745 -0.1620  0.1274
  253loPI   C2A 4040   1.158  10.416  10.415  0.1443  0.1164  0.0066
  253loPI   C3A 4041   1.170  10.449   9.949  0.1390 -0.0759 -0.4163
  253loPI   C4A 4042   1.136  10.416   9.619  0.2826 -0.0800 -0.0621
  253loPI   C5A 4043   1.107  10.341   9.184 -0.0880  0.1357 -0.0582
  253loPI   C6A 4044   0.957   9.916   9.104  0.0691  0.0622 -0.1481
  253loPI   C1B 4045   0.727  10.493  10.630 -0.1937 -0.0546 -0.1089
  253loPI   C2B 4046   0.682  10.471  10.203  0.0298  0.1073 -0.0343
  253loPI   C3B 4047   0.630  10.426   9.729  0.1576 -0.2566 -0.0209
  253loPI   C4B 4048   0.585  10.349   9.302  0.2349  0.0330  0.0116
  254loPI    C1 4049   1.748  12.093  11.605 -0.1993  0.1692 -0.1890
  254loPI    C2 4050   1.941  11.750  11.535 -0.0728  0.2240 -0.1129
  254loPI    C3 4051   1.666  11.769  11.825 -0.1972  0.1447 -0.2242
  254loPI   PO4 4052   1.664  12.155  11.389 -0.0707 -0.0888 -0.2589
  254loPI   GL1 4053   1.645  12.031  11.017  0.1269 -0.3147 -0.1668
  254loPI   GL2 4054   1.837  12.271  10.898  0.0964  0.1479  0.3716
  254loPI   C1A 4055   1.579  11.864  10.702 -0.0872  0.3348  0.1210
  254loPI   C2A 4056   1.538  11.788  10.250 -0.0021  0.1079  0.2920
  254loPI   C3A 4057   1.458  11.789   9.874 -0.0845 -0.3073 -0.0000
  254loPI   C4A 4058   1.412  11.680   9.437  0.0234 -0.0664  0.1316
  254loPI   C5A 4059   1.707  11.694   9.069  0.2411 -0.0024  0.0856
  254loPI   C6A 4060   1.801  11.598   8.670 -0.3693 -0.0108  0.0387
  254loPI   C1B 4061   1.838  12.245  10.436 -0.3314  0.1865  0.0767
  254loPI   C2B 4062   1.827  12.164  10.004 -0.2999  0.2765 -0.0869
  254loPI   C3B 4063   1.692  12.291   9.618 -0.1009  0.1235 -0.0046
  254loPI   C4B 4064   1.708  12.136   9.210  0.1030  0.0204  0.1652
  255loPI    C1 4065   3.956   6.683  11.910  0.1022 -0.0743  0.1315
  255loPI    C2 4066   4.240   6.856  11.687  0.2558 -0.1818  0.2415
  255loPI    C3 4067   4.170   6.987  12.059 -0.2276  0.2178  0.0199
  255loPI   PO4 4068   3.726   6.710  11.764 -0.0619  0.0430 -0.0460
  255loPI   GL1 4069   3.720   6.654  11.347  0.0349  0.2148 -0.1165
  255loPI   GL2 4070   3.620   6.354  11.370  0.1970 -0.0542 -0.0333
  255loPI   C1A 4071   3.460   6.661  10.932  0.0867  0.0121 -0.2363
  255loPI   C2A 4072   3.480   6.648  10.483 -0.2237  0.0940 -0.0142
  255loPI   C3A 4073   3.481   6.631  10.013  0.0117  0.0482 -0.0076
  255loPI   C4A 4074   3.643   6.619   9.569  0.0386 -0.2998 -0.0854
  255loPI   C5A 4075   3.598   6.779   9.136 -0.2716 -0.4793 -0.1150
  255loPI   C6A 4076   3.509   7.052   8.785 -0.2903  0.0867  0.3810
  255loPI   C1B 4077   3.648   6.169  10.974 -0.4283 -0.0504 -0.0664
  255loPI   C2B 4078   3.717   6.060  10.603 -0.0626  0.0497  0.3044
  255loPI   C3B 4079   3.776   6.180  10.231  0.1493  0.1412  0.2905
  255loPI   C4B 4080   3.699   6.154   9.863 -0.2356  0.1939  0.0442
  256loPI    C1 4081   8.191   8.192  11.732 -0.2362  0.1573 -0.1279
  256loPI    C2 4082   8.569   8.308  11.671 -0.1639  0.0366  0.0815
  256loPI    C3 4083   8.474   8.101  12.000 -0.3965 -0.0100 -0.0135
  256loPI   PO4 4084   8.129   8.149  11.497 -0.0881  0.1400 -0.0934
  256loPI   GL1 4085   8.290   8.063  11.216 -0.1093 -0.0964 -0.0383
  256loPI   GL2 4086   8.558   7.874  11.313 -0.2485  0.1289  0.0962
  256loPI   C1A 4087   8.521   8.195  10.831  0.0204  0.1596 -0.0399
  256loPI   C2A 4088   8.568   8.301  10.403 -0.3411  0.0897 -0.2313
  256loPI   C3A 4089   8.783   8.455  10.036  0.1196  0.2484  0.1625
  256loPI   C4A 4090   8.845   8.474   9.573  0.2553  0.1471  0.2305
  256loPI   C5A 4091   8.874   8.040   9.332 -0.3541  0.0627  0.2185
  256loPI   C6A 4092   9.075   7.602   9.145 -0.1259  0.0611 -0.0473
  256loPI   C1B 4093   8.883   7.806  11.004 -0.1750  0.3046  0.2164
  256loPI   C2B 4094   8.902   7.941  10.617 -0.0172 -0.0224  0.1038
  256loPI   C3B 4095   8.937   8.030  10.228 -0.1662 -0.2555  0.1129
  256loPI   C4B 4096   9.008   7.992   9.774 -0.0469 -0.2989 -0.0951
  257loPI    C1 4097  12.390   2.362  11.340 -0.1677 -0.1020 -0.1285
  257loPI    C2 4098  12.383   2.299  11.734 -0.0387  0.1429 -0.0850
  257loPI    C3 4099  12.143   2.088  11.494 -0.0911 -0.0341  0.1193
  257loPI   PO4 4100  12.620   2.300  11.223 -0.4622 -0.0198 -0.0202
  257loPI   GL1 4101  12.760   2.243  10.790 -0.2777  0.0326 -0.0741
  257loPI   GL2 4102  12.944   2.391  10.638  0.0426 -0.0500 -0.0792
  257loPI   C1A 4103  12.909   1.988  10.369 -0.1705 -0.4267 -0.0845
  257loPI   C2A 4104  12.735   2.033   9.950  0.2238  0.0041  0.0916
  257loPI   C3A 4105  12.361   2.109   9.801  0.1979  0.1900  0.0625
  257loPI   C4A 4106  12.264   2.198   9.415  0.0532  0.0813  0.1103
  257loPI   C5A 4107  12.066   1.964   9.239  0.2942 -0.2902  0.1886
  257loPI   C6A 4108  11.786   1.869   8.896 -0.3210  0.2910 -0.0831
  257loPI   C1B 4109  12.651   2.428  10.287  0.2411  0.1394  0.2307
  257loPI   C2B 4110  12.578   2.514   9.753 -0.0916  0.2773  0.2018
  257loPI   C3B 4111  12.455   2.679   9.400 -0.1907 -0.1888 -0.1196
  257loPI   C4B 4112  12.540   2.841   8.953  0.2077  0.0657 -0.1230
  258loPI    C1 4113   2.080  12.875  11.555  0.2330 -0.1432 -0.2728
  258loPI    C2 4114   2.387  12.659  11.695  0.0604 -0.1778  0.0621
  258loPI    C3 4115   2.011  12.558  11.790 -0.0341  0.1293  0.0275
  258loPI   PO4 4116   2.092  12.885  11.238 -0.5194  0.0181 -0.0896
  258loPI   GL1 4117   1.784  12.852  10.928  0.2403  0.0965 -0.0530
  258loPI   GL2 4118   1.962  13.165  10.865  0.3391 -0.0159 -0.2323
  258loPI   C1A 4119   1.639  12.769  10.669 -0.1033 -0.0156  0.0968
  258loPI   C2A 4120   1.605  12.800  10.241 -0.1548  0.4571 -0.0637
  258loPI   C3A 4121   1.505  12.765   9.807 -0.1700 -0.0424  0.0159
  258loPI   C4A 4122   1.512  12.712   9.383  0.0884  0.1805  0.0632
  258loPI   C5A 4123   1.481  12.551   9.050  0.0279 -0.2796 -0.1003
  258loPI   C6A 4124   1.362  12.385   8.609 -0.1117  0.0696 -0.0464
  258loPI   C1B 4125   1.969  13.263  10.427 -0.1244  0.1064 -0.1125
  258loPI   C2B 4126   1.861  13.272  10.007 -0.2819  0.1853  0.1726
  258loPI   C3B 4127   1.749  13.185   9.595  0.2011  0.1269 -0.3594
  258loPI   C4B 4128   1.680  13.130   9.280 -0.0451  0.3545 -0.2803
  259loPI    C1 4129   5.900  12.163  11.644 -0.0947 -0.0823 -0.0016
  259loPI    C2 4130   5.783  12.530  11.751 -0.0442 -0.0224 -0.1508
  259loPI    C3 4131   5.639  12.211  11.944 -0.0624  0.0771  0.0016
  259loPI   PO4 4132   6.011  12.213  11.382 -0.0240 -0.1805  0.4419
  259loPI   GL1 4133   6.094  12.081  11.052 -0.0589  0.0605  0.1657
  259loPI   GL2 4134   6.292  12.281  10.833 -0.1565 -0.3022 -0.0349
  259loPI   C1A 4135   6.021  11.775  10.731  0.0650  0.0869 -0.1419
  259loPI   C2A 4136   6.097  11.729  10.338 -0.0351  0.1253 -0.3011
  259loPI   C3A 4137   6.017  11.736   9.895  0.1774  0.1911 -0.0397
  259loPI   C4A 4138   6.047  11.746   9.475  0.0474  0.2501  0.0555
  259loPI   C5A 4139   6.069  11.686   9.043  0.0847 -0.1829  0.1875
  259loPI   C6A 4140   6.329  11.599   8.738  0.1769  0.3438 -0.2400
  259loPI   C1B 4141   6.033  12.230  10.468  0.1482  0.0023  0.1937
  259loPI   C2B 4142   6.139  12.189  10.106 -0.1248 -0.0754 -0.1387
  259loPI   C3B 4143   6.293  12.186   9.708 -0.1411  0.0327 -0.0933
  259loPI   C4B 4144   6.601  12.536   9.475  0.3006  0.0344 -0.2603
  260loPI    C1 4145   2.655  14.068  11.441 -0.0277 -0.0521  0.1262
  260loPI    C2 4146   2.327  14.295  11.469  0.3052  0.4414  0.1761
  260loPI    C3 4147   2.512  14.169  11.801  0.1807  0.1778  0.1481
  260loPI   PO4 4148   2.698  14.086  11.175 -0.0037  0.3143  0.0787
  260loPI   GL1 4149   2.713  14.175  10.825  0.1472  0.0771 -0.1242
  260loPI   GL2 4150   2.979  14.445  10.850  0.1461 -0.0664  0.0211
  260loPI   C1A 4151   2.671  14.041  10.495 -0.1083 -0.2281  0.1026
  260loPI   C2A 4152   2.573  14.096  10.181 -0.0763 -0.0600  0.2250
  260loPI   C3A 4153   2.521  14.093   9.728  0.0834  0.0639  0.3804
  260loPI   C4A 4154   2.286  14.042   9.343  0.2947 -0.1457 -0.0213
  260loPI   C5A 4155   2.348  13.773   9.001 -0.5461  0.0805  0.2462
  260loPI   C6A 4156   2.593  13.389   9.059  0.0831  0.1107 -0.3413
  260loPI   C1B 4157   2.885  14.499  10.406 -0.1474 -0.0291 -0.1918
  260loPI   C2B 4158   2.787  14.510   9.968  0.0186 -0.0079 -0.1602
  260loPI   C3B 4159   2.729  14.516   9.534  0.3161 -0.0291 -0.0035
  260loPI   C4B 4160   2.473  14.636   9.224  0.1690  0.0147 -0.1635
  261loPI    C1 4161  16.626   5.631  12.048  0.1462  0.0314  0.0748
  261loPI    C2 4162  16.938   5.396  12.136 -0.0037 -0.2504 -0.1305
  261loPI    C3 4163  16.567   5.280  12.230 -0.0665 -0.0167 -0.0835
  261loPI   PO4 4164  16.734   5.731  11.738 -0.2341 -0.0913  0.4803
  261loPI   GL1 4165  16.650   5.941  11.346 -0.1069 -0.0466 -0.1091
  261loPI   GL2 4166  16.420   6.213  11.320  0.0229  0.0085 -0.1871
  261loPI   C1A 4167  16.641   6.031  10.898 -0.1441 -0.1047  0.1256
  261loPI   C2A 4168  16.688   6.025  10.380  0.3583  0.1585  0.2762
  261loPI   C3A 4169  16.732   5.926   9.996 -0.0920 -0.1503  0.2311
  261loPI   C4A 4170  16.855   5.888   9.561 -0.0752  0.2441 -0.2774
  261loPI   C5A 4171  16.805   5.589   9.262 -0.0890 -0.3013  0.0012
  261loPI   C6A 4172  16.792   5.108   9.368  0.1374  0.1501 -0.0512
  261loPI   C1B 4173  16.423   6.552  10.953 -0.0700 -0.0607 -0.0251
  261loPI   C2B 4174  16.592   6.607  10.621 -0.0086  0.2026 -0.1671
  261loPI   C3B 4175  16.608   6.526  10.249  0.1298  0.0241  0.1911
  261loPI   C4B 4176  16.542   6.355   9.843 -0.0536  0.1567  0.0529
  262loPI    C1 4177  17.052   3.190  11.829 -0.0018 -0.3070  0.1008
  262loPI    C2 4178  17.321   3.303  12.102 -0.1056  0.0801  0.0482
  262loPI    C3 4179  16.932   3.299  12.195 -0.1225 -0.0065 -0.0251
  262loPI   PO4 4180  17.243   3.190  11.633  0.0413 -0.4043 -0.1474
  262loPI   GL1 4181  17.230   3.108  11.252 -0.0001 -0.1102  0.1408
  262loPI   GL2 4182  16.984   3.185  11.064 -0.1421 -0.0835  0.0361
  262loPI   C1A 4183  17.490   3.194  10.905 -0.2179  0.0742  0.0860
  262loPI   C2A 4184  17.469   3.182  10.563  0.0979  0.0620  0.1118
  262loPI   C3A 4185  17.585   3.136  10.159 -0.0784 -0.0188 -0.0698
  262loPI   C4A 4186  17.656   3.117   9.854  0.0152  0.1841  0.1751
  262loPI   C5A 4187  17.729   3.111   9.442  0.0143  0.1303 -0.0883
  262loPI   C6A 4188  17.873   2.945   9.079  0.1504  0.1434  0.2734
  262loPI   C1B 4189  17.039   3.145  10.709  0.1432  0.0638 -0.0136
  262loPI   C2B 4190  17.091   3.165  10.255 -0.2615  0.0297  0.1034
  262loPI   C3B 4191  17.087   3.189   9.849  0.0457  0.0657 -0.1361
  262loPI   C4B 4192  17.154   3.201   9.469 -0.1362  0.1268  0.0041
  263loPI    C1 4193  11.761   0.147  11.628 -0.0212 -0.1886  0.1133
  263loPI    C2 4194  11.862  -0.215  11.763  0.0419 -0.0985  0.3124
  263loPI    C3 4195  12.063   0.107  11.887  0.1422 -0.0181 -0.0477
  263loPI   PO4 4196  11.789   0.113  11.369 -0.0537  0.0366 -0.0887
  263loPI   GL1 4197  11.634   0.115  10.978  0.3753 -0.1326  0.1913
  263loPI   GL2 4198  11.722   0.371  10.850 -0.2806  0.0572  0.0123
  263loPI   C1A 4199  11.482  -0.217  10.568 -0.0568 -0.1761 -0.0795
  263loPI   C2A 4200  11.533  -0.224  10.212 -0.4319 -0.1396 -0.1199
  263loPI   C3A 4201  11.548  -0.122   9.787  0.2216 -0.0084 -0.1654
  263loPI   C4A 4202  11.663  -0.148   9.434  0.0023  0.0351  0.0020
  263loPI   C5A 4203  11.914  -0.230   9.054 -0.0379 -0.1202  0.1583
  263loPI   C6A 4204  11.967   0.017   8.696 -0.0482 -0.4334  0.0733
  263loPI   C1B 4205  11.602   0.273  10.461 -0.3571  0.1427  0.0270
  263loPI   C2B 4206  11.656   0.355  10.041 -0.0305  0.3251 -0.1687
  263loPI   C3B 4207  11.850   0.301   9.659  0.0163 -0.3299  0.3273
  263loPI   C4B 4208  11.813   0.297   9.201 -0.3780 -0.1613  0.0608
  264loPI    C1 4209   6.143   8.410  11.766  0.0876  0.2278  0.0554
  264loPI    C2 4210   5.773   8.299  11.662  0.1814 -0.0944  0.0563
  264loPI    C3 4211   5.827   8.594  11.927 -0.0704  0.0901 -0.0942
  264loPI   PO4 4212   6.267   8.481  11.497  0.0622  0.0771  0.2228
  264loPI   GL1 4213   6.376   8.381  11.069  0.2124 -0.4207  0.0417
  264loPI   GL2 4214   5.981   8.471  11.042 -0.0811  0.1762 -0.3414
  264loPI   C1A 4215   6.239   8.177  10.632 -0.2329 -0.1217  0.0009
  264loPI   C2A 4216   6.229   8.183  10.257 -0.0825  0.2255  0.1122
  264loPI   C3A 4217   6.507   7.761   9.975 -0.2105  0.0891 -0.4285
  264loPI   C4A 4218   6.354   7.470   9.700  0.2862  0.2308  0.1387
  264loPI   C5A 4219   6.227   7.156   9.390 -0.0326 -0.1520 -0.2046
  264loPI   C6A 4220   6.266   6.993   8.995 -0.0272  0.1372  0.2925
  264loPI   C1B 4221   6.000   8.613  10.612  0.2410  0.1739 -0.1195
  264loPI   C2B 4222   6.074   8.647  10.182  0.2042 -0.2268  0.0215
  264loPI   C3B 4223   6.070   8.638   9.801  0.0562 -0.4557  0.1230
  264loPI   C4B 4224   6.246   8.659   9.512 -0.1059 -0.0626  0.1579
  265loPI    C1 4225  14.623   5.169  11.643  0.2310  0.3082 -0.0881
  265loPI    C2 4226  14.280   5.124  11.843  0.1351 -0.0326 -0.3197
  265loPI    C3 4227  14.625   5.007  12.008  0.1164  0.1191 -0.1700
  265loPI   PO4 4228  14.596   5.012  11.408  0.0394 -0.1618  0.0603
  265loPI   GL1 4229  14.636   5.202  11.029  0.3210  0.0327 -0.0808
  265loPI   GL2 4230  14.512   4.888  10.939  0.2577  0.3190 -0.0207
  265loPI   C1A 4231  14.847   5.297  10.643 -0.1242 -0.0407  0.1147
  265loPI   C2A 4232  14.997   5.191  10.180  0.1566  0.1487 -0.0059
  265loPI   C3A 4233  15.064   5.181   9.734 -0.2795  0.4099 -0.1550
  265loPI   C4A 4234  15.105   4.921   9.337 -0.1164  0.1694  0.3131
  265loPI   C5A 4235  15.136   4.839   8.895  0.1817 -0.1783  0.2669
  265loPI   C6A 4236  15.490   4.935   8.658 -0.1057  0.1044 -0.2099
  265loPI   C1B 4237  14.655   4.823  10.526 -0.2102 -0.0887 -0.0700
  265loPI   C2B 4238  14.821   4.752  10.071 -0.1333  0.0675  0.2606
  265loPI   C3B 4239  14.700   4.810   9.726 -0.0183  0.0149 -0.0042
  265loPI   C4B 4240  14.557   5.037   9.460 -0.0428  0.2493 -0.0026
  266loPI    C1 4241  16.678   0.805  11.639  0.1880 -0.0841 -0.0840
  266loPI    C2 4242  17.046   0.868  11.784  0.0328 -0.2425  0.3975
  266loPI    C3 4243  16.740   1.094  11.908 -0.0336 -0.0940 -0.0208
  266loPI   PO4 4244  16.704   0.811  11.377 -0.1152  0.0473 -0.2446
  266loPI   GL1 4245  16.773   0.587  11.057 -0.0699 -0.1713 -0.0641
  266loPI   GL2 4246  16.460   0.596  10.965 -0.0973 -0.0277  0.1313
  266loPI   C1A 4247  16.869   0.457  10.731 -0.0743  0.0029 -0.0916
  266loPI   C2A 4248  16.838   0.457  10.415  0.0611 -0.0046  0.1712
  266loPI   C3A 4249  16.886   0.407   9.978  0.1405 -0.1013  0.1911
  266loPI   C4A 4250  16.836   0.381   9.491 -0.2115  0.1916 -0.0198
  266loPI   C5A 4251  16.983   0.373   9.120  0.0673 -0.1000 -0.0860
  266loPI   C6A 4252  17.011   0.155   8.817  0.1722  0.1855 -0.3412
  266loPI   C1B 4253  16.368   0.512  10.613  0.1457  0.0182 -0.1576
  266loPI   C2B 4254  16.372   0.450  10.183  0.0295 -0.1975  0.0610
  266loPI   C3B 4255  16.383   0.502   9.740 -0.0188  0.2064 -0.2057
  266loPI   C4B 4256  16.412   0.443   9.293 -0.2895  0.0952 -0.2588
  267loPI    C1 4257  15.799   0.698  11.497 -0.0728  0.3811 -0.0764
  267loPI    C2 4258  15.696   0.912  11.819 -0.3479 -0.0079  0.1025
  267loPI    C3 4259  15.627   0.518  11.811  0.2305 -0.1140 -0.1829
  267loPI   PO4 4260  15.765   0.899  11.339 -0.0125  0.1118 -0.0497
  267loPI   GL1 4261  15.532   0.914  10.966 -0.2638  0.1556  0.0075
  267loPI   GL2 4262  15.426   0.591  11.123  0.3650 -0.2269 -0.1254
  267loPI   C1A 4263  15.529   0.981  10.560 -0.3410  0.0132 -0.2497
  267loPI   C2A 4264  15.504   1.003  10.068  0.0723 -0.0213  0.3821
  267loPI   C3A 4265  15.642   0.996   9.643 -0.0141  0.2260 -0.1120
  267loPI   C4A 4266  15.597   0.915   9.222 -0.0928 -0.0076  0.1198
  267loPI   C5A 4267  15.819   0.563   8.951 -0.1032 -0.0804  0.3129
  267loPI   C6A 4268  16.163   0.558   8.800  0.1723  0.3943 -0.0322
  267loPI   C1B 4269  15.379   0.520  10.635 -0.0353 -0.0703 -0.0482
  267loPI   C2B 4270  15.442   0.510  10.109  0.0429  0.1212  0.0573
  267loPI   C3B 4271  15.707   0.431   9.707  0.0163  0.1954  0.0658
  267loPI   C4B 4272  15.963   0.531   9.416 -0.1836  0.3542  0.1338
  268loPI    C1 4273  14.669  12.435  11.928  0.1278 -0.1119 -0.0607
  268loPI    C2 4274  14.808  12.182  12.205 -0.2608 -0.2586  0.0065
  268loPI    C3 4275  14.652  12.533  12.315  0.0362 -0.1004 -0.0672
  268loPI   PO4 4276  14.567  12.265  11.723 -0.0559 -0.0546  0.0163
  268loPI   GL1 4277  14.618  12.350  11.316  0.1338 -0.0964 -0.0174
  268loPI   GL2 4278  14.221  12.309  11.201 -0.0037  0.0007 -0.1313
  268loPI   C1A 4279  14.821  12.313  10.939 -0.1275 -0.1249 -0.1608
  268loPI   C2A 4280  14.902  12.186  10.476 -0.0544  0.0707  0.0881
  268loPI   C3A 4281  14.900  12.215  10.017  0.1195  0.0161 -0.2010
  268loPI   C4A 4282  14.940  12.172   9.625 -0.2790 -0.0302  0.1765
  268loPI   C5A 4283  14.960  12.097   9.191 -0.0926 -0.3413  0.2260
  268loPI   C6A 4284  15.226  12.310   8.899 -0.1976 -0.0014 -0.0197
  268loPI   C1B 4285  14.385  12.266  10.769  0.1127  0.3981 -0.1828
  268loPI   C2B 4286  14.417  12.177  10.255 -0.2020  0.0835  0.0218
  268loPI   C3B 4287  14.423  12.185   9.821  0.2531  0.3968  0.2504
  268loPI   C4B 4288  14.404  12.282   9.442 -0.1650 -0.1006 -0.0146
  269loPI    C1 4289  15.770   3.623  11.598 -0.1451  0.2279  0.0854
  269loPI    C2 4290  15.514   3.511  11.883  0.0950 -0.0373  0.2022
  269loPI    C3 4291  15.904   3.539  11.966  0.1460  0.0444 -0.0587
  269loPI   PO4 4292  15.818   3.487  11.372 -0.0754 -0.3221  0.0435
  269loPI   GL1 4293  16.087   3.389  11.042 -0.1418 -0.1214 -0.1858
  269loPI   GL2 4294  15.881   3.170  10.845  0.0826 -0.2721  0.2568
  269loPI   C1A 4295  16.324   3.574  10.707  0.2855 -0.0142  0.1244
  269loPI   C2A 4296  16.322   3.649  10.231  0.3287 -0.0607 -0.0325
  269loPI   C3A 4297  16.302   3.612   9.811  0.1508 -0.1439  0.1135
  269loPI   C4A 4298  16.316   3.558   9.370 -0.0337  0.1267  0.0267
  269loPI   C5A 4299  16.090   3.588   8.938  0.0403  0.0280  0.0537
  269loPI   C6A 4300  16.168   3.656   8.494  0.0887 -0.1632  0.3018
  269loPI   C1B 4301  16.072   3.217  10.512  0.0915  0.0196  0.4657
  269loPI   C2B 4302  16.033   3.203  10.114 -0.1874 -0.3018 -0.2298
  269loPI   C3B 4303  16.024   3.181   9.766  0.0609 -0.0176  0.3044
  269loPI   C4B 4304  15.995   2.835   9.457 -0.3766  0.1627 -0.0523
  270loPI    C1 4305   8.106   6.363  11.802 -0.0596  0.0177 -0.1620
  270loPI    C2 4306   8.045   6.021  12.001  0.1555  0.0411 -0.0528
  270loPI    C3 4307   7.852   6.354  12.111 -0.0193 -0.0333 -0.1300
  270loPI   PO4 4308   8.210   6.304  11.577 -0.1911  0.1850 -0.2266
  270loPI   GL1 4309   8.292   6.382  11.150  0.4004 -0.0417  0.1334
  270loPI   GL2 4310   8.028   6.452  10.912  0.1050 -0.0576 -0.1368
  270loPI   C1A 4311   8.249   6.034  10.749 -0.0432  0.0969 -0.3220
  270loPI   C2A 4312   8.186   6.137  10.317 -0.1386 -0.2759 -0.2735
  270loPI   C3A 4313   8.156   6.155   9.898 -0.3204 -0.1462  0.0658
  270loPI   C4A 4314   8.206   6.288   9.475 -0.0917  0.1344  0.0539
  270loPI   C5A 4315   8.523   6.459   9.102  0.0722 -0.0453 -0.1819
  270loPI   C6A 4316   8.530   6.909   9.111 -0.2131  0.1271  0.0142
  270loPI   C1B 4317   8.054   6.544  10.557  0.1175  0.2138  0.0855
  270loPI   C2B 4318   7.961   6.572  10.149  0.2947 -0.2028  0.3980
  270loPI   C3B 4319   7.947   6.654   9.745 -0.0547 -0.0530  0.2922
  270loPI   C4B 4320   8.076   6.762   9.309  0.1222 -0.1037 -0.2402
  271loPI    C1 4321   1.304  11.746  11.505 -0.2120  0.1309  0.0371
  271loPI    C2 4322   1.244  12.072  11.728 -0.1135  0.0400  0.1989
  271loPI    C3 4323   1.074  11.725  11.831 -0.1455  0.0191  0.0777
  271loPI   PO4 4324   1.232  11.850  11.256  0.3365 -0.1352 -0.1724
  271loPI   GL1 4325   0.981  11.628  10.981 -0.2237 -0.5338  0.0628
  271loPI   GL2 4326   1.038  11.916  10.750  0.0546 -0.0846  0.4046
  271loPI   C1A 4327   0.755  11.458  10.742 -0.0165 -0.0691  0.0161
  271loPI   C2A 4328   0.723  11.358  10.325 -0.4019  0.2717 -0.0387
  271loPI   C3A 4329   0.641  11.378   9.931 -0.1620  0.2956 -0.0313
  271loPI   C4A 4330   0.571  11.336   9.433 -0.1973 -0.1866  0.2850
  271loPI   C5A 4331   0.740  11.371   9.033 -0.0235  0.1332  0.0594
  271loPI   C6A 4332   1.133  11.565   8.892  0.0256 -0.2766  0.1530
  271loPI   C1B 4333   1.037  11.759  10.252  0.1892  0.1047 -0.3548
  271loPI   C2B 4334   0.975  11.825   9.782 -0.0416 -0.0199  0.0941
  271loPI   C3B 4335   0.900  11.756   9.416 -0.1063  0.0693 -0.1364
  271loPI   C4B 4336   0.818  11.905   9.070 -0.1927 -0.0987  0.3277
  272loPI    C1 4337  10.178   4.044  11.498  0.2961  0.0352 -0.0406
  272loPI    C2 4338  10.215   4.407  11.660  0.1052  0.0335  0.0096
  272loPI    C3 4339  10.184   4.085  11.896  0.0230  0.0109 -0.0317
  272loPI   PO4 4340  10.070   4.061  11.340 -0.2773  0.0419  0.1148
  272loPI   GL1 4341  10.226   4.252  10.975 -0.0496  0.0657 -0.1805
  272loPI   GL2 4342  10.185   3.878  10.866 -0.0869  0.1540  0.0911
  272loPI   C1A 4343  10.166   4.466  10.645  0.2458 -0.2243 -0.0413
  272loPI   C2A 4344  10.088   4.504  10.296  0.0913  0.2497 -0.0630
  272loPI   C3A 4345  10.133   4.599   9.877 -0.0363  0.1786 -0.1460
  272loPI   C4A 4346  10.023   4.755   9.427  0.0542  0.1505  0.0497
  272loPI   C5A 4347   9.788   4.905   9.081 -0.1149 -0.0743  0.4342
  272loPI   C6A 4348   9.551   4.618   8.887  0.0912  0.1165 -0.0105
  272loPI   C1B 4349  10.075   3.951  10.413 -0.0876  0.0405 -0.1259
  272loPI   C2B 4350  10.341   4.158  10.068  0.0618 -0.3152  0.0828
  272loPI   C3B 4351  10.267   4.086   9.663  0.0797  0.1362 -0.0548
  272loPI   C4B 4352  10.336   3.952   9.203  0.3680 -0.0113  0.1949
  273loPI    C1 4353  16.927  15.105  11.596 -0.1017 -0.0317 -0.0186
  273loPI    C2 4354  17.071  14.841  11.332 -0.0818 -0.0115 -0.0279
  273loPI    C3 4355  17.052  14.746  11.720  0.1032  0.0436 -0.0047
  273loPI   PO4 4356  16.750  15.179  11.460  0.0385 -0.1873  0.0057
  273loPI   GL1 4357  16.739  15.589  11.154  0.1890  0.2274 -0.0094
  273loPI   GL2 4358  17.106  15.558  10.964  0.0564  0.1248 -0.3262
  273loPI   C1A 4359  16.739  15.826  10.685  0.3268  0.2348  0.0681
  273loPI   C2A 4360  16.882  15.788  10.182  0.1555 -0.0123 -0.2950
  273loPI   C3A 4361  16.728  15.728   9.804  0.0299  0.0195 -0.0829
  273loPI   C4A 4362  16.610  15.644   9.300 -0.1081  0.2520 -0.1274
  273loPI   C5A 4363  16.402  15.634   8.968  0.1849 -0.0663  0.0083
  273loPI   C6A 4364  16.314  15.406   8.578 -0.2092 -0.0597 -0.3464
  273loPI   C1B 4365  17.032  15.431  10.506  0.0902 -0.0497 -0.0360
  273loPI   C2B 4366  17.015  15.311  10.016 -0.0578 -0.1134 -0.1725
  273loPI   C3B 4367  16.849  15.224   9.644  0.0427 -0.0473 -0.1313
  273loPI   C4B 4368  16.929  15.216   9.272  0.0163 -0.1623  0.2377
  274loPI    C1 4369  13.031  11.848  11.768 -0.1845 -0.0179 -0.1600
  274loPI    C2 4370  12.814  12.180  11.720 -0.2184  0.0344  0.3102
  274loPI    C3 4371  12.655  11.862  11.903 -0.1004 -0.1517  0.0939
  274loPI   PO4 4372  13.077  11.847  11.441 -0.0334  0.1017 -0.2786
  274loPI   GL1 4373  12.850  11.623  11.286  0.0148 -0.0461  0.0644
  274loPI   GL2 4374  12.862  11.378  11.152  0.1705 -0.0089 -0.1713
  274loPI   C1A 4375  12.611  11.831  10.926  0.2843 -0.0930 -0.1917
  274loPI   C2A 4376  12.487  11.805  10.439  0.2353  0.1312  0.1321
  274loPI   C3A 4377  12.464  11.805  10.034 -0.1079 -0.0203  0.4781
  274loPI   C4A 4378  12.566  11.919   9.682  0.0494 -0.0941  0.0924
  274loPI   C5A 4379  12.644  11.847   9.251  0.0285 -0.2668 -0.1743
  274loPI   C6A 4380  12.718  12.198   8.945  0.1700  0.0267 -0.0666
  274loPI   C1B 4381  12.706  11.375  10.742  0.1379 -0.1141  0.0677
  274loPI   C2B 4382  12.683  11.351  10.388  0.0607 -0.0931  0.2415
  274loPI   C3B 4383  12.847  11.282  10.073  0.2005  0.1076 -0.0059
  274loPI   C4B 4384  12.797  11.466   9.750 -0.1381 -0.0238  0.1187
  275loPI    C1 4385  15.055  16.580  11.841  0.1669  0.0608 -0.1924
  275loPI    C2 4386  14.696  16.660  11.999  0.2184  0.1468 -0.1182
  275loPI    C3 4387  14.968  16.459  12.212  0.1526 -0.0735 -0.2391
  275loPI   PO4 4388  15.150  16.776  11.721 -0.0328  0.0189  0.0163
  275loPI   GL1 4389  15.194  16.789  11.250  0.1027 -0.1394  0.1324
  275loPI   GL2 4390  15.275  16.483  11.280 -0.1162  0.0482  0.1448
  275loPI   C1A 4391  15.293  16.742  10.841  0.3682 -0.2551 -0.1022
  275loPI   C2A 4392  15.322  16.744  10.370  0.1164 -0.1704  0.0634
  275loPI   C3A 4393  15.237  16.684   9.949  0.2021  0.2332 -0.0462
  275loPI   C4A 4394  15.342  16.521   9.440 -0.0198  0.1562  0.0469
  275loPI   C5A 4395  15.462  16.182   9.197 -0.1542 -0.1470  0.0703
  275loPI   C6A 4396  15.561  15.724   9.129 -0.0245  0.1633 -0.0348
  275loPI   C1B 4397  15.438  16.240  10.891  0.0735 -0.2310  0.1501
  275loPI   C2B 4398  15.525  16.325  10.536 -0.0345 -0.2114  0.0282
  275loPI   C3B 4399  15.546  16.251  10.077  0.0193 -0.0591  0.1749
  275loPI   C4B 4400  15.418  16.144   9.724  0.0634  0.3062 -0.0406
  276loPI    C1 4401  15.799  15.554  11.488 -0.0521  0.0129 -0.0215
  276loPI    C2 4402  16.008  15.894  11.470 -0.0859  0.0425  0.1354
  276loPI    C3 4403  15.700  15.861  11.723 -0.0423 -0.1269  0.1676
  276loPI   PO4 4404  15.897  15.416  11.326  0.0342 -0.1642  0.1315
  276loPI   GL1 4405  15.985  15.574  10.985  0.2336 -0.1714  0.1948
  276loPI   GL2 4406  16.260  15.754  11.042  0.2033  0.1140  0.0690
  276loPI   C1A 4407  15.995  15.399  10.626  0.2448  0.1379  0.1221
  276loPI   C2A 4408  15.955  15.390  10.170 -0.1871 -0.3492  0.0017
  276loPI   C3A 4409  15.897  15.306   9.737  0.0606 -0.0510  0.2131
  276loPI   C4A 4410  15.797  15.294   9.297  0.0748 -0.0751 -0.0007
  276loPI   C5A 4411  15.749  15.112   8.997  0.1048 -0.0513  0.0051
  276loPI   C6A 4412  15.572  14.905   8.625  0.0325  0.0730  0.1799
  276loPI   C1B 4413  16.248  15.848  10.577 -0.0768  0.1253  0.1091
  276loPI   C2B 4414  16.180  15.844  10.113 -0.1766 -0.0767 -0.0576
  276loPI   C3B 4415  16.187  15.693   9.751 -0.0379  0.0975  0.1941
  276loPI   C4B 4416  16.112  15.699   9.361  0.1107 -0.1710 -0.2388
  277loPI    C1 4417   7.358  16.382  11.053 -0.0550  0.1111  0.0391
  277loPI    C2 4418   7.541  16.736  11.081  0.1445 -0.0055  0.2427
  277loPI    C3 4419   7.272  16.627  11.357  0.0217  0.0209  0.1343
  277loPI   PO4 4420   7.259  16.321  10.804 -0.3005 -0.0515 -0.0439
  277loPI   GL1 4421   7.057  15.959  10.613 -0.0671  0.0926 -0.0300
  277loPI   GL2 4422   7.280  15.801  10.736 -0.0138  0.0573 -0.0801
  277loPI   C1A 4423   7.236  16.158  10.217  0.4296 -0.0050  0.2216
  277loPI   C2A 4424   7.333  16.139   9.867 -0.1282 -0.0533 -0.0056
  277loPI   C3A 4425   7.566  16.147   9.455  0.0210  0.1715  0.2091
  277loPI   C4A 4426   7.801  15.988   9.026  0.1993  0.2167 -0.3168
  277loPI   C5A 4427   8.068  16.209   8.838 -0.1298 -0.0732 -0.0595
  277loPI   C6A 4428   7.970  16.633   8.799  0.0488  0.0454 -0.0399
  277loPI   C1B 4429   7.675  15.874  10.357  0.1291 -0.1164  0.1781
  277loPI   C2B 4430   7.771  15.931   9.981 -0.1832 -0.1528 -0.0990
  277loPI   C3B 4431   7.945  15.785   9.603 -0.3318 -0.1652  0.1583
  277loPI   C4B 4432   8.155  15.687   9.177 -0.0764 -0.1256  0.0888
  278loPI    C1 4433  14.143  12.109  11.632  0.2199 -0.0519  0.2582
  278loPI    C2 4434  13.918  12.437  11.589  0.2494 -0.0657 -0.0146
  278loPI    C3 4435  14.108  12.369  11.934 -0.0385  0.0244  0.1655
  278loPI   PO4 4436  13.983  11.978  11.475  0.1925  0.0111  0.2920
  278loPI   GL1 4437  13.908  11.861  11.163 -0.0699  0.1257  0.0940
  278loPI   GL2 4438  14.181  11.749  11.023 -0.3499  0.0937  0.5389
  278loPI   C1A 4439  13.741  11.794  10.753  0.2938 -0.0827 -0.0137
  278loPI   C2A 4440  13.688  11.810  10.338 -0.0409 -0.0774 -0.0280
  278loPI   C3A 4441  13.597  11.794   9.869  0.2359  0.1683 -0.1472
  278loPI   C4A 4442  13.596  11.781   9.498  0.1041  0.1345  0.0658
  278loPI   C5A 4443  13.437  11.503   9.255 -0.6222  0.0291 -0.1732
  278loPI   C6A 4444  13.362  11.127   9.122 -0.0659  0.3040  0.0580
  278loPI   C1B 4445  14.171  11.681  10.526 -0.0264 -0.1695  0.2391
  278loPI   C2B 4446  14.176  11.719  10.067  0.2095  0.1107  0.3403
  278loPI   C3B 4447  14.153  11.705   9.655 -0.1277 -0.1752 -0.2795
  278loPI   C4B 4448  14.036  11.902   9.310  0.0249 -0.2978  0.1298
  279loPI    C1 4449   9.892  14.059  11.817  0.0313 -0.0030  0.0716
  279loPI    C2 4450   9.898  13.832  12.146 -0.0742 -0.1664 -0.0377
  279loPI    C3 4451   9.677  14.165  12.137  0.1022 -0.0422  0.1327
  279loPI   PO4 4452   9.796  13.971  11.589 -0.3865  0.1691 -0.1098
  279loPI   GL1 4453   9.413  14.158  11.431  0.2521  0.2473 -0.0307
  279loPI   GL2 4454   9.047  14.131  11.172 -0.2826  0.1609 -0.2974
  279loPI   C1A 4455   9.521  14.007  11.022  0.1836  0.0933  0.1572
  279loPI   C2A 4456   9.485  13.929  10.576  0.2086 -0.1704 -0.0344
  279loPI   C3A 4457   9.590  13.913  10.186 -0.0179  0.1570 -0.3020
  279loPI   C4A 4458   9.528  13.840   9.776  0.0950  0.0174  0.0555
  279loPI   C5A 4459   9.643  13.722   9.302  0.0914 -0.0363 -0.1796
  279loPI   C6A 4460   9.750  13.543   8.883  0.3651 -0.1155 -0.0363
  279loPI   C1B 4461   8.881  13.966  10.753 -0.1627  0.1081  0.4390
  279loPI   C2B 4462   8.938  13.933  10.291  0.2525  0.0405 -0.0903
  279loPI   C3B 4463   9.048  13.893   9.895  0.1349 -0.0530 -0.2224
  279loPI   C4B 4464   9.181  13.770   9.445 -0.1217 -0.0623  0.0840
  280loPI    C1 4465   3.566  15.177  11.167  0.0738  0.1321  0.1244
  280loPI    C2 4466   3.552  15.518  10.959 -0.2922 -0.1317 -0.3014
  280loPI    C3 4467   3.261  15.430  11.218  0.0119  0.0597  0.1160
  280loPI   PO4 4468   3.849  15.116  11.144  0.1700 -0.0116 -0.3486
  280loPI   GL1 4469   4.086  15.331  10.838 -0.3359  0.2252 -0.2190
  280loPI   GL2 4470   4.424  15.213  10.752  0.0928  0.1055 -0.0186
  280loPI   C1A 4471   3.745  15.307  10.533  0.3027  0.1813 -0.1339
  280loPI   C2A 4472   3.696  15.280  10.067 -0.1057  0.1081  0.1816
  280loPI   C3A 4473   3.742  15.282   9.745 -0.2417  0.0486  0.0066
  280loPI   C4A 4474   3.787  15.344   9.351  0.4885 -0.0048  0.1742
  280loPI   C5A 4475   4.051  15.408   9.110 -0.1035  0.0333  0.0568
  280loPI   C6A 4476   4.393  15.574   8.881 -0.0191 -0.0925  0.0763
  280loPI   C1B 4477   4.221  15.478  10.423 -0.1295  0.0732 -0.3553
  280loPI   C2B 4478   4.156  15.506  10.073  0.2151  0.0980  0.0655
  280loPI   C3B 4479   4.089  15.641   9.680  0.0478 -0.0464  0.1394
  280loPI   C4B 4480   4.049  15.903   9.330 -0.1800 -0.3131  0.2730
  281loPI    C1 4481   3.589   3.407  11.852 -0.0763 -0.2527  0.1613
  281loPI    C2 4482   3.730   3.124  12.096 -0.0940 -0.1078  0.3419
  281loPI    C3 4483   3.755   3.509  12.201  0.0865 -0.0280  0.0218
  281loPI   PO4 4484   3.655   3.335  11.656 -0.1076 -0.2402 -0.0388
  281loPI   GL1 4485   3.571   3.134  11.193 -0.0946  0.2189 -0.0793
  281loPI   GL2 4486   3.335   3.375  11.008  0.0369  0.0499  0.0317
  281loPI   C1A 4487   3.641   2.933  10.822  0.1466 -0.5750  0.0676
  281loPI   C2A 4488   3.714   2.960  10.446 -0.0653 -0.5750 -0.2325
  281loPI   C3A 4489   3.694   2.885   9.937  0.1613  0.3377  0.0213
  281loPI   C4A 4490   3.803   2.797   9.510 -0.0703 -0.1255 -0.0553
  281loPI   C5A 4491   3.842   3.019   9.135 -0.0671  0.0891 -0.2159
  281loPI   C6A 4492   3.820   3.382   8.885 -0.0175  0.2196  0.2892
  281loPI   C1B 4493   3.462   3.473  10.535 -0.0900  0.1795  0.4028
  281loPI   C2B 4494   3.520   3.399  10.104 -0.0442 -0.1416 -0.2863
  281loPI   C3B 4495   3.510   3.379   9.739  0.0021  0.2135 -0.3460
  281loPI   C4B 4496   3.402   3.302   9.340  0.0462  0.0368  0.1774
  282loPI    C1 4497  15.245   2.612  11.593  0.1024  0.1039  0.2422
  282loPI    C2 4498  15.615   2.659  11.738  0.1087  0.2479  0.1812
  282loPI    C3 4499  15.297   2.724  11.973  0.1217  0.0029  0.2698
  282loPI   PO4 4500  15.369   2.725  11.253 -0.1154  0.2341 -0.1842
  282loPI   GL1 4501  15.180   2.711  10.877 -0.0425  0.2681  0.1308
  282loPI   GL2 4502  15.355   3.107  10.847  0.0918  0.0478 -0.0958
  282loPI   C1A 4503  15.103   2.872  10.467  0.1294 -0.0934 -0.0879
  282loPI   C2A 4504  15.165   2.944   9.999  0.0704 -0.0616  0.0439
  282loPI   C3A 4505  15.126   2.724   9.583  0.0138 -0.1228 -0.1188
  282loPI   C4A 4506  15.018   2.668   9.218  0.1331 -0.3234  0.0856
  282loPI   C5A 4507  14.882   2.403   8.877 -0.1897  0.1246  0.1438
  282loPI   C6A 4508  14.684   2.079   8.563  0.4439 -0.0745 -0.2129
  282loPI   C1B 4509  15.564   3.153  10.426 -0.1178 -0.0932  0.1468
  282loPI   C2B 4510  15.562   3.282   9.988 -0.2825 -0.1532 -0.0200
  282loPI   C3B 4511  15.509   3.090   9.633 -0.0462 -0.4036  0.2971
  282loPI   C4B 4512  15.792   3.288   9.287 -0.1404 -0.0645 -0.2002
  283loPI    C1 4513  13.593  12.156  11.821 -0.0370 -0.0217 -0.0593
  283loPI    C2 4514  13.458  11.841  12.028 -0.0067 -0.0277 -0.0487
  283loPI    C3 4515  13.850  11.886  11.967 -0.0207 -0.0655 -0.1682
  283loPI   PO4 4516  13.488  12.121  11.588 -0.0251  0.1729 -0.1647
  283loPI   GL1 4517  13.649  12.290  11.208  0.1229  0.4087 -0.1296
  283loPI   GL2 4518  13.494  12.178  11.088 -0.1214  0.3528  0.1200
  283loPI   C1A 4519  13.904  12.397  10.821 -0.0717 -0.0219 -0.0608
  283loPI   C2A 4520  13.988  12.171  10.502  0.0053 -0.1477 -0.0228
  283loPI   C3A 4521  13.939  12.133  10.048 -0.2804  0.0304 -0.1718
  283loPI   C4A 4522  13.945  12.338   9.683  0.0117  0.2138  0.0482
  283loPI   C5A 4523  13.939  12.451   9.253 -0.3475  0.0493 -0.0762
  283loPI   C6A 4524  13.831  12.395   8.918 -0.3397  0.1342 -0.1773
  283loPI   C1B 4525  13.476  12.195  10.592  0.1889 -0.3361 -0.1531
  283loPI   C2B 4526  13.470  12.263  10.211 -0.2810 -0.0367 -0.2694
  283loPI   C3B 4527  13.426  12.275   9.764 -0.1218  0.0341  0.0367
  283loPI   C4B 4528  13.454  12.271   9.387 -0.0252  0.3507  0.0760
  284loPI    C1 4529   4.981   6.388  12.111  0.1182  0.0521 -0.0876
  284loPI    C2 4530   5.268   6.250  12.353  0.2253  0.0033 -0.2407
  284loPI    C3 4531   4.990   6.000  12.209  0.0191  0.0762  0.0205
  284loPI   PO4 4532   5.056   6.399  11.881 -0.1059 -0.1850 -0.0765
  284loPI   GL1 4533   5.022   6.357  11.444  0.1146  0.0136  0.0348
  284loPI   GL2 4534   5.117   6.671  11.249  0.0956  0.2868 -0.1669
  284loPI   C1A 4535   4.878   6.150  11.082 -0.0146 -0.2949  0.2412
  284loPI   C2A 4536   4.744   6.156  10.695  0.0766  0.0253 -0.1772
  284loPI   C3A 4537   4.742   6.067  10.335 -0.4891 -0.0373  0.0696
  284loPI   C4A 4538   4.825   5.978   9.837  0.4371  0.0374  0.0635
  284loPI   C5A 4539   4.881   6.003   9.370  0.0392  0.0994  0.0265
  284loPI   C6A 4540   5.197   6.045   8.937  0.1508  0.1684  0.1536
  284loPI   C1B 4541   5.115   6.569  10.874  0.1240 -0.0456 -0.3781
  284loPI   C2B 4542   5.150   6.499  10.508 -0.1570 -0.1803  0.2058
  284loPI   C3B 4543   4.975   6.448  10.089  0.1104 -0.1724  0.0602
  284loPI   C4B 4544   5.155   6.367   9.652  0.0273  0.0558 -0.1743
  285loPI    C1 4545   5.348   8.051  11.512  0.0570 -0.0935  0.0470
  285loPI    C2 4546   5.161   7.797  11.757  0.1682 -0.3272 -0.1069
  285loPI    C3 4547   5.325   8.131  11.903 -0.2206 -0.2010  0.0546
  285loPI   PO4 4548   5.311   7.923  11.263 -0.0282 -0.3247  0.0006
  285loPI   GL1 4549   5.446   7.994  10.882 -0.0269  0.2282 -0.0648
  285loPI   GL2 4550   5.203   8.257  10.824 -0.1279  0.1854  0.0248
  285loPI   C1A 4551   5.732   8.218  10.527  0.2775  0.2356 -0.1639
  285loPI   C2A 4552   5.759   8.184  10.099 -0.0857 -0.0962  0.3499
  285loPI   C3A 4553   5.719   8.139   9.578 -0.4414 -0.0385 -0.0496
  285loPI   C4A 4554   5.611   7.933   9.199  0.1738  0.2672  0.1366
  285loPI   C5A 4555   5.764   7.756   8.884  0.2463  0.2045  0.0570
  285loPI   C6A 4556   5.698   7.759   8.440 -0.1560  0.1623 -0.0533
  285loPI   C1B 4557   5.208   8.206  10.420  0.0291  0.1682  0.0135
  285loPI   C2B 4558   5.178   8.201  10.106  0.1933 -0.0622  0.1061
  285loPI   C3B 4559   5.268   8.219   9.716  0.0735 -0.3105 -0.3224
  285loPI   C4B 4560   5.327   8.282   9.293 -0.3394  0.2617  0.2079
  286loPI    C1 4561   5.374  12.020  11.427 -0.1599 -0.0738 -0.0302
  286loPI    C2 4562   5.708  11.811  11.359  0.0008  0.0880  0.2440
  286loPI    C3 4563   5.502  11.755  11.697 -0.1461  0.1256  0.1616
  286loPI   PO4 4564   5.502  12.304  11.283 -0.3628  0.2176 -0.2988
  286loPI   GL1 4565   5.500  12.431  10.902  0.0162 -0.0548 -0.1324
  286loPI   GL2 4566   5.688  12.489  10.710  0.1584  0.0059  0.0062
  286loPI   C1A 4567   5.229  12.377  10.481 -0.1704  0.0291 -0.0117
  286loPI   C2A 4568   5.280  12.475   9.971  0.1757  0.0124 -0.0436
  286loPI   C3A 4569   5.341  12.370   9.582 -0.0083  0.1479 -0.0952
  286loPI   C4A 4570   5.425  12.207   9.187 -0.0268  0.0660  0.3185
  286loPI   C5A 4571   5.570  11.757   8.996 -0.1407 -0.1457 -0.1603
  286loPI   C6A 4572   5.648  11.356   8.817  0.0149 -0.0423 -0.1974
  286loPI   C1B 4573   5.672  12.453  10.266  0.1153  0.2070 -0.0311
  286loPI   C2B 4574   5.731  12.396   9.911 -0.1382  0.1040 -0.0684
  286loPI   C3B 4575   5.810  12.290   9.535 -0.0177 -0.2859 -0.0253
  286loPI   C4B 4576   5.948  12.172   9.055  0.1650  0.0964 -0.1520
  287loPI    C1 4577   4.221  14.450  11.498 -0.1331 -0.0487  0.0509
  287loPI    C2 4578   3.954  14.310  11.761 -0.2648  0.1089  0.0030
  287loPI    C3 4579   4.289  14.485  11.890 -0.1595 -0.1328  0.0632
  287loPI   PO4 4580   4.232  14.300  11.281  0.0084 -0.1259 -0.1113
  287loPI   GL1 4581   4.170  14.238  10.942  0.0378 -0.1134  0.0564
  287loPI   GL2 4582   4.117  13.953  10.769 -0.0288 -0.3111  0.3159
  287loPI   C1A 4583   4.431  14.351  10.627  0.0691 -0.2297 -0.0904
  287loPI   C2A 4584   4.416  14.354  10.148  0.1199 -0.1914 -0.1339
  287loPI   C3A 4585   4.437  14.357   9.709  0.0726  0.0095  0.0892
  287loPI   C4A 4586   4.370  14.125   9.338  0.1192 -0.0641  0.2169
  287loPI   C5A 4587   4.393  14.165   8.840 -0.0582  0.4881 -0.0800
  287loPI   C6A 4588   4.321  14.315   8.495 -0.4095 -0.3513  0.0082
  287loPI   C1B 4589   4.078  14.044  10.305 -0.0636 -0.0199  0.2279
  287loPI   C2B 4590   4.174  14.002   9.890  0.0254  0.2286 -0.0474
  287loPI   C3B 4591   3.967  13.892   9.573 -0.1212 -0.0399  0.1621
  287loPI   C4B 4592   4.037  13.801   9.158  0.0893 -0.0477 -0.1922
  288loPI    C1 4593  10.503   6.834  12.031  0.4180  0.0143 -0.2521
  288loPI    C2 4594  10.493   7.200  11.870  0.0739  0.0629 -0.1282
  288loPI    C3 4595  10.667   7.143  12.225 -0.0436  0.1447 -0.0566
  288loPI   PO4 4596  10.590   6.713  11.756  0.2700 -0.3061  0.1198
  288loPI   GL1 4597  10.660   6.931  11.323  0.0867  0.0413 -0.0350
  288loPI   GL2 4598  10.891   6.708  11.210  0.0233  0.0748 -0.0303
  288loPI   C1A 4599  10.459   6.987  10.883 -0.1110  0.0484  0.2706
  288loPI   C2A 4600  10.520   6.966  10.460  0.3047 -0.2965  0.1646
  288loPI   C3A 4601  10.433   7.068  10.014  0.0326 -0.0133  0.2003
  288loPI   C4A 4602  10.304   7.023   9.618  0.0343  0.0981  0.0176
  288loPI   C5A 4603  10.439   7.104   9.209 -0.0123  0.3642 -0.0279
  288loPI   C6A 4604  10.210   7.142   8.820 -0.0041 -0.0364  0.1407
  288loPI   C1B 4605  11.021   6.892  10.772 -0.1890  0.0220  0.1275
  288loPI   C2B 4606  10.988   6.979  10.340  0.0585  0.0143 -0.0709
  288loPI   C3B 4607  10.960   7.015   9.894  0.2342 -0.0761 -0.0665
  288loPI   C4B 4608  10.930   7.030   9.450  0.3146  0.0026  0.0992
  289loPI    C1 4609   6.244  11.262  11.528 -0.2695  0.4168  0.0532
  289loPI    C2 4610   6.246  11.261  11.928  0.0665 -0.0316  0.0580
  289loPI    C3 4611   6.495  11.501  11.728  0.1208 -0.0354  0.1207
  289loPI   PO4 4612   6.256  11.012  11.470  0.0266 -0.2942  0.1623
  289loPI   GL1 4613   6.437  10.881  11.196 -0.4745  0.4130  0.0844
  289loPI   GL2 4614   6.632  10.541  11.079 -0.1729  0.0373 -0.0749
  289loPI   C1A 4615   6.489  10.914  10.783  0.3861 -0.0626  0.3012
  289loPI   C2A 4616   6.500  10.944  10.320 -0.0752 -0.2806  0.2014
  289loPI   C3A 4617   6.520  10.890   9.850 -0.1044 -0.0431  0.0884
  289loPI   C4A 4618   6.545  10.912   9.446  0.0461 -0.1988  0.0105
  289loPI   C5A 4619   6.627  11.066   8.976  0.1431 -0.1800 -0.0045
  289loPI   C6A 4620   6.519  11.197   8.568  0.2840 -0.3406  0.2269
  289loPI   C1B 4621   6.689  10.439  10.610  0.0851 -0.0357  0.1118
  289loPI   C2B 4622   6.812  10.360  10.188  0.0043  0.0620  0.1852
  289loPI   C3B 4623   6.733  10.449   9.735  0.2219  0.0864  0.2778
  289loPI   C4B 4624   6.576  10.319   9.333 -0.1349 -0.1885  0.1698
  290loPI    C1 4625   8.943  17.008  11.536 -0.0217  0.0939 -0.1674
  290loPI    C2 4626   8.670  17.221  11.737  0.1192  0.1208 -0.0025
  290loPI    C3 4627   9.030  17.154  11.898  0.1640 -0.0286 -0.1614
  290loPI   PO4 4628   8.953  17.138  11.312  0.4181  0.1106 -0.3264
  290loPI   GL1 4629   8.989  16.974  10.932  0.0907  0.0878  0.2323
  290loPI   GL2 4630   9.070  16.644  10.839 -0.1014 -0.0708  0.0583
  290loPI   C1A 4631   8.777  17.144  10.561 -0.1955 -0.0257  0.0017
  290loPI   C2A 4632   8.727  17.218  10.141  0.1918  0.3553 -0.3139
  290loPI   C3A 4633   8.752  17.449   9.746  0.2680  0.0831  0.0752
  290loPI   C4A 4634   8.811  17.381   9.241 -0.0714  0.2735  0.1113
  290loPI   C5A 4635   8.867  17.042   9.048 -0.1451 -0.1983 -0.0368
  290loPI   C6A 4636   9.182  16.846   9.201  0.1843 -0.1106  0.2220
  290loPI   C1B 4637   9.044  16.755  10.436  0.1858 -0.2224 -0.4174
  290loPI   C2B 4638   9.050  16.785  10.134 -0.0466 -0.2278 -0.1066
  290loPI   C3B 4639   9.170  16.576   9.715 -0.3795 -0.0623 -0.3701
  290loPI   C4B 4640   9.304  16.421   9.443  0.0668  0.3232  0.1583
  291loPI    C1 4641   4.760   7.747  11.499  0.1113 -0.2190 -0.0967
  291loPI    C2 4642   4.450   7.988  11.423  0.1772 -0.0886  0.0425
  291loPI    C3 4643   4.486   7.817  11.782  0.1898 -0.2193 -0.0203
  291loPI   PO4 4644   4.762   7.555  11.383  0.1432  0.0128 -0.2017
  291loPI   GL1 4645   4.711   7.513  10.967  0.0619 -0.3561 -0.1641
  291loPI   GL2 4646   5.061   7.581  10.976  0.0572  0.1659 -0.0522
  291loPI   C1A 4647   4.515   7.487  10.638  0.2076 -0.0196  0.0985
  291loPI   C2A 4648   4.549   7.449  10.164 -0.2631  0.1758  0.2272
  291loPI   C3A 4649   4.717   7.320   9.794 -0.0379 -0.3411 -0.1583
  291loPI   C4A 4650   4.511   7.331   9.417  0.2110 -0.1333  0.2498
  291loPI   C5A 4651   4.523   7.602   9.070 -0.0906 -0.0046 -0.2005
  291loPI   C6A 4652   4.763   7.810   8.888  0.0552 -0.1488 -0.0174
  291loPI   C1B 4653   5.018   7.745  10.557  0.2831 -0.3228 -0.0483
  291loPI   C2B 4654   4.967   7.649  10.171 -0.3695 -0.0487 -0.3068
  291loPI   C3B 4655   4.963   7.752   9.742 -0.0110 -0.1068  0.1263
  291loPI   C4B 4656   5.069   7.829   9.284  0.0810 -0.0385 -0.1013
  292loPI    C1 4657   9.382   4.133  11.470  0.0694  0.3174  0.2008
  292loPI    C2 4658   9.686   4.087  11.725  0.1805 -0.1883 -0.0102
  292loPI    C3 4659   9.319   3.965  11.827  0.1335  0.0184  0.0743
  292loPI   PO4 4660   9.448   4.045  11.240  0.0095 -0.1855 -0.2886
  292loPI   GL1 4661   9.694   4.198  10.968  0.1203 -0.0203 -0.0527
  292loPI   GL2 4662   9.358   4.276  10.747  0.3032  0.0813 -0.1693
  292loPI   C1A 4663   9.696   4.244  10.472 -0.3189 -0.2154  0.0666
  292loPI   C2A 4664   9.814   4.174  10.020  0.0711 -0.1380 -0.0133
  292loPI   C3A 4665   9.743   4.243   9.670  0.2077 -0.0381 -0.0648
  292loPI   C4A 4666   9.842   4.251   9.287 -0.1678 -0.2651  0.0859
  292loPI   C5A 4667  10.326   4.401   9.224 -0.1816 -0.2453 -0.4572
  292loPI   C6A 4668  10.656   4.323   9.520  0.0513  0.2389 -0.0502
  292loPI   C1B 4669   9.219   4.273  10.357  0.0420  0.2123  0.0410
  292loPI   C2B 4670   9.202   4.364  10.002 -0.0727  0.1932 -0.0837
  292loPI   C3B 4671   9.126   4.491   9.598  0.1722  0.0114  0.0353
  292loPI   C4B 4672   9.064   4.507   9.244 -0.0887  0.1261 -0.1781
  293loPI    C1 4673  14.174   7.965  12.096 -0.0680 -0.0797 -0.0141
  293loPI    C2 4674  13.999   7.619  11.998  0.1118 -0.1808  0.0192
  293loPI    C3 4675  14.388   7.627  12.093  0.1029  0.0269  0.0417
  293loPI   PO4 4676  14.086   8.115  11.882  0.1470 -0.1602  0.1450
  293loPI   GL1 4677  14.144   8.062  11.447 -0.0224 -0.1162 -0.2574
  293loPI   GL2 4678  14.319   8.013  11.252  0.1960  0.0164  0.2406
  293loPI   C1A 4679  13.890   8.202  11.028  0.0701  0.0911  0.1397
  293loPI   C2A 4680  13.822   8.127  10.615 -0.0225  0.0196  0.0546
  293loPI   C3A 4681  13.849   8.130  10.158 -0.0548  0.1157  0.0526
  293loPI   C4A 4682  13.864   8.083   9.754 -0.0266 -0.2189 -0.1482
  293loPI   C5A 4683  13.788   8.175   9.350 -0.0696 -0.2300 -0.0342
  293loPI   C6A 4684  13.329   8.138   9.090  0.0986 -0.1913 -0.1500
  293loPI   C1B 4685  14.360   8.177  10.817  0.3761 -0.1595  0.0434
  293loPI   C2B 4686  14.331   8.001  10.464 -0.2335  0.0154  0.1415
  293loPI   C3B 4687  14.373   8.042   9.970 -0.3917  0.0219  0.0334
  293loPI   C4B 4688  14.333   7.979   9.513  0.0729 -0.1159 -0.1175
  294loPI    C1 4689  13.550   7.452  11.554  0.2416 -0.3642 -0.1187
  294loPI    C2 4690  13.402   7.321  11.902  0.0348 -0.1615 -0.1279
  294loPI    C3 4691  13.275   7.161  11.558  0.0007 -0.1398 -0.1253
  294loPI   PO4 4692  13.776   7.562  11.506  0.0319 -0.2950  0.0126
  294loPI   GL1 4693  13.944   7.628  11.192 -0.1214 -0.2779 -0.1427
  294loPI   GL2 4694  13.859   7.375  11.037 -0.1480 -0.0964 -0.2545
  294loPI   C1A 4695  14.102   7.767  10.818 -0.2219  0.2172 -0.0807
  294loPI   C2A 4696  14.017   7.626  10.506  0.1654 -0.2310  0.0825
  294loPI   C3A 4697  14.056   7.645  10.056 -0.2216  0.2745 -0.3305
  294loPI   C4A 4698  13.995   7.585   9.686  0.4579  0.4407 -0.1791
  294loPI   C5A 4699  14.057   7.616   9.266  0.2082 -0.3219 -0.0185
  294loPI   C6A 4700  13.870   7.840   8.940 -0.0141 -0.1319  0.0090
  294loPI   C1B 4701  13.746   7.276  10.597  0.0272  0.2190  0.0143
  294loPI   C2B 4702  13.762   7.254  10.218  0.1773 -0.1533  0.3329
  294loPI   C3B 4703  13.799   7.180   9.851  0.2936  0.1803  0.0089
  294loPI   C4B 4704  13.782   7.202   9.409  0.1171 -0.0651 -0.0077
  295loPI    C1 4705  14.686  14.560  11.734  0.1170  0.0386  0.0150
  295loPI    C2 4706  14.639  14.171  11.654  0.1019  0.0016  0.1994
  295loPI    C3 4707  14.359  14.368  11.861  0.0858  0.1232  0.0629
  295loPI   PO4 4708  14.828  14.656  11.568  0.0599  0.2210  0.2941
  295loPI   GL1 4709  14.796  14.775  11.098  0.0956  0.3091  0.1063
  295loPI   GL2 4710  14.738  14.493  11.086  0.3093  0.0091  0.0987
  295loPI   C1A 4711  14.693  15.052  10.753 -0.4049 -0.0482 -0.0460
  295loPI   C2A 4712  14.555  14.982  10.362 -0.0044 -0.0900  0.0717
  295loPI   C3A 4713  14.550  14.959   9.868  0.0023 -0.1610  0.2175
  295loPI   C4A 4714  14.597  14.882   9.585 -0.1425 -0.0269 -0.1886
  295loPI   C5A 4715  14.560  14.775   9.148 -0.1053 -0.0068 -0.0934
  295loPI   C6A 4716  14.854  14.531   8.934 -0.0074 -0.0215  0.0283
  295loPI   C1B 4717  14.821  14.591  10.558 -0.0451  0.0276  0.1398
  295loPI   C2B 4718  14.745  14.541  10.210 -0.0330  0.0175 -0.0988
  295loPI   C3B 4719  14.858  14.513   9.798 -0.3243 -0.1303 -0.0469
  295loPI   C4B 4720  14.761  14.405   9.445  0.0135  0.0342 -0.0549
  296loPI    C1 4721  12.639   0.743  11.314 -0.2066 -0.1378  0.2000
  296loPI    C2 4722  12.941   0.749  11.577  0.0658  0.0173 -0.1095
  296loPI    C3 4723  12.606   0.954  11.652  0.2123  0.2079  0.0344
  296loPI   PO4 4724  12.545   0.450  11.247 -0.2463 -0.2390 -0.1237
  296loPI   GL1 4725  12.404   0.323  10.775  0.3123  0.0256 -0.3014
  296loPI   GL2 4726  12.670   0.074  10.810 -0.1649  0.1008  0.2390
  296loPI   C1A 4727  12.472   0.307  10.292  0.0805 -0.1044  0.3454
  296loPI   C2A 4728  12.423   0.349   9.750  0.2965 -0.2443  0.0488
  296loPI   C3A 4729  12.355   0.219   9.324 -0.0363 -0.2942  0.4050
  296loPI   C4A 4730  12.407  -0.012   8.966  0.1161 -0.0365  0.0601
  296loPI   C5A 4731  12.737  -0.256   8.700  0.1156  0.1680 -0.2417
  296loPI   C6A 4732  12.971  -0.587   8.923 -0.1348 -0.0814 -0.2137
  296loPI   C1B 4733  12.560  -0.117  10.493 -0.0691  0.1852 -0.1469
  296loPI   C2B 4734  12.563  -0.133  10.044 -0.0765 -0.2219  0.0680
  296loPI   C3B 4735  12.691  -0.203   9.596 -0.0611  0.2822  0.0353
  296loPI   C4B 4736  12.750  -0.298   9.234  0.1929 -0.1381  0.1309
  297loPI    C1 4737  16.235   0.978  11.834  0.0734 -0.1006  0.0847
  297loPI    C2 4738  16.087   0.627  11.954 -0.0183 -0.0242  0.1973
  297loPI    C3 4739  16.097   0.937  12.207  0.0106  0.0702  0.0813
  297loPI   PO4 4740  16.162   1.033  11.616  0.3034  0.2190 -0.1887
  297loPI   GL1 4741  16.216   1.042  11.231  0.1322  0.2227  0.1047
  297loPI   GL2 4742  16.181   1.332  11.173  0.0480 -0.2588 -0.2375
  297loPI   C1A 4743  16.116   0.949  10.792  0.1617  0.0124 -0.2460
  297loPI   C2A 4744  15.969   1.183  10.378  0.0417  0.1562  0.0140
  297loPI   C3A 4745  15.984   1.321   9.892  0.0874 -0.0485 -0.2917
  297loPI   C4A 4746  15.995   1.370   9.435 -0.1080  0.1232  0.1037
  297loPI   C5A 4747  15.854   1.436   8.987 -0.0391 -0.1677  0.2822
  297loPI   C6A 4748  16.002   1.566   8.670 -0.0696  0.2302  0.0327
  297loPI   C1B 4749  16.271   1.399  10.704 -0.0336 -0.0436 -0.2571
  297loPI   C2B 4750  16.483   1.488  10.343  0.2877  0.0827  0.0439
  297loPI   C3B 4751  16.526   1.407   9.890  0.0856 -0.0074  0.2311
  297loPI   C4B 4752  16.641   1.303   9.398  0.0773 -0.0776 -0.0358
  298loPI    C1 4753   4.612   2.464  11.632 -0.2798  0.0857 -0.0180
  298loPI    C2 4754   4.489   2.084  11.659  0.3263 -0.1246 -0.0519
  298loPI    C3 4755   4.572   2.292  11.991 -0.0470  0.0007 -0.0313
  298loPI   PO4 4756   4.701   2.507  11.353  0.1452 -0.0029 -0.1493
  298loPI   GL1 4757   4.776   2.415  10.960 -0.6162  0.0242 -0.0303
  298loPI   GL2 4758   4.444   2.373  10.940  0.1044 -0.2398  0.1230
  298loPI   C1A 4759   5.032   2.485  10.683  0.1352 -0.1646 -0.1685
  298loPI   C2A 4760   5.023   2.348  10.179 -0.2723 -0.1310  0.3729
  298loPI   C3A 4761   4.997   2.339   9.763  0.0808  0.2665  0.1607
  298loPI   C4A 4762   5.113   2.448   9.357  0.0730  0.3228  0.2627
  298loPI   C5A 4763   4.900   2.453   8.952  0.2687  0.2989  0.0289
  298loPI   C6A 4764   4.515   2.381   8.675 -0.1763 -0.4599 -0.3342
  298loPI   C1B 4765   4.562   2.338  10.459 -0.4745 -0.0419  0.0803
  298loPI   C2B 4766   4.521   2.461  10.037 -0.0931  0.2279  0.1161
  298loPI   C3B 4767   4.512   2.421   9.637 -0.1294  0.1248 -0.1192
  298loPI   C4B 4768   4.530   2.484   9.239  0.3174 -0.0417  0.0388
  299loPI    C1 4769   3.814   2.524  11.828 -0.1555 -0.0361  0.1149
  299loPI    C2 4770   4.059   2.291  12.042 -0.1103 -0.0079  0.0940
  299loPI    C3 4771   4.185   2.647  11.911 -0.1792  0.0283  0.1259
  299loPI   PO4 4772   3.665   2.420  11.707 -0.0424  0.1414 -0.0169
  299loPI   GL1 4773   3.652   2.383  11.208  0.0712  0.1942  0.1066
  299loPI   GL2 4774   3.709   2.619  11.250  0.2188  0.1154  0.2063
  299loPI   C1A 4775   3.423   2.526  10.834 -0.2722  0.1742  0.0074
  299loPI   C2A 4776   3.433   2.528  10.313 -0.1633 -0.1199 -0.1831
  299loPI   C3A 4777   3.484   2.455   9.861 -0.0841 -0.1295  0.0783
  299loPI   C4A 4778   3.417   2.414   9.491  0.1898  0.2478 -0.1435
  299loPI   C5A 4779   3.629   2.507   9.099  0.0886 -0.1465 -0.1507
  299loPI   C6A 4780   4.046   2.511   8.927 -0.0327  0.0288  0.2103
  299loPI   C1B 4781   3.945   2.546  10.794  0.0012 -0.3652  0.0409
  299loPI   C2B 4782   3.966   2.482  10.390 -0.2714  0.0026  0.1006
  299loPI   C3B 4783   4.051   2.436   9.873  0.0652  0.0306 -0.1666
  299loPI   C4B 4784   3.975   2.360   9.427  0.0480 -0.0066  0.0392
  300loPI    C1 4785  14.771   9.772  11.778 -0.1317  0.0064 -0.1079
  300loPI    C2 4786  14.687   9.709  12.164  0.0233 -0.2364 -0.1124
  300loPI    C3 4787  14.547  10.035  11.980  0.2301  0.0577  0.2382
  300loPI   PO4 4788  14.811   9.517  11.636  0.0610  0.0796  0.0412
  300loPI   GL1 4789  15.017   9.436  11.298 -0.1772  0.0430 -0.1096
  300loPI   GL2 4790  15.229   9.626  11.139  0.1021 -0.0557 -0.1847
  300loPI   C1A 4791  14.777   9.451  10.925 -0.1719 -0.0416 -0.0121
  300loPI   C2A 4792  14.691   9.437  10.535 -0.1390  0.2167 -0.1295
  300loPI   C3A 4793  14.685   9.421  10.247 -0.2849  0.1762 -0.0400
  300loPI   C4A 4794  14.622   9.327   9.744 -0.0625  0.1751  0.0256
  300loPI   C5A 4795  14.663   9.303   9.326  0.0633 -0.3207  0.0650
  300loPI   C6A 4796  14.730   9.600   9.002 -0.1074 -0.0889 -0.1096
  300loPI   C1B 4797  15.255   9.349  10.794  0.1730  0.1417  0.0922
  300loPI   C2B 4798  15.179   9.334  10.323 -0.1250  0.2800  0.1714
  300loPI   C3B 4799  15.137   9.382   9.848  0.0283  0.1952  0.2492
  300loPI   C4B 4800  15.121   9.266   9.404  0.0346  0.0289  0.0069
  301loPI    C1 4801   7.917  12.024  11.866 -0.0028  0.1845  0.0474
  301loPI    C2 4802   7.780  12.054  12.240  0.2747  0.0697  0.1608
  301loPI    C3 4803   8.151  11.921  12.173  0.2217  0.0743 -0.1570
  301loPI   PO4 4804   7.841  11.913  11.730 -0.2349 -0.0399 -0.2690
  301loPI   GL1 4805   7.885  11.795  11.361 -0.2267  0.1995 -0.2272
  301loPI   GL2 4806   8.217  11.643  11.287  0.1073 -0.1604  0.0980
  301loPI   C1A 4807   7.856  11.573  10.903 -0.2577  0.3071  0.2022
  301loPI   C2A 4808   8.121  11.674  10.521 -0.0700 -0.2771 -0.0073
  301loPI   C3A 4809   8.166  11.626  10.008 -0.2679  0.0423 -0.1965
  301loPI   C4A 4810   8.103  11.588   9.597  0.3578 -0.2128  0.2209
  301loPI   C5A 4811   7.982  11.523   9.192  0.4105 -0.6752  0.0150
  301loPI   C6A 4812   7.758  11.658   8.883 -0.2558 -0.2238 -0.0121
  301loPI   C1B 4813   8.308  11.307  10.889 -0.0088 -0.0981  0.2574
  301loPI   C2B 4814   8.294  11.201  10.504 -0.2955  0.0678  0.1475
  301loPI   C3B 4815   8.349  11.083  10.081  0.4130  0.2667 -0.0469
  301loPI   C4B 4816   8.253  11.155   9.699 -0.3356 -0.0471 -0.0939
  302loPI    C1 4817   5.951   4.620  11.711  0.0459 -0.2276  0.0061
  302loPI    C2 4818   5.624   4.830  11.613  0.0258 -0.3110 -0.1087
  302loPI    C3 4819   5.643   4.643  11.966  0.0735 -0.0584  0.0256
  302loPI   PO4 4820   5.948   4.473  11.454  0.0419 -0.2191 -0.0104
  302loPI   GL1 4821   5.689   4.493  11.095 -0.3215  0.1250 -0.1640
  302loPI   GL2 4822   5.486   4.797  11.081 -0.0185 -0.0100 -0.0033
  302loPI   C1A 4823   5.705   4.204  10.735  0.1057 -0.1254 -0.1482
  302loPI   C2A 4824   5.721   4.088  10.244 -0.0031  0.0898  0.0741
  302loPI   C3A 4825   5.695   4.058   9.747 -0.1706 -0.0818  0.1436
  302loPI   C4A 4826   5.587   3.806   9.371 -0.1649 -0.2504  0.2104
  302loPI   C5A 4827   5.385   3.447   9.219 -0.0524 -0.0519  0.0507
  302loPI   C6A 4828   5.349   3.213   8.877 -0.2036 -0.2929  0.4676
  302loPI   C1B 4829   5.440   4.670  10.561  0.0478  0.3299 -0.1597
  302loPI   C2B 4830   5.483   4.518  10.138 -0.1560  0.2683  0.2145
  302loPI   C3B 4831   5.462   4.558   9.739  0.2861  0.0594  0.3747
  302loPI   C4B 4832   5.598   4.466   9.358  0.0412 -0.1310  0.0293
  303loPI    C1 4833  13.756   4.345  11.308  0.1288 -0.1532  0.0350
  303loPI    C2 4834  13.681   4.695  11.488  0.0244 -0.2064  0.0962
  303loPI    C3 4835  13.824   4.388  11.700  0.2744 -0.1521  0.0101
  303loPI   PO4 4836  13.486   4.283  11.215  0.1589  0.1442  0.3722
  303loPI   GL1 4837  13.246   3.983  10.924 -0.0692  0.0617  0.1166
  303loPI   GL2 4838  13.002   3.717  10.800 -0.1371  0.1256 -0.0053
  303loPI   C1A 4839  13.393   3.988  10.464  0.0968 -0.0119 -0.2128
  303loPI   C2A 4840  13.434   4.049  10.071 -0.1882 -0.0217 -0.0271
  303loPI   C3A 4841  13.444   4.196   9.658 -0.0684 -0.3506  0.2426
  303loPI   C4A 4842  13.371   4.193   9.196  0.2753  0.3756  0.3079
  303loPI   C5A 4843  13.351   4.212   8.749 -0.2522  0.0509 -0.0987
  303loPI   C6A 4844  12.942   4.304   8.453  0.0323  0.0788  0.3103
  303loPI   C1B 4845  12.963   3.902  10.324  0.1630 -0.1094 -0.0272
  303loPI   C2B 4846  12.975   4.042   9.896 -0.0759  0.0579 -0.2381
  303loPI   C3B 4847  12.959   4.118   9.504 -0.1950  0.1304  0.4744
  303loPI   C4B 4848  12.892   4.168   9.002  0.1393  0.0859  0.1368
  304loPI    C1 4849   8.019   9.292  12.091 -0.0231  0.1368  0.0823
  304loPI    C2 4850   8.274   9.466  12.345 -0.0551  0.2967  0.0068
  304loPI    C3 4851   7.997   9.213  12.482  0.1488  0.1139  0.0882
  304loPI   PO4 4852   8.172   9.061  11.872  0.1577  0.2310  0.2568
  304loPI   GL1 4853   8.169   9.248  11.377 -0.0295  0.0132  0.2272
  304loPI   GL2 4854   7.979   8.996  11.291 -0.2088  0.1296  0.1428
  304loPI   C1A 4855   8.331   9.447  10.978 -0.0443  0.2040  0.3913
  304loPI   C2A 4856   8.302   9.479  10.558 -0.0100  0.0087  0.1782
  304loPI   C3A 4857   8.331   9.494  10.141 -0.2081  0.0743 -0.3391
  304loPI   C4A 4858   8.222   9.329   9.783  0.1825  0.1969 -0.0732
  304loPI   C5A 4859   8.283   9.331   9.286 -0.0768  0.0812 -0.0593
  304loPI   C6A 4860   8.192   9.540   8.906  0.1926 -0.2157 -0.0135
  304loPI   C1B 4861   8.043   9.000  10.778 -0.1947  0.0009  0.2038
  304loPI   C2B 4862   8.046   9.109  10.336  0.0575  0.0555  0.0262
  304loPI   C3B 4863   7.964   8.974   9.964  0.1800 -0.1068  0.3701
  304loPI   C4B 4864   7.984   8.971   9.492 -0.0143 -0.1802  0.0529
  305loPI    C1 4865  11.296   5.019  11.448 -0.0659  0.1899  0.0366
  305loPI    C2 4866  11.371   5.232  11.778 -0.2068  0.1459  0.0974
  305loPI    C3 4867  11.053   4.989  11.764 -0.0333 -0.0810  0.0382
  305loPI   PO4 4868  11.246   5.123  11.267 -0.1113 -0.0564  0.1188
  305loPI   GL1 4869  11.000   5.407  11.070 -0.1857 -0.1081  0.0571
  305loPI   GL2 4870  10.906   5.066  10.823  0.0008 -0.1375  0.0089
  305loPI   C1A 4871  10.784   5.606  10.719 -0.0109  0.3428  0.1566
  305loPI   C2A 4872  10.790   5.608  10.253 -0.0377  0.0310  0.2461
  305loPI   C3A 4873  10.647   5.681   9.763  0.0477 -0.2369 -0.2829
  305loPI   C4A 4874  10.498   5.662   9.323  0.1775  0.2201  0.3006
  305loPI   C5A 4875  10.430   5.550   8.988 -0.0814  0.1246 -0.1142
  305loPI   C6A 4876  10.595   5.286   8.612  0.1661  0.1390  0.0937
  305loPI   C1B 4877  11.224   5.332  10.511 -0.1192 -0.0767 -0.0407
  305loPI   C2B 4878  11.375   5.352  10.104  0.0209  0.3638  0.1929
  305loPI   C3B 4879  11.137   5.599   9.812 -0.0388 -0.0849  0.2451
  305loPI   C4B 4880  11.008   5.759   9.337  0.0570  0.1496 -0.2325
  306loPI    C1 4881   9.528  15.290  11.653  0.0729  0.1150  0.0794
  306loPI    C2 4882   9.311  15.301  11.989 -0.0347  0.0320  0.0134
  306loPI    C3 4883   9.376  14.952  11.804  0.0367  0.0754 -0.0440
  306loPI   PO4 4884   9.405  15.485  11.452  0.2998 -0.0422 -0.2391
  306loPI   GL1 4885   9.355  15.283  11.053 -0.0115 -0.1156  0.0649
  306loPI   GL2 4886   9.108  15.404  10.944 -0.0578  0.2858 -0.1675
  306loPI   C1A 4887   9.600  14.913  10.850  0.2709 -0.3390 -0.2904
  306loPI   C2A 4888   9.661  14.735  10.484 -0.0562  0.2148  0.0572
  306loPI   C3A 4889   9.640  14.780  10.138 -0.1135 -0.0678  0.1240
  306loPI   C4A 4890   9.690  14.739   9.741  0.2169  0.1193 -0.1405
  306loPI   C5A 4891   9.697  14.729   9.347 -0.3109  0.0895  0.1498
  306loPI   C6A 4892   9.694  14.536   8.964  0.2463  0.0815 -0.5686
  306loPI   C1B 4893   9.384  15.212  10.543  0.0597 -0.0126 -0.0212
  306loPI   C2B 4894   9.431  15.244  10.105  0.0681  0.0142  0.1984
  306loPI   C3B 4895   9.415  15.127   9.690  0.3085 -0.0604  0.1267
  306loPI   C4B 4896   9.418  15.165   9.248 -0.2663 -0.3488  0.0158
  307loPI    C1 4897  11.807   8.215  12.183 -0.0491 -0.0500  0.1205
  307loPI    C2 4898  12.042   7.966  12.389  0.0353  0.1401  0.2574
  307loPI    C3 4899  12.179   8.326  12.282 -0.1421  0.1924  0.2047
  307loPI   PO4 4900  11.740   8.134  11.948  0.0843  0.0868  0.0244
  307loPI   GL1 4901  11.743   8.148  11.513 -0.1045 -0.1252  0.2851
  307loPI   GL2 4902  12.122   8.066  11.424  0.0322  0.0861 -0.0460
  307loPI   C1A 4903  11.773   8.158  11.069 -0.1265  0.2947  0.2329
  307loPI   C2A 4904  11.811   8.236  10.627  0.2480 -0.0776 -0.0107
  307loPI   C3A 4905  11.747   8.309  10.236 -0.0243 -0.3826  0.1868
  307loPI   C4A 4906  11.784   8.246   9.788  0.2704 -0.1684  0.3062
  307loPI   C5A 4907  11.701   8.222   9.365 -0.1996 -0.0094  0.1081
  307loPI   C6A 4908  11.628   8.021   9.012  0.0833  0.0198  0.1466
  307loPI   C1B 4909  12.320   8.192  10.970 -0.3539 -0.4166 -0.0157
  307loPI   C2B 4910  12.302   8.255  10.500 -0.0829 -0.3432  0.0874
  307loPI   C3B 4911  12.305   8.200  10.031  0.4500  0.0484 -0.1000
  307loPI   C4B 4912  12.263   8.159   9.582 -0.0567 -0.2005  0.1982
  308loPI    C1 4913   0.499   6.631  12.068  0.0002  0.1131  0.3718
  308loPI    C2 4914   0.256   6.948  12.056 -0.1768 -0.0312 -0.1539
  308loPI    C3 4915   0.132   6.608  12.226 -0.2740 -0.0486 -0.2593
  308loPI   PO4 4916   0.562   6.562  11.813  0.1983  0.0139 -0.0503
  308loPI   GL1 4917   0.631   6.847  11.416  0.0091  0.0598 -0.1213
  308loPI   GL2 4918   0.453   7.006  11.494  0.1860  0.0866  0.0996
  308loPI   C1A 4919   0.767   6.787  11.089 -0.2292 -0.0806  0.2515
  308loPI   C2A 4920   0.780   6.795  10.725 -0.0527  0.0857 -0.0759
  308loPI   C3A 4921   0.804   6.711  10.243 -0.1048  0.1400  0.1202
  308loPI   C4A 4922   0.946   6.797   9.844  0.0490  0.2618  0.1503
  308loPI   C5A 4923   1.014   6.723   9.513 -0.0170 -0.1796  0.1684
  308loPI   C6A 4924   1.030   6.473   9.200  0.0968  0.2181  0.2486
  308loPI   C1B 4925   0.235   6.833  11.105  0.0469 -0.0739 -0.0446
  308loPI   C2B 4926   0.270   6.869  10.665  0.0812  0.0488  0.0355
  308loPI   C3B 4927   0.265   6.807  10.239  0.1065 -0.2919  0.1673
  308loPI   C4B 4928   0.331   6.881   9.886 -0.0052 -0.5431  0.0509
  309loPI    C1 4929   8.913  13.268  11.557  0.0870  0.1591  0.1082
  309loPI    C2 4930   8.813  12.991  11.828  0.0432  0.0905  0.0228
  309loPI    C3 4931   8.660  13.360  11.853 -0.0965  0.0353 -0.0075
  309loPI   PO4 4932   9.169  13.206  11.489 -0.0791 -0.0367 -0.1144
  309loPI   GL1 4933   9.413  13.192  11.159  0.0052  0.2505  0.0168
  309loPI   GL2 4934   9.481  13.503  10.986 -0.2715 -0.1202  0.0484
  309loPI   C1A 4935   9.424  13.060  10.694 -0.0601  0.0397  0.0252
  309loPI   C2A 4936   9.511  13.024  10.190 -0.0233 -0.0624  0.0253
  309loPI   C3A 4937   9.537  12.930   9.817  0.1284  0.2513  0.1328
  309loPI   C4A 4938   9.659  12.869   9.428 -0.0136 -0.0817  0.0922
  309loPI   C5A 4939   9.605  13.050   8.976  0.1385  0.0659  0.2960
  309loPI   C6A 4940   9.661  13.112   8.586  0.2269 -0.0194  0.2270
  309loPI   C1B 4941   9.635  13.485  10.561 -0.2600 -0.1222  0.1256
  309loPI   C2B 4942   9.778  13.446  10.247  0.4993  0.0198  0.2765
  309loPI   C3B 4943   9.783  13.429   9.830 -0.3032  0.0755  0.1430
  309loPI   C4B 4944   9.964  13.335   9.488  0.0860  0.0099 -0.1793
  310loPI    C1 4945   8.599   4.470  11.423 -0.1228 -0.0746 -0.0088
  310loPI    C2 4946   8.960   4.416  11.587 -0.1106  0.1228  0.0310
  310loPI    C3 4947   8.718   4.703  11.726 -0.2138  0.1046 -0.1097
  310loPI   PO4 4948   8.493   4.280  11.290 -0.0143  0.2248 -0.0342
  310loPI   GL1 4949   8.429   4.039  10.864 -0.1148 -0.3324 -0.0323
  310loPI   GL2 4950   8.545   4.324  10.745  0.1120  0.1525  0.1000
  310loPI   C1A 4951   8.348   3.909  10.414 -0.2205 -0.1828 -0.0271
  310loPI   C2A 4952   8.376   3.992   9.963  0.0561  0.0585  0.1165
  310loPI   C3A 4953   8.346   4.039   9.521 -0.1388 -0.1214 -0.1522
  310loPI   C4A 4954   8.398   4.175   9.071  0.1307  0.1376  0.2178
  310loPI   C5A 4955   8.814   4.157   8.808  0.0675 -0.2371 -0.3560
  310loPI   C6A 4956   9.142   4.505   8.704  0.2910  0.2205 -0.0558
  310loPI   C1B 4957   8.665   4.355  10.309  0.0649 -0.2585 -0.3329
  310loPI   C2B 4958   8.669   4.435   9.901 -0.0936 -0.0672  0.1278
  310loPI   C3B 4959   8.580   4.468   9.456  0.2246  0.0791 -0.0790
  310loPI   C4B 4960   8.628   4.618   9.011  0.2219  0.0914 -0.0327
  311loPI    C1 4961   8.716  11.336  11.658  0.2095 -0.0330 -0.0520
  311loPI    C2 4962   8.709  11.132  12.002  0.0808 -0.0096 -0.0401
  311loPI    C3 4963   8.842  11.509  11.996 -0.2874  0.1263  0.0605
  311loPI   PO4 4964   8.489  11.243  11.550  0.0161 -0.0781 -0.0716
  311loPI   GL1 4965   8.512  10.905  11.187 -0.2417 -0.0896  0.2532
  311loPI   GL2 4966   8.841  10.739  11.163 -0.1467 -0.1368 -0.0341
  311loPI   C1A 4967   8.523  10.843  10.759 -0.1898  0.1331 -0.0256
  311loPI   C2A 4968   8.546  10.712  10.373  0.3003 -0.3809 -0.1073
  311loPI   C3A 4969   8.557  10.684   9.890 -0.1317 -0.0627  0.1052
  311loPI   C4A 4970   8.660  10.823   9.432 -0.0912 -0.0009 -0.1413
  311loPI   C5A 4971   8.766  11.166   9.129 -0.4081  0.1816 -0.0082
  311loPI   C6A 4972   9.175  11.223   8.855 -0.0767 -0.2036 -0.0228
  311loPI   C1B 4973   9.064  10.753  10.769 -0.2335 -0.0022  0.0203
  311loPI   C2B 4974   9.038  10.741  10.241 -0.1012  0.1522  0.1371
  311loPI   C3B 4975   9.066  10.657   9.788 -0.1824  0.0140 -0.1517
  311loPI   C4B 4976   9.183  10.736   9.390 -0.1515  0.1592  0.0691
  312loPI    C1 4977   4.113   1.056  11.742  0.1289  0.2669 -0.1790
  312loPI    C2 4978   4.309   1.294  11.997 -0.1424  0.1052  0.1891
  312loPI    C3 4979   4.169   0.940  12.121 -0.2880  0.0274 -0.1845
  312loPI   PO4 4980   4.045   1.199  11.527 -0.2307  0.3274  0.1759
  312loPI   GL1 4981   4.011   1.162  11.071  0.1118 -0.2343  0.2084
  312loPI   GL2 4982   3.857   1.515  11.171  0.0723  0.0144  0.0728
  312loPI   C1A 4983   4.083   1.097  10.637 -0.3990  0.0325  0.1755
  312loPI   C2A 4984   4.100   1.157  10.191  0.0174  0.1965 -0.1740
  312loPI   C3A 4985   4.144   1.057   9.749  0.2350  0.1483 -0.1018
  312loPI   C4A 4986   4.182   1.177   9.354  0.0646  0.1691 -0.0124
  312loPI   C5A 4987   4.383   1.161   9.000 -0.0496  0.1705  0.2166
  312loPI   C6A 4988   4.629   1.455   8.878  0.0271 -0.2216  0.4105
  312loPI   C1B 4989   3.862   1.594  10.706 -0.0282  0.3197 -0.1209
  312loPI   C2B 4990   3.861   1.638  10.228 -0.0780 -0.0684 -0.1467
  312loPI   C3B 4991   3.798   1.508   9.887 -0.0121 -0.1151 -0.0646
  312loPI   C4B 4992   3.940   1.675   9.417 -0.1089  0.0494  0.1056
  313loPI    C1 4993  10.309  13.039  12.047  0.1406  0.2613 -0.2966
  313loPI    C2 4994  10.146  13.402  12.006  0.1118  0.2524 -0.2600
  313loPI    C3 4995  10.426  13.338  12.285 -0.1442  0.1582 -0.0194
  313loPI   PO4 4996  10.242  12.933  11.705  0.3550  0.0708  0.1739
  313loPI   GL1 4997  10.499  12.969  11.438  0.1700 -0.2482 -0.1163
  313loPI   GL2 4998  10.606  12.696  11.344  0.2416  0.0821 -0.0227
  313loPI   C1A 4999  10.478  13.020  10.990  0.0166 -0.1979 -0.2237
  313loPI   C2A 5000  10.508  12.989  10.589  0.1790  0.0134 -0.1820
  313loPI   C3A 5001  10.533  12.930  10.092 -0.0104 -0.0336  0.0124
  313loPI   C4A 5002  10.590  12.821   9.614 -0.0434 -0.0770  0.0444
  313loPI   C5A 5003  10.520  12.566   9.257 -0.2912 -0.1751 -0.0679
  313loPI   C6A 5004  10.605  12.514   8.809 -0.0050  0.0986  0.0141
  313loPI   C1B 5005  10.765  12.569  10.947  0.0789 -0.1819  0.1187
  313loPI   C2B 5006  10.766  12.596  10.513  0.1672 -0.3661  0.0104
  313loPI   C3B 5007  10.771  12.488  10.009  0.1345  0.0672  0.0809
  313loPI   C4B 5008  10.793  12.307   9.633  0.0545  0.0011  0.1138
  314loPI    C1 5009   3.193  13.183  11.794 -0.1288 -0.1053 -0.0347
  314loPI    C2 5010   3.572  13.086  11.713 -0.1107  0.0090 -0.0891
  314loPI    C3 5011   3.331  12.820  11.891 -0.0290 -0.0930 -0.1297
  314loPI   PO4 5012   3.080  13.256  11.504  0.0106  0.1907 -0.0619
  314loPI   GL1 5013   3.228  13.357  11.194 -0.0015  0.0012  0.0555
  314loPI   GL2 5014   3.453  13.109  11.244  0.1103  0.1429 -0.0823
  314loPI   C1A 5015   3.301  13.490  10.779 -0.2011  0.0664 -0.3900
  314loPI   C2A 5016   3.385  13.562  10.308  0.0264 -0.2804 -0.2669
  314loPI   C3A 5017   3.280  13.617   9.922  0.0038  0.1113 -0.0880
  314loPI   C4A 5018   3.148  13.575   9.469 -0.0179 -0.0260  0.0497
  314loPI   C5A 5019   3.090  13.618   9.004  0.0012 -0.3885  0.0321
  314loPI   C6A 5020   2.800  13.650   8.699  0.1177  0.1271 -0.0041
  314loPI   C1B 5021   3.471  13.007  10.789  0.2999  0.0026  0.0953
  314loPI   C2B 5022   3.484  13.118  10.410  0.0958  0.1874 -0.3160
  314loPI   C3B 5023   3.387  13.133  10.015  0.0806 -0.4055  0.0657
  314loPI   C4B 5024   3.297  13.100   9.631 -0.0812  0.3104  0.0801
  315loPI    C1 5025   5.788   6.162  11.646  0.0309  0.1408 -0.0740
  315loPI    C2 5026   5.501   6.441  11.639 -0.1852 -0.0708  0.1433
  315loPI    C3 5027   5.702   6.369  11.977  0.0990  0.0468  0.0029
  315loPI   PO4 5028   5.918   6.222  11.399  0.1052  0.2981  0.3522
  315loPI   GL1 5029   5.889   6.036  11.034  0.0184  0.3238  0.1223
  315loPI   GL2 5030   6.080   6.227  10.945 -0.0272 -0.0125  0.3141
  315loPI   C1A 5031   5.775   6.033  10.577 -0.1605 -0.0434 -0.1214
  315loPI   C2A 5032   5.732   6.032  10.264  0.0562 -0.2029  0.0894
  315loPI   C3A 5033   5.929   6.026   9.920 -0.0628 -0.0941 -0.0488
  315loPI   C4A 5034   5.845   5.891   9.594 -0.0394  0.1085 -0.1836
  315loPI   C5A 5035   5.961   5.680   9.330 -0.0775 -0.0379 -0.0085
  315loPI   C6A 5036   6.083   5.507   8.941 -0.1610 -0.2836  0.0105
  315loPI   C1B 5037   6.147   6.368  10.473 -0.1293 -0.0590  0.0605
  315loPI   C2B 5038   5.970   6.736  10.201 -0.1675  0.3034  0.4475
  315loPI   C3B 5039   5.898   6.717   9.843 -0.1616 -0.1443  0.1857
  315loPI   C4B 5040   5.877   6.733   9.369  0.0938  0.2185  0.1074
  316loPI    C1 5041   1.634  13.662  11.804  0.1759 -0.0986 -0.2964
  316loPI    C2 5042   1.926  13.722  12.070 -0.1079  0.0409 -0.0093
  316loPI    C3 5043   1.632  13.463  12.150 -0.2410  0.1462 -0.1504
  316loPI   PO4 5044   1.711  13.669  11.531  0.1957  0.3507 -0.1123
  316loPI   GL1 5045   1.710  13.629  11.069 -0.0632 -0.1985  0.0636
  316loPI   GL2 5046   1.413  13.730  11.050 -0.0565 -0.5460 -0.0495
  316loPI   C1A 5047   1.724  13.655  10.641 -0.0412 -0.0123 -0.0416
  316loPI   C2A 5048   1.649  13.695  10.207  0.2596  0.0402 -0.1396
  316loPI   C3A 5049   1.595  13.643   9.811 -0.0558 -0.0793 -0.0864
  316loPI   C4A 5050   1.540  13.708   9.328 -0.1250  0.1665 -0.1366
  316loPI   C5A 5051   1.156  13.657   9.047 -0.0961  0.0225  0.0528
  316loPI   C6A 5052   0.636  13.742   8.925  0.1387 -0.4637 -0.0274
  316loPI   C1B 5053   1.259  13.779  10.612 -0.2510 -0.0788  0.0197
  316loPI   C2B 5054   1.139  13.745  10.163  0.0794 -0.5353 -0.0182
  316loPI   C3B 5055   1.156  13.733   9.808  0.1669 -0.2725  0.1696
  316loPI   C4B 5056   0.895  13.803   9.407  0.2401  0.1324 -0.0854
  317loPI    C1 5057   9.693  16.556  11.643 -0.2402  0.0671  0.0022
  317loPI    C2 5058   9.362  16.758  11.741 -0.1440  0.1797  0.0989
  317loPI    C3 5059   9.591  16.598  12.028 -0.0672  0.1788  0.0372
  317loPI   PO4 5060   9.762  16.528  11.307 -0.0390 -0.0819 -0.0166
  317loPI   GL1 5061  10.090  16.627  11.039  0.0341  0.1236 -0.2783
  317loPI   GL2 5062  10.211  16.342  10.969  0.2704 -0.2667  0.1261
  317loPI   C1A 5063  10.100  16.703  10.629 -0.2358 -0.2381 -0.1385
  317loPI   C2A 5064  10.151  16.579  10.171 -0.0845 -0.0893 -0.0532
  317loPI   C3A 5065  10.242  16.527   9.731 -0.3541 -0.1201 -0.1726
  317loPI   C4A 5066  10.277  16.452   9.453 -0.3436  0.1673  0.1924
  317loPI   C5A 5067  10.133  16.396   9.111 -0.1645 -0.0008 -0.0714
  317loPI   C6A 5068  10.215  16.450   8.663 -0.0200  0.1551  0.0523
  317loPI   C1B 5069  10.389  16.143  10.526 -0.2003 -0.2944 -0.0565
  317loPI   C2B 5070  10.380  16.167  10.035 -0.0620  0.1457  0.2431
  317loPI   C3B 5071  10.557  16.037   9.748  0.3433 -0.0223  0.2964
  317loPI   C4B 5072  10.506  15.899   9.297 -0.0930 -0.1888  0.0912
  318loPI    C1 5073   8.997   8.772  11.925  0.2400  0.3261  0.1259
  318loPI    C2 5074   8.761   8.538  12.148  0.1868  0.1016 -0.1602
  318loPI    C3 5075   9.158   8.497  12.167  0.1751 -0.0694 -0.2686
  318loPI   PO4 5076   8.956   8.678  11.616  0.2017  0.1121  0.2067
  318loPI   GL1 5077   8.957   8.841  11.268  0.1341  0.0637 -0.0222
  318loPI   GL2 5078   8.959   9.194  11.150 -0.1208  0.0638  0.0587
  318loPI   C1A 5079   9.034   8.968  10.711  0.1933  0.3682 -0.1293
  318loPI   C2A 5080   9.129   8.987  10.331  0.3854  0.1228 -0.0262
  318loPI   C3A 5081   9.037   8.895   9.781 -0.0639  0.0546  0.0921
  318loPI   C4A 5082   9.101   8.906   9.339 -0.0646  0.1373 -0.0480
  318loPI   C5A 5083   9.474   8.909   8.927  0.0619  0.0028  0.1186
  318loPI   C6A 5084   9.895   9.004   8.932 -0.1930 -0.4668 -0.0002
  318loPI   C1B 5085   8.816   9.413  10.851  0.0283 -0.0955  0.0707
  318loPI   C2B 5086   8.796   9.441  10.353 -0.1693 -0.1334  0.2383
  318loPI   C3B 5087   8.897   9.350   9.972 -0.0185  0.0717  0.1103
  318loPI   C4B 5088   8.784   9.293   9.580  0.2930  0.1526  0.0549
  319loPI    C1 5089  11.982   2.636  11.515 -0.4629  0.1813 -0.1174
  319loPI    C2 5090  12.231   2.745  11.809 -0.2182  0.0825 -0.2847
  319loPI    C3 5091  11.864   2.615  11.897 -0.1959  0.1840 -0.0321
  319loPI   PO4 5092  12.044   2.799  11.354 -0.0111  0.0798  0.3300
  319loPI   GL1 5093  11.830   2.978  11.053 -0.1776  0.0839  0.2101
  319loPI   GL2 5094  11.476   3.031  11.028  0.1006  0.0725  0.0354
  319loPI   C1A 5095  11.881   3.113  10.662  0.3379  0.1090 -0.1139
  319loPI   C2A 5096  11.981   3.002  10.260  0.2728 -0.1931 -0.2330
  319loPI   C3A 5097  11.918   3.085   9.837 -0.0608 -0.0776  0.1524
  319loPI   C4A 5098  11.845   3.105   9.457  0.0222  0.2817 -0.1226
  319loPI   C5A 5099  11.785   3.123   9.087  0.0484  0.1401  0.1007
  319loPI   C6A 5100  11.667   3.485   8.836  0.3602 -0.3283  0.0791
  319loPI   C1B 5101  11.389   2.884  10.680 -0.2557  0.2088 -0.0687
  319loPI   C2B 5102  11.164   2.766  10.395 -0.1833 -0.3979  0.0584
  319loPI   C3B 5103  11.128   2.886   9.958 -0.1679  0.0241  0.0435
  319loPI   C4B 5104  11.044   2.858   9.513 -0.1827 -0.3278  0.0555
  320loPI    C1 5105  16.379  10.445  12.166  0.1496  0.1122  0.1485
  320loPI    C2 5106  16.033  10.643  12.197  0.1008  0.0509  0.0044
  320loPI    C3 5107  16.113  10.341  12.446  0.0283  0.0318  0.0048
  320loPI   PO4 5108  16.409  10.349  11.806  0.2496 -0.2148  0.2220
  320loPI   GL1 5109  16.434  10.439  11.344  0.1480  0.1908 -0.2348
  320loPI   GL2 5110  16.611  10.652  11.110 -0.0898  0.0738 -0.0758
  320loPI   C1A 5111  16.288  10.080  10.995 -0.0390  0.0636  0.0116
  320loPI   C2A 5112  16.463   9.864  10.668 -0.0765  0.2685 -0.0198
  320loPI   C3A 5113  16.410   9.846  10.188  0.1472 -0.2204  0.2454
  320loPI   C4A 5114  16.488   9.553   9.845  0.0171  0.0015 -0.2612
  320loPI   C5A 5115  16.502   9.616   9.401 -0.1009  0.0628 -0.1224
  320loPI   C6A 5116  16.530   9.833   9.070  0.0343 -0.1808 -0.1950
  320loPI   C1B 5117  16.512  10.489  10.725  0.2245  0.1206  0.0830
  320loPI   C2B 5118  16.462  10.344  10.296  0.0253 -0.2332 -0.2851
  320loPI   C3B 5119  16.414  10.285   9.937  0.0853  0.1739 -0.0450
  320loPI   C4B 5120  16.415  10.061   9.636  0.3515 -0.1320 -0.2889
  321loPI    C1 5121   6.470  12.700  11.437 -0.0174  0.1028  0.0418
  321loPI    C2 5122   6.163  12.845  11.649  0.0927  0.1779  0.1509
  321loPI    C3 5123   6.310  12.482  11.731 -0.1426  0.0267 -0.0816
  321loPI   PO4 5124   6.424  12.780  11.167 -0.0311  0.0433 -0.1734
  321loPI   GL1 5125   6.694  12.737  10.802  0.0789  0.0762  0.1468
  321loPI   GL2 5126   7.010  12.796  10.812  0.0926 -0.0796  0.4530
  321loPI   C1A 5127   6.640  12.448  10.536 -0.2468 -0.0418  0.3339
  321loPI   C2A 5128   6.653  12.340  10.084  0.1655 -0.1658 -0.2614
  321loPI   C3A 5129   6.937  12.223   9.747  0.1978  0.1848  0.0040
  321loPI   C4A 5130   6.969  12.177   9.319  0.1799 -0.4353 -0.1494
  321loPI   C5A 5131   6.970  11.978   8.960  0.0800 -0.0698 -0.0415
  321loPI   C6A 5132   6.869  11.879   8.522 -0.0190 -0.0352  0.2169
  321loPI   C1B 5133   7.044  12.698  10.319 -0.1227  0.0701 -0.0560
  321loPI   C2B 5134   7.215  12.621   9.922  0.1010  0.1069  0.1433
  321loPI   C3B 5135   7.167  12.645   9.435 -0.1633  0.0487  0.0229
  321loPI   C4B 5136   7.206  12.854   9.026 -0.1871 -0.2742 -0.0864
  322loPI    C1 5137   6.812  11.855  11.453  0.0184  0.0210  0.0324
  322loPI    C2 5138   6.946  11.863  11.830 -0.0728 -0.2710  0.0735
  322loPI    C3 5139   7.029  11.551  11.594 -0.2336 -0.2091 -0.0679
  322loPI   PO4 5140   6.992  12.121  11.279 -0.0837  0.0087 -0.2811
  322loPI   GL1 5141   6.955  12.270  10.820  0.1101  0.2064 -0.1565
  322loPI   GL2 5142   6.705  11.969  10.885  0.2766 -0.1121  0.1691
  322loPI   C1A 5143   7.141  12.261  10.500  0.1507  0.1599 -0.3036
  322loPI   C2A 5144   7.032  11.990  10.167 -0.0830 -0.0082 -0.1425
  322loPI   C3A 5145   7.206  11.737   9.832  0.1235 -0.2868  0.0816
  322loPI   C4A 5146   7.095  11.715   9.370  0.0212  0.1788  0.2828
  322loPI   C5A 5147   7.307  11.420   9.036  0.2309  0.1469 -0.0511
  322loPI   C6A 5148   7.415  11.379   8.568  0.1619 -0.2794 -0.0833
  322loPI   C1B 5149   6.568  11.926  10.402 -0.0142  0.3669  0.1853
  322loPI   C2B 5150   6.615  11.865   9.986  0.0264  0.0225  0.0060
  322loPI   C3B 5151   6.650  11.841   9.538  0.3111  0.2220  0.1225
  322loPI   C4B 5152   6.479  12.080   9.160  0.2095  0.2359  0.0591
  323loPI    C1 5153  15.525  10.216  11.758  0.2843 -0.1652 -0.1823
  323loPI    C2 5154  15.880  10.266  11.936  0.1411 -0.1075  0.0927
  323loPI    C3 5155  15.640  10.581  11.876  0.1232 -0.1505 -0.0673
  323loPI   PO4 5156  15.541  10.158  11.485  0.1871  0.1060 -0.2240
  323loPI   GL1 5157  15.246  10.167  11.169  0.0585  0.0772  0.2569
  323loPI   GL2 5158  15.419  10.444  10.984  0.2256  0.0200 -0.0599
  323loPI   C1A 5159  15.066  10.051  10.831 -0.0002  0.2612  0.1582
  323loPI   C2A 5160  14.981   9.868  10.403  0.0163 -0.2545  0.0774
  323loPI   C3A 5161  14.937   9.794   9.997  0.2501 -0.2682 -0.4024
  323loPI   C4A 5162  14.804   9.795   9.518  0.3826  0.0014  0.0245
  323loPI   C5A 5163  14.392   9.900   9.292 -0.0181  0.0188  0.2303
  323loPI   C6A 5164  13.943   9.808   9.196 -0.1967  0.0096 -0.0260
  323loPI   C1B 5165  15.315  10.331  10.474 -0.0512  0.0536  0.0551
  323loPI   C2B 5166  15.320  10.192  10.048 -0.0322 -0.0029 -0.0495
  323loPI   C3B 5167  15.362  10.226   9.653 -0.1487 -0.1685  0.0475
  323loPI   C4B 5168  15.150   9.968   9.270  0.0754 -0.1297 -0.0037
  324loPI    C1 5169   2.777  13.568  11.767 -0.1261 -0.0883 -0.0054
  324loPI    C2 5170   2.466  13.663  11.999 -0.1053 -0.1738  0.0579
  324loPI    C3 5171   2.824  13.825  12.070 -0.1152 -0.1441  0.0403
  324loPI   PO4 5172   2.585  13.550  11.531 -0.0551 -0.0295  0.0481
  324loPI   GL1 5173   2.695  13.592  11.125 -0.0411 -0.3333  0.2146
  324loPI   GL2 5174   2.816  13.683  10.865 -0.1496 -0.2130  0.1259
  324loPI   C1A 5175   2.521  13.292  10.991 -0.2301 -0.2410 -0.1151
  324loPI   C2A 5176   2.480  13.167  10.511 -0.1285 -0.0461 -0.2817
  324loPI   C3A 5177   2.388  13.150  10.041  0.2407  0.2579  0.0273
  324loPI   C4A 5178   2.265  13.202   9.663 -0.0729 -0.0379 -0.1656
  324loPI   C5A 5179   2.176  13.001   9.336  0.1068 -0.0735  0.0627
  324loPI   C6A 5180   2.275  12.855   8.927  0.0975 -0.1949  0.1607
  324loPI   C1B 5181   2.821  13.545  10.592 -0.1754  0.0148 -0.0587
  324loPI   C2B 5182   2.834  13.524  10.188  0.0709 -0.2166 -0.0372
  324loPI   C3B 5183   2.785  13.599   9.847  0.0876  0.3047  0.0108
  324loPI   C4B 5184   2.565  13.663   9.513  0.2245  0.0636  0.1888
  325loPI    C1 5185  14.814  17.035  11.487 -0.2376  0.1220 -0.1308
  325loPI    C2 5186  14.457  16.938  11.637 -0.0793 -0.1029  0.1100
  325loPI    C3 5187  14.696  17.189  11.837 -0.0091 -0.1323  0.0632
  325loPI   PO4 5188  14.760  17.111  11.210 -0.0652 -0.0547 -0.0494
  325loPI   GL1 5189  14.791  16.823  10.953  0.1012  0.4563 -0.0241
  325loPI   GL2 5190  14.482  16.709  11.008  0.0427 -0.0539 -0.0737
  325loPI   C1A 5191  14.811  16.805  10.507  0.0852  0.0650  0.0654
  325loPI   C2A 5192  14.671  16.774  10.110 -0.2098  0.1838 -0.1820
  325loPI   C3A 5193  14.733  16.639   9.739 -0.1659 -0.0848 -0.0859
  325loPI   C4A 5194  14.977  16.838   9.560  0.3167 -0.2211 -0.2610
  325loPI   C5A 5195  15.131  16.931   9.150 -0.0987  0.1895 -0.1010
  325loPI   C6A 5196  15.323  16.696   8.890 -0.0020 -0.1090  0.1958
  325loPI   C1B 5197  14.379  16.451  10.742 -0.0027  0.1101 -0.1226
  325loPI   C2B 5198  14.310  16.354  10.391 -0.3072  0.0153  0.1165
  325loPI   C3B 5199  14.439  16.262   9.948  0.0108  0.1903  0.0958
  325loPI   C4B 5200  14.425  16.075   9.552  0.2426 -0.1867  0.0161
  326loPI    C1 5201   6.226   6.085  11.870  0.1261  0.2575  0.0909
  326loPI    C2 5202   6.438   5.805  12.063  0.1641  0.0911 -0.1865
  326loPI    C3 5203   6.171   6.027  12.262 -0.0059 -0.2736  0.0026
  326loPI   PO4 5204   6.255   6.004  11.692  0.0252  0.0023  0.1437
  326loPI   GL1 5205   6.355   5.897  11.261 -0.0122 -0.1368  0.5138
  326loPI   GL2 5206   6.468   6.261  11.292 -0.0569  0.0103 -0.1350
  326loPI   C1A 5207   6.420   5.868  10.887  0.0189  0.2192  0.1155
  326loPI   C2A 5208   6.384   5.943  10.495  0.1171  0.1985  0.2764
  326loPI   C3A 5209   6.380   5.926  10.133 -0.1605 -0.2147 -0.2595
  326loPI   C4A 5210   6.414   5.888   9.703 -0.1783 -0.2486 -0.3197
  326loPI   C5A 5211   6.449   5.734   9.346 -0.1345  0.0854 -0.0242
  326loPI   C6A 5212   6.483   5.769   8.858 -0.1344  0.1195 -0.4016
  326loPI   C1B 5213   6.586   6.324  10.818 -0.0641  0.1641  0.1676
  326loPI   C2B 5214   6.619   6.323  10.360  0.1339  0.0545  0.1055
  326loPI   C3B 5215   6.588   6.373   9.981  0.2069  0.3033  0.0527
  326loPI   C4B 5216   6.673   6.324   9.477  0.2621 -0.0968 -0.2132
  327loPI    C1 5217   0.810  14.364  11.657  0.2739 -0.0332 -0.1794
  327loPI    C2 5218   1.106  14.276  11.911  0.1490 -0.4131 -0.1598
  327loPI    C3 5219   0.753  14.402  12.051  0.2695 -0.0445 -0.1788
  327loPI   PO4 5220   0.930  14.470  11.375 -0.1555  0.4261  0.0118
  327loPI   GL1 5221   1.037  14.187  11.038  0.0565 -0.1424 -0.0482
  327loPI   GL2 5222   1.262  14.402  10.964 -0.5037  0.0515 -0.3267
  327loPI   C1A 5223   0.965  14.337  10.518  0.0090  0.1194  0.0537
  327loPI   C2A 5224   1.026  14.255  10.108  0.0715 -0.0820  0.1888
  327loPI   C3A 5225   0.723  14.272   9.675 -0.0797  0.2738  0.0756
  327loPI   C4A 5226   0.601  14.175   9.244 -0.1181  0.0783 -0.3185
  327loPI   C5A 5227   0.707  14.511   8.958  0.2634 -0.1113 -0.3778
  327loPI   C6A 5228   0.905  14.955   8.892 -0.3595 -0.0015  0.1432
  327loPI   C1B 5229   1.487  14.259  10.583 -0.0171 -0.3714  0.0969
  327loPI   C2B 5230   1.527  14.130  10.050  0.0997 -0.1887 -0.0739
  327loPI   C3B 5231   1.250  14.185   9.664 -0.0416 -0.0736 -0.1147
  327loPI   C4B 5232   1.154  14.181   9.219  0.1527  0.1494  0.0769
  328loPI    C1 5233   5.822   9.295  11.502  0.0736  0.1323 -0.1339
  328loPI    C2 5234   5.915   9.453  11.858 -0.0801  0.0190 -0.0421
  328loPI    C3 5235   5.727   9.100  11.838  0.2388 -0.1442 -0.2441
  328loPI   PO4 5236   6.052   9.301  11.352 -0.2404  0.0819  0.1680
  328loPI   GL1 5237   6.083   9.607  10.979 -0.1192 -0.0569 -0.1737
  328loPI   GL2 5238   6.396   9.564  11.079 -0.0399 -0.1615 -0.3929
  328loPI   C1A 5239   6.154   9.570  10.544  0.2268  0.0048  0.0908
  328loPI   C2A 5240   6.203   9.585  10.091 -0.0580 -0.2534 -0.1286
  328loPI   C3A 5241   6.128   9.560   9.772  0.2763  0.0660 -0.2182
  328loPI   C4A 5242   6.367   9.630   9.354  0.3386  0.1302  0.2561
  328loPI   C5A 5243   6.733   9.460   9.180 -0.1627  0.0607  0.1747
  328loPI   C6A 5244   6.901   9.081   9.251  0.0541 -0.1201 -0.1294
  328loPI   C1B 5245   6.606   9.563  10.760  0.1294  0.3832  0.0777
  328loPI   C2B 5246   6.802   9.487  10.385 -0.1183 -0.0285 -0.2298
  328loPI   C3B 5247   6.687   9.460  10.026  0.1315 -0.0021  0.0582
  328loPI   C4B 5248   6.756   9.504   9.697  0.2561 -0.3779  0.1301
  329loPI    C1 5249  10.608  16.612  11.452  0.1319 -0.2159  0.1194
  329loPI    C2 5250  10.230  16.676  11.566  0.0748 -0.0946 -0.1303
  329loPI    C3 5251  10.532  16.830  11.779 -0.0255  0.0389 -0.0833
  329loPI   PO4 5252  10.625  16.331  11.325 -0.0108  0.3490 -0.0523
  329loPI   GL1 5253  10.947  16.253  11.079  0.0828 -0.2101  0.1003
  329loPI   GL2 5254  11.018  16.547  11.036  0.0114  0.0424 -0.2489
  329loPI   C1A 5255  10.861  16.144  10.645 -0.0728 -0.3831  0.1157
  329loPI   C2A 5256  10.916  16.078  10.189  0.1047  0.0213  0.0100
  329loPI   C3A 5257  11.064  16.065   9.785 -0.0808 -0.3095 -0.1161
  329loPI   C4A 5258  11.057  16.053   9.374 -0.1530  0.1505 -0.0693
  329loPI   C5A 5259  11.023  15.948   8.966  0.2324  0.0458  0.0899
  329loPI   C6A 5260  10.693  15.694   8.777  0.2313 -0.1773 -0.0175
  329loPI   C1B 5261  11.053  16.636  10.623 -0.1360  0.1275  0.1009
  329loPI   C2B 5262  11.228  16.448  10.336 -0.0672 -0.0212 -0.0184
  329loPI   C3B 5263  11.310  16.499   9.887 -0.0647 -0.0576 -0.1459
  329loPI   C4B 5264  11.362  16.415   9.520  0.0396  0.0595  0.1663
  330loPI    C1 5265   1.113   2.048  11.736  0.0694 -0.2049  0.1763
  330loPI    C2 5266   1.476   2.042  11.905  0.1064 -0.0814  0.1025
  330loPI    C3 5267   1.224   2.342  11.983  0.1376 -0.0039 -0.0893
  330loPI   PO4 5268   1.173   2.023  11.453 -0.2511 -0.1409 -0.4364
  330loPI   GL1 5269   1.286   1.867  11.112 -0.1174 -0.1327 -0.0167
  330loPI   GL2 5270   1.402   2.218  11.005 -0.2052  0.2404 -0.1670
  330loPI   C1A 5271   1.152   1.822  10.669 -0.0259 -0.0480 -0.0871
  330loPI   C2A 5272   1.283   1.775  10.307  0.1145 -0.0336 -0.0039
  330loPI   C3A 5273   1.239   1.785   9.862 -0.1160  0.1612  0.1130
  330loPI   C4A 5274   1.279   1.723   9.403 -0.1094  0.1497  0.0815
  330loPI   C5A 5275   1.146   1.836   8.956 -0.2535  0.0240 -0.2110
  330loPI   C6A 5276   1.059   1.661   8.632  0.0972  0.2831 -0.0511
  330loPI   C1B 5277   1.523   2.263  10.538  0.3607  0.0994  0.1217
  330loPI   C2B 5278   1.409   2.223  10.047 -0.0118  0.0431  0.5165
  330loPI   C3B 5279   1.611   2.130   9.680 -0.2036 -0.0444 -0.0939
  330loPI   C4B 5280   1.601   2.044   9.177 -0.0164  0.1115 -0.0794
  331loPI    C1 5281   9.601   2.779  11.566  0.2511 -0.1613  0.0171
  331loPI    C2 5282   9.358   3.077  11.675  0.2743 -0.0955 -0.1095
  331loPI    C3 5283   9.701   3.016  11.872  0.2522 -0.0617 -0.0601
  331loPI   PO4 5284   9.634   2.774  11.282 -0.1586 -0.0483 -0.2041
  331loPI   GL1 5285   9.732   2.607  10.958  0.2351  0.1607  0.2399
  331loPI   GL2 5286   9.679   2.267  10.914 -0.1656  0.0667 -0.0101
  331loPI   C1A 5287   9.851   2.732  10.583 -0.0806 -0.1682  0.0837
  331loPI   C2A 5288   9.820   2.779  10.123 -0.1085 -0.1964  0.1077
  331loPI   C3A 5289   9.833   2.948   9.773 -0.1563 -0.2464  0.0361
  331loPI   C4A 5290   9.711   2.786   9.389 -0.1189 -0.2237 -0.0665
  331loPI   C5A 5291   9.929   2.578   9.025  0.0700 -0.0143  0.1686
  331loPI   C6A 5292  10.356   2.577   9.008  0.3208  0.0967 -0.5509
  331loPI   C1B 5293   9.540   2.347  10.564  0.1761 -0.1293 -0.1553
  331loPI   C2B 5294   9.585   2.339  10.159 -0.2007 -0.4076  0.0808
  331loPI   C3B 5295   9.735   2.373   9.829 -0.0911  0.0133  0.0874
  331loPI   C4B 5296   9.891   2.359   9.461  0.0622  0.0533 -0.0273
  332loPI    C1 5297   4.331  16.418  11.404  0.0789  0.0328 -0.1172
  332loPI    C2 5298   4.612  16.656  11.247  0.1629  0.2400  0.3320
  332loPI    C3 5299   4.241  16.795  11.307  0.0047  0.0204 -0.0968
  332loPI   PO4 5300   4.250  16.245  11.222  0.0138 -0.1863 -0.0976
  332loPI   GL1 5301   4.002  16.161  10.830 -0.3715 -0.0256  0.1757
  332loPI   GL2 5302   4.282  16.053  10.696  0.1238  0.0002 -0.1945
  332loPI   C1A 5303   3.968  16.357  10.510 -0.0411  0.0478 -0.2664
  332loPI   C2A 5304   3.937  16.425  10.037  0.2613 -0.0375 -0.0310
  332loPI   C3A 5305   3.895  16.309   9.634 -0.0834  0.0380  0.1662
  332loPI   C4A 5306   3.890  16.348   9.188  0.1533 -0.0106  0.0444
  332loPI   C5A 5307   3.977  16.494   8.836  0.0153  0.1188 -0.1286
  332loPI   C6A 5308   3.945  16.486   8.374 -0.1437  0.0247  0.2609
  332loPI   C1B 5309   4.258  15.982  10.275  0.0900  0.0783 -0.0778
  332loPI   C2B 5310   4.284  16.098   9.891  0.1470 -0.3964  0.1163
  332loPI   C3B 5311   4.426  16.352   9.501  0.0788 -0.0415 -0.2789
  332loPI   C4B 5312   4.403  16.332   9.104  0.1440 -0.1158  0.4537
  333loPI    C1 5313  14.178   6.830  11.983  0.0224  0.0032 -0.0861
  333loPI    C2 5314  14.451   7.116  12.042  0.1954 -0.1579 -0.0966
  333loPI    C3 5315  14.416   6.815  12.304  0.0365 -0.1459 -0.1028
  333loPI   PO4 5316  14.185   6.876  11.671 -0.1733  0.0247 -0.1728
  333loPI   GL1 5317  14.283   7.068  11.248  0.1356 -0.1073 -0.2567
  333loPI   GL2 5318  14.288   6.817  11.181  0.1386 -0.3237 -0.0984
  333loPI   C1A 5319  14.259   7.257  10.790 -0.0240  0.1093 -0.0974
  333loPI   C2A 5320  14.284   7.236  10.353 -0.0258 -0.0026  0.0396
  333loPI   C3A 5321  14.284   7.213   9.899  0.0704  0.0052 -0.3102
  333loPI   C4A 5322  14.283   7.203   9.451  0.0392 -0.0762 -0.1956
  333loPI   C5A 5323  14.420   7.231   9.135 -0.2674 -0.0333  0.1324
  333loPI   C6A 5324  14.831   7.423   8.973  0.2240  0.1586 -0.1650
  333loPI   C1B 5325  14.501   6.828  10.761  0.1568  0.0085 -0.3833
  333loPI   C2B 5326  14.587   6.851  10.364 -0.0231  0.1131  0.2815
  333loPI   C3B 5327  14.541   6.736   9.972 -0.2514 -0.1191 -0.0204
  333loPI   C4B 5328  14.501   6.762   9.387  0.1348 -0.0506 -0.3081
  334loPI    C1 5329  10.733  15.572  11.835 -0.0634 -0.0264 -0.0793
  334loPI    C2 5330  10.399  15.791  11.858  0.0980  0.2248 -0.1037
  334loPI    C3 5331  10.687  15.834  12.133 -0.1012 -0.3564  0.2122
  334loPI   PO4 5332  10.812  15.558  11.603 -0.1112  0.1968 -0.3804
  334loPI   GL1 5333  10.895  15.763  11.242  0.0359 -0.1149 -0.1186
  334loPI   GL2 5334  11.194  15.682  11.099 -0.1422  0.0009 -0.0343
  334loPI   C1A 5335  10.594  15.773  10.819  0.0655 -0.1877 -0.1115
  334loPI   C2A 5336  10.641  15.655  10.428  0.0169 -0.1180  0.1737
  334loPI   C3A 5337  10.772  15.588   9.948  0.3775  0.1084  0.0012
  334loPI   C4A 5338  10.792  15.556   9.404 -0.1208 -0.0327 -0.1836
  334loPI   C5A 5339  11.002  15.340   9.075  0.0473 -0.0508 -0.0076
  334loPI   C6A 5340  10.867  15.262   8.613  0.0572  0.0926 -0.0166
  334loPI   C1B 5341  11.076  15.699  10.664  0.1981 -0.1369  0.2405
  334loPI   C2B 5342  11.262  15.643  10.183 -0.0177  0.1602  0.0595
  334loPI   C3B 5343  11.208  15.583   9.764 -0.0473  0.0430  0.2402
  334loPI   C4B 5344  11.310  15.593   9.348 -0.1490  0.3828 -0.5759
  335loPI    C1 5345  11.749   6.278  11.523 -0.1343 -0.2314  0.1069
  335loPI    C2 5346  11.907   6.159  11.870  0.0455 -0.0669  0.0834
  335loPI    C3 5347  12.104   6.419  11.640 -0.2577  0.1380  0.0493
  335loPI   PO4 5348  11.521   6.137  11.541  0.0544 -0.0883 -0.1414
  335loPI   GL1 5349  11.208   6.262  11.308 -0.0047  0.3791  0.1035
  335loPI   GL2 5350  11.029   5.939  11.182 -0.1423 -0.0566  0.0210
  335loPI   C1A 5351  11.203   6.351  10.908  0.2720 -0.0724  0.0468
  335loPI   C2A 5352  11.218   6.500  10.565  0.1531 -0.0591  0.1857
  335loPI   C3A 5353  11.146   6.478  10.077  0.1373  0.0097 -0.4001
  335loPI   C4A 5354  11.068   6.572   9.634 -0.2165 -0.2786 -0.0454
  335loPI   C5A 5355  11.226   6.583   9.252  0.0301  0.2471 -0.0109
  335loPI   C6A 5356  11.299   6.575   8.801  0.0125 -0.3413  0.1656
  335loPI   C1B 5357  10.846   6.080  10.733 -0.1891 -0.3424  0.0294
  335loPI   C2B 5358  10.872   6.091  10.297  0.1423 -0.1465 -0.1695
  335loPI   C3B 5359  10.855   6.150   9.844  0.0974 -0.0307 -0.0042
  335loPI   C4B 5360  10.883   6.207   9.364 -0.0222 -0.1726  0.2160
  336loPI    C1 5361   1.293  15.867  11.386 -0.0870  0.1252  0.0086
  336loPI    C2 5362   0.895  15.891  11.355 -0.1093 -0.2626 -0.0495
  336loPI    C3 5363   1.067  15.865  11.716 -0.1449 -0.2264 -0.0298
  336loPI   PO4 5364   1.377  15.960  11.123  0.3003 -0.1020  0.0709
  336loPI   GL1 5365   1.703  15.732  10.975 -0.0609 -0.0718 -0.1833
  336loPI   GL2 5366   1.634  15.923  10.668 -0.3622  0.2704  0.1445
  336loPI   C1A 5367   1.414  15.496  10.732  0.1265  0.2640  0.2926
  336loPI   C2A 5368   1.280  15.627  10.331 -0.1930  0.1285  0.0430
  336loPI   C3A 5369   1.191  15.576   9.830 -0.0567 -0.0835 -0.2271
  336loPI   C4A 5370   1.160  15.574   9.428  0.2135  0.1421  0.0066
  336loPI   C5A 5371   0.866  15.593   9.086 -0.0168 -0.1349  0.1168
  336loPI   C6A 5372   0.610  15.816   8.801  0.1364 -0.0329  0.1651
  336loPI   C1B 5373   1.636  15.985  10.219 -0.0012  0.4066 -0.0701
  336loPI   C2B 5374   1.568  15.953   9.830  0.2165 -0.0396  0.0039
  336loPI   C3B 5375   1.440  16.006   9.385 -0.1603  0.1982 -0.0429
  336loPI   C4B 5376   1.516  15.785   9.066  0.0694 -0.1326  0.0325
  337loPI    C1 5377   2.100   2.468  11.891  0.1396 -0.2639  0.0651
  337loPI    C2 5378   2.350   2.165  11.963  0.0323 -0.3331  0.1503
  337loPI    C3 5379   2.233   2.402  12.262 -0.0719 -0.3538  0.1264
  337loPI   PO4 5380   1.886   2.411  11.752  0.0713  0.0223 -0.3154
  337loPI   GL1 5381   1.767   2.425  11.334  0.2134 -0.1841  0.0506
  337loPI   GL2 5382   1.645   2.682  11.140  0.1921 -0.0778 -0.0228
  337loPI   C1A 5383   1.975   2.187  10.946 -0.0225  0.1778  0.0416
  337loPI   C2A 5384   2.005   2.163  10.455  0.0889 -0.0995 -0.0568
  337loPI   C3A 5385   2.105   2.133   9.980 -0.1992 -0.0248 -0.2718
  337loPI   C4A 5386   2.109   2.148   9.524 -0.1428 -0.4700  0.1033
  337loPI   C5A 5387   2.006   2.363   9.131 -0.3279 -0.2454 -0.4250
  337loPI   C6A 5388   2.037   2.750   8.973  0.0849 -0.1833  0.2128
  337loPI   C1B 5389   1.846   2.621  10.782 -0.1849 -0.1543  0.0502
  337loPI   C2B 5390   1.825   2.678  10.360 -0.1304 -0.1176 -0.2100
  337loPI   C3B 5391   1.802   2.512   9.972 -0.0709 -0.3570  0.0905
  337loPI   C4B 5392   1.780   2.551   9.551  0.2338 -0.0100  0.1736
  338loPI    C1 5393   7.827   8.444  11.867 -0.1401  0.1697  0.0588
  338loPI    C2 5394   7.801   8.749  12.125 -0.0714  0.1796  0.0538
  338loPI    C3 5395   7.652   8.391  12.223 -0.1364  0.2102  0.0667
  338loPI   PO4 5396   7.741   8.542  11.618 -0.0828  0.1467  0.0625
  338loPI   GL1 5397   7.856   8.452  11.267  0.2768 -0.0108  0.0704
  338loPI   GL2 5398   7.625   8.377  11.000  0.4989 -0.3100  0.0495
  338loPI   C1A 5399   8.129   8.510  10.973 -0.1227 -0.1643  0.1767
  338loPI   C2A 5400   8.123   8.539  10.649 -0.0477 -0.1304  0.2055
  338loPI   C3A 5401   8.135   8.607  10.338  0.0073  0.1796 -0.3793
  338loPI   C4A 5402   8.238   8.521   9.855 -0.2268  0.1092  0.2062
  338loPI   C5A 5403   8.282   8.458   9.441 -0.2478 -0.0659  0.0662
  338loPI   C6A 5404   8.531   8.741   9.154  0.3014  0.0402 -0.3094
  338loPI   C1B 5405   7.689   8.400  10.544  0.2891  0.3432 -0.0693
  338loPI   C2B 5406   7.647   8.531  10.139  0.1169  0.3002  0.3662
  338loPI   C3B 5407   7.724   8.525   9.724 -0.1232  0.2811  0.0656
  338loPI   C4B 5408   7.790   8.452   9.314 -0.0386 -0.2312 -0.1973
  339POPI    C1 5409   7.363   2.204  12.002  0.0297 -0.1175  0.0513
  339POPI    C2 5410   7.760   2.183  11.954  0.0452  0.1799  0.0327
  339POPI    C3 5411   7.601   2.157  12.320  0.0589 -0.2253  0.0141
  339POPI   PO4 5412   7.358   2.118  11.687 -0.0349  0.0185  0.1721
  339POPI   GL1 5413   7.223   2.064  11.301 -0.0282 -0.1890 -0.1546
  339POPI   GL2 5414   7.465   2.022  11.168  0.0863 -0.0078 -0.1870
  339POPI   C1A 5415   7.075   1.748  11.027  0.0077  0.1962 -0.2580
  339POPI   D2A 5416   6.916   1.585  10.708 -0.0799 -0.0556 -0.0402
  339POPI   C3A 5417   6.887   1.854  10.362  0.3376  0.0351 -0.0374
  339POPI   C4A 5418   6.665   1.763   9.935  0.1482 -0.3113 -0.1819
  339POPI   C1B 5419   7.601   1.771  10.763  0.1641 -0.1599  0.0320
  339POPI   C2B 5420   7.415   1.806  10.395 -0.2653  0.1394 -0.2213
  339POPI   C3B 5421   7.254   1.668  10.031 -0.3170 -0.1066  0.3309
  339POPI   C4B 5422   7.326   1.774   9.646 -0.1162 -0.0710 -0.1521
  340POPI    C1 5423  10.699  11.580  11.511  0.0717 -0.0087 -0.1815
  340POPI    C2 5424  10.946  11.579  11.825 -0.1952 -0.0635  0.0325
  340POPI    C3 5425  10.970  11.288  11.552 -0.2457 -0.2573  0.2315
  340POPI   PO4 5426  10.645  11.706  11.444 -0.3533 -0.3237  0.0197
  340POPI   GL1 5427  10.673  11.933  11.045  0.0860  0.1120 -0.1812
  340POPI   GL2 5428  10.895  11.653  11.044  0.0684  0.2532 -0.0256
  340POPI   C1A 5429  10.329  11.745  10.754 -0.0633  0.0180  0.0171
  340POPI   D2A 5430  10.295  11.451  10.449 -0.1566 -0.0974  0.0226
  340POPI   C3A 5431  10.166  11.547  10.078 -0.0838 -0.1522  0.0126
  340POPI   C4A 5432  10.176  11.538   9.686 -0.2078  0.2307 -0.0017
  340POPI   C1B 5433  10.805  11.675  10.555  0.1667  0.1379 -0.2342
  340POPI   C2B 5434  10.680  11.557  10.134 -0.2044  0.1344  0.0314
  340POPI   C3B 5435  10.678  11.495   9.706  0.1507  0.1138  0.0835
  340POPI   C4B 5436  10.896  11.539   9.247  0.1054 -0.0164 -0.2548
  341POPI    C1 5437  13.997  10.837  11.999 -0.0532  0.0856 -0.0789
  341POPI    C2 5438  14.240  10.601  12.212 -0.0842 -0.3503 -0.5079
  341POPI    C3 5439  14.393  10.878  11.967 -0.0468  0.0375 -0.0615
  341POPI   PO4 5440  13.830  10.670  11.894 -0.0378 -0.1635 -0.1914
  341POPI   GL1 5441  13.878  10.532  11.477 -0.1298 -0.2739 -0.3438
  341POPI   GL2 5442  13.851  10.639  11.230 -0.0067  0.2330  0.2585
  341POPI   C1A 5443  13.993  10.186  11.145  0.1208 -0.0476  0.1192
  341POPI   D2A 5444  14.001  10.022  10.712 -0.0368  0.2407  0.1640
  341POPI   C3A 5445  14.022  10.048  10.199  0.0133  0.4077  0.2831
  341POPI   C4A 5446  13.997   9.943   9.765  0.2348 -0.1715 -0.3350
  341POPI   C1B 5447  13.772  10.500  10.747 -0.2270 -0.0955 -0.1770
  341POPI   C2B 5448  13.719  10.440  10.289  0.1562 -0.0552  0.0626
  341POPI   C3B 5449  13.761  10.380   9.871 -0.2832 -0.0072 -0.0524
  341POPI   C4B 5450  13.709  10.287   9.404 -0.2555  0.0345 -0.1573
  342POPI    C1 5451  13.640  11.207  11.797 -0.0101 -0.0051 -0.1428
  342POPI    C2 5452  13.536  11.057  12.153 -0.3709  0.1625 -0.1733
  342POPI    C3 5453  13.697  11.422  12.130 -0.0524  0.0262 -0.1558
  342POPI   PO4 5454  13.778  11.065  11.640 -0.0735 -0.2324  0.1338
  342POPI   GL1 5455  13.585  11.092  11.261  0.0257  0.1514 -0.1241
  342POPI   GL2 5456  13.836  11.361  11.205  0.4878  0.0732 -0.3353
  342POPI   C1A 5457  13.502  10.998  10.849 -0.0407  0.2192  0.0693
  342POPI   D2A 5458  13.687  10.915  10.411 -0.2364 -0.1445 -0.1463
  342POPI   C3A 5459  13.545  10.892  10.028 -0.0953 -0.1853  0.0545
  342POPI   C4A 5460  13.455  10.889   9.560 -0.3089 -0.1056 -0.2703
  342POPI   C1B 5461  13.828  11.364  10.727  0.0978  0.0603 -0.1844
  342POPI   C2B 5462  13.845  11.345  10.242 -0.0569 -0.1759 -0.0268
  342POPI   C3B 5463  13.786  11.311   9.798  0.2690 -0.1689 -0.0427
  342POPI   C4B 5464  13.922  11.311   9.364 -0.0729 -0.1960  0.0687
  343POPI    C1 5465  13.141   0.423  11.244 -0.1360 -0.1813  0.1181
  343POPI    C2 5466  13.172   0.262  11.609 -0.1334 -0.1256  0.1426
  343POPI    C3 5467  13.400   0.575  11.509 -0.2345 -0.0516  0.1415
  343POPI   PO4 5468  13.255   0.239  11.096  0.1890  0.0682 -0.0260
  343POPI   GL1 5469  13.405   0.173  10.725 -0.4106 -0.1508  0.0667
  343POPI   GL2 5470  13.286   0.484  10.645  0.0378 -0.1124  0.1565
  343POPI   C1A 5471  13.448   0.254  10.234  0.2764  0.2454 -0.1778
  343POPI   D2A 5472  13.376   0.284   9.784 -0.1356 -0.2329  0.1830
  343POPI   C3A 5473  13.571   0.065   9.494  0.2091  0.0363 -0.1789
  343POPI   C4A 5474  13.619  -0.056   9.059 -0.0584 -0.2745 -0.0890
  343POPI   C1B 5475  12.979   0.292  10.287  0.7129 -0.1118  0.5261
  343POPI   C2B 5476  12.882   0.229   9.899  0.1675  0.0079  0.0062
  343POPI   C3B 5477  12.869   0.235   9.515 -0.0555  0.0270 -0.1764
  343POPI   C4B 5478  13.181   0.269   9.270  0.2185 -0.0284 -0.1495
  344POPI    C1 5479   1.237  16.334  11.542  0.1405  0.2213 -0.0458
  344POPI    C2 5480   1.564  16.166  11.700  0.2107  0.3898 -0.0094
  344POPI    C3 5481   1.340  16.413  11.920 -0.1787 -0.0481  0.1021
  344POPI   PO4 5482   1.368  16.528  11.302 -0.2672  0.2600 -0.1857
  344POPI   GL1 5483   1.636  16.565  10.918 -0.2536 -0.2412 -0.1174
  344POPI   GL2 5484   1.400  16.471  10.809  0.1612 -0.0406 -0.1438
  344POPI   C1A 5485   2.003  16.782  10.687 -0.0406 -0.3970 -0.1476
  344POPI   D2A 5486   1.995  16.671  10.342 -0.1186  0.0856 -0.4123
  344POPI   C3A 5487   2.106  16.965  10.151  0.1010  0.1122 -0.2568
  344POPI   C4A 5488   2.214  16.987   9.726  0.2521 -0.3369  0.1220
  344POPI   C1B 5489   1.514  16.398  10.401 -0.0383  0.2341 -0.1356
  344POPI   C2B 5490   1.687  16.410  10.004  0.1921 -0.1482 -0.0975
  344POPI   C3B 5491   1.951  16.483   9.754 -0.1440 -0.0751 -0.0858
  344POPI   C4B 5492   1.945  16.715   9.396  0.0233 -0.1439  0.4416
  345POPI    C1 5493   5.549  16.639  11.274 -0.0371 -0.1420 -0.0521
  345POPI    C2 5494   5.898  16.710  11.458 -0.0158 -0.0103 -0.1416
  345POPI    C3 5495   5.683  16.386  11.554  0.1118 -0.0710 -0.0579
  345POPI   PO4 5496   5.537  16.890  11.132 -0.3820 -0.2203 -0.0393
  345POPI   GL1 5497   5.311  17.036  10.787 -0.1501  0.1510  0.2282
  345POPI   GL2 5498   5.573  17.172  10.709  0.0415  0.2230  0.3978
  345POPI   C1A 5499   5.155  17.010  10.377  0.0497  0.1563 -0.2515
  345POPI   D2A 5500   5.119  17.143   9.996 -0.0445 -0.1564  0.0204
  345POPI   C3A 5501   5.094  17.076   9.609 -0.0587  0.1183  0.3041
  345POPI   C4A 5502   5.063  17.006   9.212 -0.1724  0.0093 -0.0202
  345POPI   C1B 5503   5.676  17.243  10.199  0.0258 -0.1165 -0.3838
  345POPI   C2B 5504   5.552  17.244   9.773 -0.2160 -0.1882  0.1871
  345POPI   C3B 5505   5.620  17.018   9.452 -0.1615 -0.0002  0.1249
  345POPI   C4B 5506   5.528  16.975   9.020 -0.1993 -0.2119  0.2170
  346POPI    C1 5507   9.666  10.976  11.808 -0.0432  0.1859 -0.0797
  346POPI    C2 5508  10.041  10.837  11.813 -0.0959  0.0478  0.1455
  346POPI    C3 5509   9.858  10.931  12.156 -0.4785 -0.4651  0.0936
  346POPI   PO4 5510   9.670  11.082  11.578 -0.1031 -0.0104 -0.1669
  346POPI   GL1 5511   9.774  11.136  11.173  0.4447 -0.2062 -0.2005
  346POPI   GL2 5512  10.093  10.951  11.143 -0.1603 -0.2105 -0.1310
  346POPI   C1A 5513   9.860  11.297  10.767  0.5481  0.2345  0.2259
  346POPI   D2A 5514   9.844  11.087  10.326  0.0831  0.0851 -0.0399
  346POPI   C3A 5515   9.915  11.072   9.990 -0.1149  0.0161  0.0737
  346POPI   C4A 5516   9.923  11.043   9.554 -0.2107  0.2417  0.1680
  346POPI   C1B 5517  10.273  11.021  10.722 -0.1618 -0.1732 -0.1001
  346POPI   C2B 5518  10.329  11.010  10.243 -0.0053  0.0737  0.1900
  346POPI   C3B 5519  10.364  11.084   9.769  0.1487  0.3501 -0.1698
  346POPI   C4B 5520  10.550  11.191   9.378 -0.0836 -0.0482  0.0372
  347POPI    C1 5521  10.800   3.436  11.666  0.2505 -0.0645  0.4999
  347POPI    C2 5522  10.899   3.087  11.835 -0.0359 -0.2650  0.2627
  347POPI    C3 5523  10.616   3.316  12.000 -0.0160 -0.2583  0.2875
  347POPI   PO4 5524  10.766   3.453  11.481 -0.0257  0.1765 -0.0460
  347POPI   GL1 5525  10.828   3.386  11.070 -0.0479  0.0087  0.1316
  347POPI   GL2 5526  11.096   3.411  10.933  0.0468 -0.1810  0.0463
  347POPI   C1A 5527  10.644   3.032  10.724 -0.1877  0.1328  0.1069
  347POPI   D2A 5528  10.341   2.912  10.361  0.2552  0.1772 -0.0581
  347POPI   C3A 5529  10.244   3.156  10.043 -0.0123  0.1084 -0.0982
  347POPI   C4A 5530  10.219   3.269   9.610 -0.0694  0.1459 -0.3448
  347POPI   C1B 5531  11.025   3.247  10.572 -0.3026 -0.0358 -0.1818
  347POPI   C2B 5532  10.767   3.099  10.207  0.0556 -0.0167  0.0158
  347POPI   C3B 5533  10.603   2.923   9.790  0.0462  0.0612 -0.0774
  347POPI   C4B 5534  10.618   3.039   9.414  0.2855  0.1182 -0.4565
  348POPI    C1 5535  15.934  12.424  11.592  0.1539  0.0330  0.0756
  348POPI    C2 5536  15.673  12.292  11.865  0.1273 -0.0067  0.0311
  348POPI    C3 5537  15.973  12.532  11.975 -0.1277  0.3217  0.0276
  348POPI   PO4 5538  15.903  12.369  11.340 -0.1107 -0.0185  0.2256
  348POPI   GL1 5539  15.570  12.231  11.019  0.1326  0.2019  0.4110
  348POPI   GL2 5540  15.736  12.555  10.926 -0.1121  0.0567 -0.3281
  348POPI   C1A 5541  15.390  12.317  10.648 -0.1739  0.0452  0.1289
  348POPI   D2A 5542  15.329  12.385  10.271  0.0478  0.0634 -0.3424
  348POPI   C3A 5543  15.420  12.217   9.911 -0.2282 -0.0320 -0.1498
  348POPI   C4A 5544  15.397  12.128   9.421  0.2676  0.0051  0.0702
  348POPI   C1B 5545  15.782  12.661  10.506 -0.0717  0.1693 -0.1068
  348POPI   C2B 5546  15.718  12.551  10.069  0.1197  0.2565 -0.1315
  348POPI   C3B 5547  15.682  12.619   9.682 -0.1685  0.0330  0.1637
  348POPI   C4B 5548  15.316  12.621   9.405  0.3209 -0.0999 -0.0010
  349POPI    C1 5549  10.785  10.369  11.819 -0.0939 -0.2288  0.0963
  349POPI    C2 5550  10.544  10.658  11.954 -0.2955 -0.2931 -0.1199
  349POPI    C3 5551  10.652  10.358  12.196 -0.1982 -0.1125  0.0637
  349POPI   PO4 5552  10.705  10.297  11.564  0.1039  0.2427  0.1872
  349POPI   GL1 5553  10.534  10.154  11.224  0.0979  0.0157  0.1876
  349POPI   GL2 5554  10.720   9.828  11.120 -0.1449  0.1624  0.0103
  349POPI   C1A 5555  10.747  10.188  10.782 -0.1463  0.2819  0.1036
  349POPI   D2A 5556  10.857  10.215  10.355 -0.0726  0.0898  0.1485
  349POPI   C3A 5557  10.891  10.110   9.951 -0.0484 -0.1521  0.0168
  349POPI   C4A 5558  10.861   9.986   9.502 -0.0320 -0.1610  0.0527
  349POPI   C1B 5559  10.589   9.729  10.635 -0.1559 -0.1896  0.1498
  349POPI   C2B 5560  10.600   9.739  10.231  0.0364 -0.0355  0.0512
  349POPI   C3B 5561  10.589   9.677   9.797 -0.2800 -0.2383  0.2447
  349POPI   C4B 5562  10.457   9.737   9.258  0.1158 -0.0681  0.1656
  350POPI    C1 5563   4.131  12.817  11.482  0.0690  0.1242  0.1619
  350POPI    C2 5564   4.133  12.633  11.837 -0.0372 -0.2092 -0.0061
  350POPI    C3 5565   4.473  12.778  11.684 -0.0172  0.0779  0.3002
  350POPI   PO4 5566   3.882  12.766  11.373  0.2199 -0.1327 -0.0138
  350POPI   GL1 5567   3.760  12.651  11.002 -0.0149  0.0213  0.0885
  350POPI   GL2 5568   3.534  12.523  10.969  0.0640 -0.0001 -0.1211
  350POPI   C1A 5569   3.939  12.931  10.628 -0.0065 -0.0839 -0.0736
  350POPI   D2A 5570   3.946  13.020  10.250  0.0530 -0.1424  0.4075
  350POPI   C3A 5571   3.892  13.072   9.774 -0.4043 -0.2334 -0.1661
  350POPI   C4A 5572   3.754  13.000   9.326  0.0786 -0.0850 -0.1707
  350POPI   C1B 5573   3.256  12.651  10.552 -0.1275 -0.0602 -0.1314
  350POPI   C2B 5574   3.198  12.686  10.130 -0.1988 -0.1199 -0.1142
  350POPI   C3B 5575   3.087  12.671   9.727 -0.0146  0.1359 -0.0129
  350POPI   C4B 5576   3.036  12.674   9.299 -0.2516  0.0456  0.0271
  351POPI    C1 5577  10.149   0.876  11.670 -0.0737  0.0357 -0.1911
  351POPI    C2 5578  10.091   1.196  11.903  0.1267  0.1870 -0.3455
  351POPI    C3 5579  10.408   0.960  11.963 -0.2038 -0.1857 -0.0097
  351POPI   PO4 5580  10.057   0.959  11.426  0.0135  0.1716 -0.1228
  351POPI   GL1 5581  10.120   0.709  11.148 -0.0306 -0.0384 -0.0951
  351POPI   GL2 5582  10.301   0.442  11.131 -0.1660 -0.3448  0.0002
  351POPI   C1A 5583   9.921   0.851  10.747 -0.1059 -0.2328 -0.0773
  351POPI   D2A 5584   9.928   0.954  10.347 -0.1302 -0.2421 -0.1673
  351POPI   C3A 5585   9.901   0.840   9.904 -0.2664 -0.2003  0.2102
  351POPI   C4A 5586  10.036   0.902   9.565  0.2881 -0.2110 -0.1813
  351POPI   C1B 5587  10.263   0.499  10.692 -0.0733 -0.2297  0.0837
  351POPI   C2B 5588  10.121   0.487  10.390 -0.2868 -0.0336  0.1281
  351POPI   C3B 5589  10.236   0.487  10.005 -0.2794  0.0677 -0.0504
  351POPI   C4B 5590  10.151   0.442   9.659  0.1017 -0.0678 -0.0413
  352POPI    C1 5591   9.854  14.934  12.003  0.3527 -0.1124 -0.0707
  352POPI    C2 5592   9.991  14.582  12.137 -0.0008 -0.1024  0.3336
  352POPI    C3 5593   9.983  14.900  12.380  0.0320  0.1089  0.0623
  352POPI   PO4 5594   9.938  14.995  11.728  0.0325 -0.3844 -0.4244
  352POPI   GL1 5595   9.902  15.156  11.327 -0.4296  0.0587 -0.0626
  352POPI   GL2 5596  10.237  15.267  11.115  0.1408  0.1814 -0.0432
  352POPI   C1A 5597   9.871  15.377  10.828 -0.1680  0.1267  0.1650
  352POPI   D2A 5598   9.882  15.178  10.343  0.0791  0.1658  0.1353
  352POPI   C3A 5599   9.937  15.127   9.952  0.0117 -0.1776 -0.2454
  352POPI   C4A 5600   9.959  15.126   9.529 -0.0753 -0.1344 -0.2259
  352POPI   C1B 5601  10.346  15.330  10.715 -0.0270  0.1403 -0.0788
  352POPI   C2B 5602  10.371  15.227  10.278 -0.0872 -0.1407 -0.3398
  352POPI   C3B 5603  10.446  15.136   9.862  0.3166  0.2490 -0.2090
  352POPI   C4B 5604  10.462  14.993   9.431  0.0424  0.0230  0.2535
  353POPI    C1 5605   3.786  10.646  11.646  0.1400  0.4481  0.0222
  353POPI    C2 5606   3.488  10.413  11.775  0.4502  0.0082 -0.0320
  353POPI    C3 5607   3.644  10.691  12.017  0.2703 -0.0358  0.1372
  353POPI   PO4 5608   3.706  10.742  11.324 -0.1279  0.0074  0.0752
  353POPI   GL1 5609   3.345  10.751  10.972 -0.1231  0.0345 -0.1225
  353POPI   GL2 5610   2.935  10.844  10.896 -0.2342  0.2300  0.1012
  353POPI   C1A 5611   3.591  10.787  10.750 -0.0622  0.1280  0.1672
  353POPI   D2A 5612   3.640  10.600  10.329  0.0864  0.0983  0.0529
  353POPI   C3A 5613   3.550  10.611   9.910  0.2817  0.1768  0.2701
  353POPI   C4A 5614   3.427  10.759   9.445  0.0326  0.0795  0.0172
  353POPI   C1B 5615   3.171  10.765  10.499  0.0173 -0.1260 -0.1825
  353POPI   C2B 5616   3.082  10.648  10.036  0.2774 -0.0248 -0.0603
  353POPI   C3B 5617   2.919  10.796   9.631  0.2533 -0.0269 -0.1248
  353POPI   C4B 5618   2.955  10.835   9.241 -0.1014  0.0201 -0.2342
  354POPI    C1 5619   4.371  15.220  11.344  0.0710  0.1703 -0.2693
  354POPI    C2 5620   4.455  15.359  11.710  0.3110 -0.1322 -0.2057
  354POPI    C3 5621   4.109  15.455  11.534  0.1087 -0.1386  0.1797
  354POPI   PO4 5622   4.639  15.182  11.215  0.1208  0.2005 -0.2462
  354POPI   GL1 5623   4.822  14.954  10.850  0.0895 -0.2395  0.1756
  354POPI   GL2 5624   4.930  15.252  10.689  0.0505  0.2959  0.2761
  354POPI   C1A 5625   4.767  14.743  10.500 -0.0888 -0.0207  0.1234
  354POPI   D2A 5626   4.761  14.713   9.986  0.3224  0.0154 -0.1976
  354POPI   C3A 5627   5.085  14.882   9.751 -0.1679  0.1177  0.0814
  354POPI   C4A 5628   5.357  15.021   9.499  0.0756 -0.1061  0.2922
  354POPI   C1B 5629   4.646  15.194  10.290  0.3454 -0.1935 -0.1329
  354POPI   C2B 5630   4.640  15.184   9.861  0.0611  0.2273  0.0788
  354POPI   C3B 5631   4.650  14.858   9.557 -0.0739 -0.1181 -0.0024
  354POPI   C4B 5632   4.446  14.596   9.218  0.0536  0.1485  0.1362
  355POPI    C1 5633   7.062   3.417  11.824  0.1532  0.0300 -0.0866
  355POPI    C2 5634   7.350   3.153  11.738  0.2291 -0.0219  0.3101
  355POPI    C3 5635   7.446   3.529  11.835  0.1470  0.0292  0.1960
  355POPI   PO4 5636   6.905   3.386  11.596  0.0574  0.1062 -0.1899
  355POPI   GL1 5637   6.609   3.430  11.210  0.0667 -0.1735 -0.3055
  355POPI   GL2 5638   6.445   3.587  11.019  0.0764  0.0766  0.3272
  355POPI   C1A 5639   6.641   3.139  10.948 -0.1057  0.0121  0.0321
  355POPI   D2A 5640   6.659   3.112  10.476  0.0554  0.0690  0.1677
  355POPI   C3A 5641   6.582   3.157  10.083  0.3932  0.2598 -0.0837
  355POPI   C4A 5642   6.614   3.016   9.618  0.0209  0.2280 -0.1886
  355POPI   C1B 5643   6.445   3.545  10.481  0.0701 -0.1643 -0.6574
  355POPI   C2B 5644   6.347   3.590   9.955  0.1469  0.4948 -0.0630
  355POPI   C3B 5645   6.429   3.483   9.495  0.2331  0.3032 -0.0223
  355POPI   C4B 5646   6.661   3.282   9.163 -0.0116  0.0029 -0.0648
  356POPI    C1 5647   0.651  13.350  11.577  0.0851  0.1258 -0.0479
  356POPI    C2 5648   0.639  13.120  11.904  0.1436  0.0124 -0.1250
  356POPI    C3 5649   0.639  13.518  11.940 -0.1277  0.0030  0.0032
  356POPI   PO4 5650   0.713  13.167  11.400  0.1873 -0.0010  0.0436
  356POPI   GL1 5651   0.453  13.007  10.922  0.0224 -0.1009  0.0252
  356POPI   GL2 5652   0.738  12.960  10.770 -0.0477 -0.1007 -0.3687
  356POPI   C1A 5653   0.181  12.942  10.576  0.0354  0.1554  0.3390
  356POPI   D2A 5654   0.091  12.696  10.270  0.2795 -0.1455 -0.2940
  356POPI   C3A 5655  -0.014  12.783   9.875 -0.0755 -0.0240 -0.0570
  356POPI   C4A 5656  -0.110  12.973   9.574 -0.2270  0.2244  0.0563
  356POPI   C1B 5657   0.617  12.905  10.420  0.0523 -0.1448  0.1041
  356POPI   C2B 5658   0.544  12.829  10.030 -0.0005  0.0370 -0.1360
  356POPI   C3B 5659   0.515  12.880   9.595 -0.0571  0.0919  0.3448
  356POPI   C4B 5660   0.559  12.866   9.134  0.1847  0.0017 -0.2811
  357POPI    C1 5661   8.067  10.028  11.774  0.0808 -0.0001  0.0738
  357POPI    C2 5662   7.685   9.993  11.888  0.1298 -0.1149  0.2065
  357POPI    C3 5663   7.972   9.805  12.092  0.2464 -0.1192  0.0407
  357POPI   PO4 5664   8.144   9.934  11.514  0.0411 -0.0237  0.4243
  357POPI   GL1 5665   7.870   9.838  11.218  0.0102  0.0723  0.3578
  357POPI   GL2 5666   7.659  10.058  11.438 -0.0941 -0.0841  0.2115
  357POPI   C1A 5667   7.986   9.821  10.761  0.0003 -0.5047 -0.1657
  357POPI   D2A 5668   7.993   9.892  10.301 -0.0403 -0.1024 -0.1551
  357POPI   C3A 5669   7.985   9.819   9.780  0.1453  0.1045  0.2438
  357POPI   C4A 5670   7.912   9.798   9.370  0.1408  0.2541 -0.0121
  357POPI   C1B 5671   7.601  10.234  10.956 -0.0621  0.1990  0.2802
  357POPI   C2B 5672   7.729  10.342  10.477  0.0077 -0.0431 -0.1903
  357POPI   C3B 5673   7.832  10.364  10.058 -0.2050  0.2597 -0.3465
  357POPI   C4B 5674   7.722  10.317   9.574 -0.2410  0.1173  0.0087
  358POPI    C1 5675   7.211   9.180  11.875  0.0062  0.1144 -0.0171
  358POPI    C2 5676   7.004   9.326  12.185 -0.1227 -0.0954 -0.0024
  358POPI    C3 5677   6.937   8.953  12.057  0.1228 -0.1047 -0.1109
  358POPI   PO4 5678   7.171   9.310  11.678 -0.3694 -0.0146  0.2019
  358POPI   GL1 5679   7.360   9.438  11.267  0.0417  0.1099  0.2439
  358POPI   GL2 5680   7.644   9.407  11.312 -0.0688  0.1600  0.1531
  358POPI   C1A 5681   7.350   9.778  11.001  0.1232 -0.2095 -0.0600
  358POPI   D2A 5682   7.515   9.901  10.623  0.0134  0.2016  0.2432
  358POPI   C3A 5683   7.498   9.903  10.171  0.2087 -0.1647 -0.0813
  358POPI   C4A 5684   7.497   9.871   9.702 -0.0827 -0.0578 -0.1655
  358POPI   C1B 5685   7.812   9.405  10.930 -0.2065  0.1652  0.0390
  358POPI   C2B 5686   7.774   9.490  10.496  0.0560 -0.0152  0.2316
  358POPI   C3B 5687   7.762   9.410  10.071  0.0325 -0.1732  0.3041
  358POPI   C4B 5688   7.687   9.384   9.596 -0.0011 -0.1641 -0.0880
  359POPI    C1 5689  15.362   3.376  11.344 -0.0186 -0.0224 -0.0682
  359POPI    C2 5690  15.080   3.380  11.628  0.1957  0.0190  0.1469
  359POPI    C3 5691  15.355   3.090  11.623  0.2208  0.0445  0.0090
  359POPI   PO4 5692  15.244   3.485  11.161 -0.0789 -0.1089  0.1605
  359POPI   GL1 5693  15.045   3.545  10.837  0.0662 -0.1191 -0.0778
  359POPI   GL2 5694  15.119   3.859  10.871 -0.0372  0.1496  0.0876
  359POPI   C1A 5695  15.160   3.437  10.456  0.2204  0.1858 -0.2104
  359POPI   D2A 5696  15.202   3.553  10.026 -0.2510  0.1904  0.0901
  359POPI   C3A 5697  15.178   3.429   9.690  0.0001  0.0314  0.2007
  359POPI   C4A 5698  15.345   3.513   9.285  0.0708  0.3977  0.0290
  359POPI   C1B 5699  15.241   4.139  10.608  0.0260  0.2864 -0.1613
  359POPI   C2B 5700  15.237   4.068  10.180 -0.1574 -0.1138 -0.1338
  359POPI   C3B 5701  15.245   4.045   9.815  0.3776 -0.2696  0.1201
  359POPI   C4B 5702  15.278   3.961   9.366 -0.1756 -0.2037  0.0684
  360POPI    C1 5703  15.065   6.733  11.697  0.2849 -0.0499  0.0707
  360POPI    C2 5704  14.738   6.676  11.921  0.2085 -0.3401 -0.1095
  360POPI    C3 5705  14.978   6.989  11.992 -0.0219 -0.2135  0.1256
  360POPI   PO4 5706  15.024   6.728  11.481 -0.0726  0.0987  0.1221
  360POPI   GL1 5707  14.764   6.819  11.171 -0.1995  0.1307 -0.1238
  360POPI   GL2 5708  14.733   7.168  11.075  0.0223  0.0634 -0.1170
  360POPI   C1A 5709  14.961   6.688  10.784 -0.0447 -0.3286  0.0989
  360POPI   D2A 5710  15.084   6.585  10.352 -0.1684  0.2478  0.1117
  360POPI   C3A 5711  15.047   6.715   9.895 -0.0427  0.1365 -0.1095
  360POPI   C4A 5712  15.095   6.551   9.588 -0.1226  0.1423 -0.1342
  360POPI   C1B 5713  14.835   7.203  10.648 -0.0440  0.2166 -0.2107
  360POPI   C2B 5714  14.837   7.219  10.156  0.0508 -0.1561 -0.0691
  360POPI   C3B 5715  14.793   7.152   9.758 -0.0969 -0.3064  0.0300
  360POPI   C4B 5716  14.939   6.969   9.367  0.2297  0.0610 -0.1975
  361POPI    C1 5717   1.997   1.896  11.771  0.0623  0.3473  0.0113
  361POPI    C2 5718   2.052   1.616  12.051 -0.2358  0.0654 -0.2042
  361POPI    C3 5719   1.897   1.970  12.151  0.0536  0.1240  0.0539
  361POPI   PO4 5720   2.207   1.820  11.618  0.1718 -0.0299  0.1231
  361POPI   GL1 5721   2.391   1.707  11.233  0.1910 -0.1320  0.1791
  361POPI   GL2 5722   2.069   1.574  11.224  0.0813  0.5925 -0.0161
  361POPI   C1A 5723   2.519   2.105  10.921 -0.0197  0.0363  0.0012
  361POPI   D2A 5724   2.514   2.113  10.476  0.1106 -0.2184 -0.1711
  361POPI   C3A 5725   2.652   2.145  10.048 -0.0217  0.0672  0.0131
  361POPI   C4A 5726   2.605   1.999   9.609 -0.1433 -0.1933 -0.0839
  361POPI   C1B 5727   2.243   1.729  10.751 -0.0768 -0.2072  0.2138
  361POPI   C2B 5728   2.248   1.663  10.273 -0.0139  0.2803 -0.0074
  361POPI   C3B 5729   2.302   1.680   9.856  0.0682  0.0497 -0.2156
  361POPI   C4B 5730   2.243   1.591   9.393 -0.0625 -0.2382  0.2131
  362POPI    C1 5731  11.055   4.092  11.757  0.0563  0.1778  0.1193
  362POPI    C2 5732  10.715   4.274  11.864 -0.1397 -0.0307 -0.1340
  362POPI    C3 5733  10.702   3.933  11.655  0.2276 -0.0260 -0.1711
  362POPI   PO4 5734  11.152   4.224  11.569  0.2156  0.0386  0.0960
  362POPI   GL1 5735  11.075   4.302  11.043 -0.3778 -0.1214  0.0862
  362POPI   GL2 5736  11.086   4.627  10.975  0.1619  0.0909 -0.3313
  362POPI   C1A 5737  11.065   4.254  10.583 -0.3961  0.0684 -0.2934
  362POPI   D2A 5738  11.201   4.410  10.178 -0.2735  0.0565  0.0190
  362POPI   C3A 5739  11.081   4.492   9.812 -0.3845  0.2159  0.1981
  362POPI   C4A 5740  11.048   4.650   9.385 -0.1077  0.2419  0.1317
  362POPI   C1B 5741  11.272   4.773  10.590  0.3011  0.1927  0.2067
  362POPI   C2B 5742  11.192   4.921  10.157 -0.2387  0.2339  0.1133
  362POPI   C3B 5743  11.333   5.035   9.761  0.1074  0.0461 -0.0369
  362POPI   C4B 5744  11.317   5.200   9.451 -0.0764 -0.1245  0.0290
  363POPI    C1 5745  10.237   8.991  11.927 -0.0975  0.0628  0.0815
  363POPI    C2 5746  10.480   9.022  12.243  0.1213  0.1327 -0.0915
  363POPI    C3 5747  10.291   8.677  12.170  0.0188  0.1355  0.1507
  363POPI   PO4 5748  10.319   9.011  11.748  0.0923 -0.0477 -0.0148
  363POPI   GL1 5749  10.155   8.987  11.408  0.0933  0.0247 -0.1592
  363POPI   GL2 5750   9.902   8.792  11.252 -0.2968 -0.0433  0.1328
  363POPI   C1A 5751  10.267   9.135  10.954 -0.1829 -0.0397 -0.1629
  363POPI   D2A 5752  10.287   9.297  10.632  0.0854 -0.1007 -0.2878
  363POPI   C3A 5753  10.375   9.269  10.274 -0.1373  0.0669  0.0743
  363POPI   C4A 5754  10.383   9.263   9.882 -0.0889  0.1988  0.1045
  363POPI   C1B 5755   9.995   8.781  10.778  0.1632  0.0918  0.2416
  363POPI   C2B 5756  10.072   8.815  10.363  0.0175 -0.0336 -0.0127
  363POPI   C3B 5757  10.062   8.868   9.925 -0.0717 -0.0878  0.2748
  363POPI   C4B 5758  10.048   8.900   9.482 -0.1822  0.2193  0.1680
  364POPI    C1 5759  15.721   4.266  11.463 -0.1427 -0.1781  0.0188
  364POPI    C2 5760  15.505   4.031  11.704 -0.0655 -0.3362 -0.0640
  364POPI    C3 5761  15.621   4.393  11.829 -0.1308 -0.3670  0.0891
  364POPI   PO4 5762  15.907   4.086  11.333  0.1639  0.0098  0.0079
  364POPI   GL1 5763  16.089   3.934  10.988  0.0091 -0.3621  0.0396
  364POPI   GL2 5764  16.281   4.059  11.013 -0.0159 -0.0450  0.0129
  364POPI   C1A 5765  16.097   4.026  10.560 -0.2181  0.0504  0.2104
  364POPI   D2A 5766  16.102   4.171  10.102 -0.0873 -0.1477 -0.1447
  364POPI   C3A 5767  16.143   4.115   9.728  0.0831 -0.1129  0.1130
  364POPI   C4A 5768  16.089   4.034   9.295  0.0728  0.1254 -0.0047
  364POPI   C1B 5769  16.587   4.047  10.722 -0.0869  0.2319 -0.1445
  364POPI   C2B 5770  16.638   4.058  10.337  0.0565 -0.0354  0.3244
  364POPI   C3B 5771  16.607   4.044   9.893  0.3300 -0.2635  0.4907
  364POPI   C4B 5772  16.569   4.091   9.434  0.0233  0.0724  0.1366
  365POPI    C1 5773   8.741  16.073  11.249 -0.0799  0.1974 -0.0117
  365POPI    C2 5774   8.626  16.279  11.572  0.1528  0.1493  0.1034
  365POPI    C3 5775   8.607  15.880  11.572 -0.1984  0.1619 -0.0812
  365POPI   PO4 5776   8.718  16.174  11.077 -0.1220 -0.0169 -0.0446
  365POPI   GL1 5777   8.903  16.129  10.772  0.3121 -0.0330  0.4072
  365POPI   GL2 5778   9.109  15.865  10.649  0.0652 -0.2020  0.2517
  365POPI   C1A 5779   8.819  16.183  10.364 -0.0338  0.1908  0.2389
  365POPI   D2A 5780   8.821  16.366  10.002 -0.1510  0.2053  0.0930
  365POPI   C3A 5781   8.682  16.463   9.552  0.1943 -0.1330  0.0095
  365POPI   C4A 5782   8.810  16.525   9.075 -0.0246  0.0769 -0.1528
  365POPI   C1B 5783   9.158  15.607  10.295 -0.2166 -0.5202 -0.2461
  365POPI   C2B 5784   9.211  15.677   9.819 -0.0558 -0.1835  0.0026
  365POPI   C3B 5785   9.159  15.641   9.395  0.0953 -0.0228  0.0365
  365POPI   C4B 5786   9.003  15.312   9.089 -0.0769  0.0230 -0.1424
  366POPI    C1 5787   8.605   3.714  11.306  0.0544 -0.0432 -0.0470
  366POPI    C2 5788   8.995   3.766  11.376  0.0575 -0.1310  0.0022
  366POPI    C3 5789   8.724   3.953  11.604  0.0710  0.0751 -0.1478
  366POPI   PO4 5790   8.559   3.412  11.223  0.1617  0.1469 -0.1726
  366POPI   GL1 5791   8.687   3.218  10.845  0.1247  0.0717 -0.3492
  366POPI   GL2 5792   8.398   2.969  10.896 -0.1505 -0.3723 -0.1388
  366POPI   C1A 5793   8.677   3.450  10.462 -0.0562 -0.2936 -0.0496
  366POPI   D2A 5794   8.610   3.384  10.115  0.3949 -0.1888  0.1293
  366POPI   C3A 5795   8.595   3.569   9.754 -0.1108 -0.3183  0.1379
  366POPI   C4A 5796   8.465   3.637   9.293 -0.3388  0.0937  0.2901
  366POPI   C1B 5797   8.352   2.988  10.472  0.0106 -0.3192 -0.1648
  366POPI   C2B 5798   8.316   2.990  10.114  0.1940  0.0356 -0.3051
  366POPI   C3B 5799   8.409   3.085   9.741  0.1838  0.1591  0.2194
  366POPI   C4B 5800   8.234   3.004   9.284 -0.0801 -0.0074  0.0875
  367POPI    C1 5801  13.580  17.038  11.403 -0.0183  0.0672 -0.0070
  367POPI    C2 5802  13.883  16.947  11.647 -0.0361 -0.0616 -0.0319
  367POPI    C3 5803  13.507  16.863  11.755 -0.0609  0.0692 -0.0148
  367POPI   PO4 5804  13.715  17.039  11.197  0.0217  0.0750  0.3471
  367POPI   GL1 5805  13.697  16.790  10.839 -0.0945  0.1000 -0.0334
  367POPI   GL2 5806  13.971  16.769  10.865  0.2610 -0.3653 -0.0985
  367POPI   C1A 5807  13.642  16.837  10.434  0.2217 -0.1207  0.1110
  367POPI   D2A 5808  13.637  16.862  10.011  0.6031 -0.2095  0.2114
  367POPI   C3A 5809  13.788  16.684   9.557  0.1384  0.0498 -0.1791
  367POPI   C4A 5810  13.847  16.612   9.138  0.1718  0.2302  0.1041
  367POPI   C1B 5811  14.117  16.805  10.455 -0.0658  0.2616 -0.1460
  367POPI   C2B 5812  14.200  16.838  10.001 -0.0189  0.0612 -0.0734
  367POPI   C3B 5813  14.291  16.694   9.630 -0.1552  0.1185  0.1790
  367POPI   C4B 5814  14.349  16.539   9.275  0.0033 -0.3133  0.0489
  368POPI    C1 5815   1.694   7.787  11.731  0.0956  0.2344  0.1751
  368POPI    C2 5816   1.942   7.561  11.947 -0.0420  0.0942  0.1881
  368POPI    C3 5817   2.076   7.749  11.621  0.0614 -0.0492  0.1468
  368POPI   PO4 5818   1.442   7.678  11.671 -0.1515  0.0413 -0.0478
  368POPI   GL1 5819   1.340   7.506  11.305  0.1838 -0.1837  0.2066
  368POPI   GL2 5820   1.568   7.864  11.190  0.0173 -0.1485 -0.1135
  368POPI   C1A 5821   1.300   7.609  10.825  0.2393 -0.0521 -0.0044
  368POPI   D2A 5822   1.469   7.628  10.509 -0.1068  0.6295 -0.0729
  368POPI   C3A 5823   1.566   7.582  10.095 -0.1092 -0.0672 -0.0681
  368POPI   C4A 5824   1.454   7.659   9.682  0.0445  0.3118  0.0606
  368POPI   C1B 5825   1.661   8.013  10.778  0.3769 -0.0793 -0.3810
  368POPI   C2B 5826   1.737   8.019  10.319 -0.1175  0.0105 -0.1232
  368POPI   C3B 5827   1.788   8.146   9.937  0.0882 -0.0661 -0.1291
  368POPI   C4B 5828   1.743   8.068   9.456 -0.0770 -0.0386 -0.1182
  369POPI    C1 5829   0.947  16.793  11.369  0.0108  0.2113  0.0760
  369POPI    C2 5830   1.256  16.864  11.613  0.1346 -0.1835  0.0403
  369POPI    C3 5831   0.929  16.679  11.752  0.0201 -0.0029  0.0140
  369POPI   PO4 5832   1.049  16.848  11.137 -0.0962 -0.0766  0.0172
  369POPI   GL1 5833   1.190  17.116  10.791  0.0861  0.0792  0.0294
  369POPI   GL2 5834   1.162  17.423  10.654  0.3472  0.2458  0.3642
  369POPI   C1A 5835   1.269  16.786  10.424  0.1179 -0.2320 -0.2228
  369POPI   D2A 5836   1.283  16.644   9.918 -0.0481  0.1737 -0.1916
  369POPI   C3A 5837   1.431  16.529   9.567  0.2843 -0.2217  0.4318
  369POPI   C4A 5838   1.702  16.374   9.225  0.0163 -0.0735 -0.1604
  369POPI   C1B 5839   1.154  17.253  10.296 -0.3018  0.1801  0.3507
  369POPI   C2B 5840   1.142  17.112   9.963 -0.3386  0.4226  0.2925
  369POPI   C3B 5841   1.071  16.946   9.574 -0.0230  0.0495  0.1604
  369POPI   C4B 5842   1.278  16.804   9.160 -0.1409  0.0945  0.0681
  370POPI    C1 5843   4.193   8.223  11.807 -0.2187  0.1629  0.0771
  370POPI    C2 5844   4.428   8.500  11.974 -0.2161  0.1234  0.1391
  370POPI    C3 5845   4.219   8.249  12.205 -0.3288  0.1659  0.0844
  370POPI   PO4 5846   4.065   8.325  11.598 -0.1604  0.1198  0.2087
  370POPI   GL1 5847   3.862   8.313  11.182  0.0495  0.0328  0.1130
  370POPI   GL2 5848   4.115   8.314  11.021  0.2087  0.0159 -0.0672
  370POPI   C1A 5849   3.624   8.370  10.771 -0.2609 -0.0856  0.1459
  370POPI   D2A 5850   3.540   8.385  10.333 -0.2682 -0.1838  0.1280
  370POPI   C3A 5851   3.588   8.350   9.929  0.1042  0.2518 -0.1872
  370POPI   C4A 5852   3.666   8.480   9.582  0.0196 -0.2355  0.0285
  370POPI   C1B 5853   4.023   8.423  10.547 -0.1774 -0.2426 -0.0237
  370POPI   C2B 5854   4.057   8.406  10.113 -0.3684 -0.2454  0.0997
  370POPI   C3B 5855   4.209   8.312   9.674 -0.2150  0.0392 -0.0617
  370POPI   C4B 5856   3.985   8.127   9.326  0.3036 -0.1315  0.4474
  371POPI    C1 5857   4.641   3.036  11.647  0.1207 -0.0535 -0.1256
  371POPI    C2 5858   4.637   2.827  11.988 -0.2730  0.0510 -0.0608
  371POPI    C3 5859   4.722   3.218  11.994 -0.0639  0.0077 -0.1134
  371POPI   PO4 5860   4.458   2.957  11.530 -0.2619 -0.1711 -0.1546
  371POPI   GL1 5861   4.502   2.955  11.180 -0.2319 -0.0118  0.0739
  371POPI   GL2 5862   4.082   2.911  11.108  0.0052 -0.0500 -0.0781
  371POPI   C1A 5863   4.747   2.912  10.730  0.3006 -0.0626 -0.0847
  371POPI   D2A 5864   4.781   2.789  10.336  0.1403 -0.0005  0.2532
  371POPI   C3A 5865   4.756   2.961  10.020 -0.0938  0.3926  0.0069
  371POPI   C4A 5866   4.745   2.804   9.592  0.0668  0.1673 -0.1115
  371POPI   C1B 5867   4.228   2.937  10.699  0.4870 -0.0677 -0.2543
  371POPI   C2B 5868   4.239   2.828  10.192  0.1445 -0.2608  0.2368
  371POPI   C3B 5869   4.241   2.907   9.696 -0.0698  0.2974 -0.0140
  371POPI   C4B 5870   4.351   2.995   9.292  0.0283  0.1373 -0.0405
  372POPI    C1 5871   6.386  16.559  11.433  0.0872 -0.1057 -0.1240
  372POPI    C2 5872   6.140  16.244  11.444 -0.0794  0.0210 -0.1793
  372POPI    C3 5873   6.180  16.478  11.766  0.1067 -0.1021 -0.1110
  372POPI   PO4 5874   6.348  16.643  11.185  0.2514 -0.0162 -0.1898
  372POPI   GL1 5875   6.080  16.781  10.913  0.0734  0.0208 -0.1699
  372POPI   GL2 5876   5.982  17.131  11.049  0.0653 -0.1427  0.0894
  372POPI   C1A 5877   6.042  16.744  10.450  0.1542  0.2581 -0.0723
  372POPI   D2A 5878   5.994  16.775  10.034 -0.3193  0.3198 -0.1849
  372POPI   C3A 5879   6.258  16.728   9.780 -0.2483 -0.0724 -0.0867
  372POPI   C4A 5880   6.102  16.653   9.371 -0.2569  0.0039  0.0520
  372POPI   C1B 5881   6.070  17.199  10.580  0.0040 -0.3366  0.3166
  372POPI   C2B 5882   6.192  17.252  10.117  0.1481  0.1075 -0.0186
  372POPI   C3B 5883   6.071  17.164   9.719  0.1426 -0.1284  0.0347
  372POPI   C4B 5884   6.055  17.141   9.252  0.1137  0.0716  0.1915
  373POPI    C1 5885  16.078   6.415  11.723 -0.0991 -0.0951  0.0955
  373POPI    C2 5886  16.003   6.805  11.771  0.0069 -0.0745  0.0956
  373POPI    C3 5887  16.218   6.607  12.044  0.2248 -0.0602 -0.0625
  373POPI   PO4 5888  15.903   6.363  11.520  0.0799  0.0378  0.2312
  373POPI   GL1 5889  15.826   6.634  11.138  0.0589 -0.2024 -0.0612
  373POPI   GL2 5890  15.502   6.660  11.116 -0.1589  0.1367  0.0955
  373POPI   C1A 5891  15.929   6.552  10.750  0.0485  0.4258  0.3758
  373POPI   D2A 5892  16.143   6.637  10.337  0.0450  0.0133  0.0810
  373POPI   C3A 5893  16.030   6.462   9.997 -0.4420  0.1763 -0.1659
  373POPI   C4A 5894  16.176   6.417   9.538 -0.0251  0.0666  0.0198
  373POPI   C1B 5895  15.420   6.475  10.722 -0.2359  0.1728  0.1907
  373POPI   C2B 5896  15.636   6.489  10.303 -0.1834  0.1436  0.2404
  373POPI   C3B 5897  15.502   6.531   9.858  0.2412 -0.1079 -0.4071
  373POPI   C4B 5898  15.686   6.521   9.447 -0.0507 -0.0628 -0.3643
  374POPI    C1 5899   5.133   4.794  11.780 -0.3111  0.0653  0.1436
  374POPI    C2 5900   5.176   4.436  11.953 -0.1757 -0.0374 -0.0979
  374POPI    C3 5901   4.970   4.725  12.139  0.0486 -0.1122  0.2773
  374POPI   PO4 5902   5.071   4.675  11.448 -0.1841  0.1681  0.0293
  374POPI   GL1 5903   4.720   4.645  11.205  0.1183 -0.1566 -0.2932
  374POPI   GL2 5904   4.735   4.357  11.241  0.3288  0.1907 -0.1288
  374POPI   C1A 5905   4.961   4.681  10.850  0.3373  0.2026 -0.0385
  374POPI   D2A 5906   4.885   4.668  10.408 -0.0503  0.0903  0.3423
  374POPI   C3A 5907   5.006   4.638  10.019  0.1284 -0.1582  0.0505
  374POPI   C4A 5908   4.929   4.715   9.556 -0.3320  0.1484  0.1652
  374POPI   C1B 5909   4.647   4.246  10.895 -0.0382  0.1567 -0.0957
  374POPI   C2B 5910   4.584   4.249  10.450 -0.0055 -0.0187 -0.0586
  374POPI   C3B 5911   4.635   4.273  10.063 -0.0855  0.1652 -0.0498
  374POPI   C4B 5912   4.598   4.260   9.543 -0.2118 -0.0932  0.1219
  375POPI    C1 5913  16.363  12.723  11.696  0.1211  0.0979  0.0492
  375POPI    C2 5914  16.706  12.548  11.803 -0.0479 -0.2368  0.0594
  375POPI    C3 5915  16.441  12.657  12.082  0.0430  0.0142  0.0511
  375POPI   PO4 5916  16.370  12.819  11.498 -0.1900  0.0639 -0.0714
  375POPI   GL1 5917  16.223  12.680  11.154  0.2449 -0.0005  0.0519
  375POPI   GL2 5918  16.515  12.551  11.065  0.0318 -0.1572 -0.1964
  375POPI   C1A 5919  16.147  12.820  10.739 -0.1736 -0.0447  0.3256
  375POPI   D2A 5920  16.016  13.095  10.452  0.0178 -0.1636  0.0452
  375POPI   C3A 5921  15.997  13.027   9.973 -0.0600 -0.1749 -0.1041
  375POPI   C4A 5922  16.008  12.948   9.522 -0.2407 -0.0876  0.0629
  375POPI   C1B 5923  16.413  12.439  10.592  0.0173  0.1288  0.1365
  375POPI   C2B 5924  16.190  12.520  10.080  0.2692 -0.2182 -0.3975
  375POPI   C3B 5925  16.237  12.477   9.667  0.4154  0.2981  0.2744
  375POPI   C4B 5926  16.278  12.672   9.164  0.1055 -0.1989  0.1723
  376POPI    C1 5927  14.326  14.940  11.857  0.1615 -0.1875 -0.1720
  376POPI    C2 5928  14.684  15.084  11.964  0.1240 -0.2150 -0.0063
  376POPI    C3 5929  14.542  14.753  12.137 -0.1482  0.0083  0.2068
  376POPI   PO4 5930  14.390  14.968  11.555  0.0850  0.0632  0.0592
  376POPI   GL1 5931  14.325  14.970  11.153 -0.1989 -0.0132  0.3021
  376POPI   GL2 5932  14.545  15.307  11.190 -0.0286  0.1532 -0.0341
  376POPI   C1A 5933  14.286  14.664  10.756  0.1467  0.3214 -0.1828
  376POPI   D2A 5934  14.273  14.601  10.422 -0.0148 -0.1362  0.0142
  376POPI   C3A 5935  14.286  14.496   9.965 -0.1274  0.0134  0.4290
  376POPI   C4A 5936  14.265  14.507   9.568 -0.0316 -0.2166  0.0838
  376POPI   C1B 5937  14.320  15.390  10.804 -0.1050 -0.0457  0.0476
  376POPI   C2B 5938  14.419  15.511  10.387 -0.0711  0.2989  0.1532
  376POPI   C3B 5939  14.329  15.438   9.983  0.0646  0.1806 -0.0693
  376POPI   C4B 5940  14.354  15.313   9.481 -0.0418 -0.0742 -0.0712
  377POPI    C1 5941   4.479  15.642  11.158 -0.1406 -0.0938  0.0435
  377POPI    C2 5942   4.377  15.863  11.476  0.1113  0.1585 -0.0472
  377POPI    C3 5943   4.729  15.673  11.469  0.1123  0.1644 -0.1796
  377POPI   PO4 5944   4.542  15.809  10.985 -0.1711  0.2098  0.1110
  377POPI   GL1 5945   4.661  15.706  10.599  0.1062  0.0980  0.0690
  377POPI   GL2 5946   4.999  15.872  10.748  0.1126  0.0668 -0.4606
  377POPI   C1A 5947   4.715  15.652  10.065  0.5531 -0.2935 -0.0742
  377POPI   D2A 5948   4.599  15.782   9.694 -0.1169  0.0266 -0.2346
  377POPI   C3A 5949   4.514  15.408   9.427 -0.0683 -0.3611  0.0795
  377POPI   C4A 5950   4.466  15.101   9.149 -0.0148  0.1230 -0.0343
  377POPI   C1B 5951   4.779  16.097  10.395 -0.0228 -0.1486  0.1019
  377POPI   C2B 5952   4.773  16.182   9.899  0.0342  0.1877 -0.1462
  377POPI   C3B 5953   4.900  16.046   9.444 -0.0275 -0.0517 -0.0723
  377POPI   C4B 5954   4.695  15.910   9.138  0.2338  0.0512  0.0421
  378POPI    C1 5955   1.801  14.221  11.439  0.1291 -0.1068  0.1588
  378POPI    C2 5956   1.517  14.479  11.554  0.0430  0.0720 -0.4220
  378POPI    C3 5957   1.891  14.517  11.693 -0.1196  0.0831  0.0298
  378POPI   PO4 5958   1.725  14.195  11.173 -0.0345  0.1540 -0.2427
  378POPI   GL1 5959   1.919  14.132  10.729  0.0529 -0.2606 -0.1826
  378POPI   GL2 5960   2.234  14.379  10.927  0.0821 -0.3730  0.0469
  378POPI   C1A 5961   1.977  14.163  10.250 -0.1397  0.2725  0.2022
  378POPI   D2A 5962   1.954  14.145   9.717 -0.3515 -0.4353  0.4557
  378POPI   C3A 5963   1.688  14.143   9.383 -0.1474 -0.1132  0.1820
  378POPI   C4A 5964   1.470  14.081   8.862  0.0293 -0.0779  0.0707
  378POPI   C1B 5965   2.366  14.400  10.532 -0.1239 -0.1797  0.0847
  378POPI   C2B 5966   2.331  14.545  10.143 -0.1091 -0.2317 -0.2226
  378POPI   C3B 5967   2.206  14.596   9.747 -0.0295 -0.1631  0.0461
  378POPI   C4B 5968   2.011  14.592   9.418  0.0742 -0.1933  0.2427
  379POPI    C1 5969   6.617  16.106  11.323  0.0834  0.0396 -0.0555
  379POPI    C2 5970   6.931  16.064  11.079  0.1475 -0.1115  0.0516
  379POPI    C3 5971   6.933  15.891  11.439  0.0139  0.0325  0.1228
  379POPI   PO4 5972   6.447  16.171  11.039  0.1365  0.0966 -0.0202
  379POPI   GL1 5973   6.361  16.400  10.729  0.1525  0.1150 -0.3883
  379POPI   GL2 5974   6.776  16.439  10.650  0.0899  0.0413  0.1137
  379POPI   C1A 5975   6.313  16.344  10.258 -0.0293  0.1540  0.0476
  379POPI   D2A 5976   6.249  16.241   9.815  0.0173 -0.1389 -0.1710
  379POPI   C3A 5977   6.460  16.154   9.455 -0.0513  0.1165  0.2763
  379POPI   C4A 5978   6.678  15.962   9.059  0.3135 -0.1472 -0.2670
  379POPI   C1B 5979   6.935  16.552  10.204 -0.0055  0.2452 -0.0644
  379POPI   C2B 5980   6.831  16.514   9.820 -0.2644 -0.0751  0.0274
  379POPI   C3B 5981   6.625  16.654   9.396  0.0350 -0.1999 -0.0462
  379POPI   C4B 5982   6.576  16.993   9.014 -0.0507 -0.1084  0.4211
  380POPI    C1 5983   3.551   4.145  11.602 -0.2910 -0.0504  0.0642
  380POPI    C2 5984   3.666   4.291  11.956 -0.3276  0.2837 -0.0578
  380POPI    C3 5985   3.693   3.899  11.883  0.2220  0.2824  0.1098
  380POPI   PO4 5986   3.343   4.248  11.572 -0.0139  0.1674 -0.2419
  380POPI   GL1 5987   3.217   4.240  11.152 -0.0578 -0.1472 -0.0910
  380POPI   GL2 5988   3.000   4.282  11.028 -0.1481  0.0719  0.0939
  380POPI   C1A 5989   3.510   4.301  10.752 -0.0844 -0.0845 -0.0797
  380POPI   D2A 5990   3.699   4.337  10.385 -0.0780  0.0887  0.0473
  380POPI   C3A 5991   3.651   4.339   9.956 -0.0924 -0.1973  0.1394
  380POPI   C4A 5992   3.573   4.254   9.560  0.0930  0.0707 -0.0561
  380POPI   C1B 5993   3.017   4.367  10.553  0.1269  0.3558 -0.0284
  380POPI   C2B 5994   3.167   4.309  10.143  0.0426 -0.0974 -0.0064
  380POPI   C3B 5995   3.081   4.278   9.658  0.1078 -0.0518  0.0248
  380POPI   C4B 5996   3.118   4.413   9.270 -0.0023 -0.0351  0.0364
  381POPI    C1 5997  13.876  14.638  11.699  0.0439 -0.0127 -0.1200
  381POPI    C2 5998  13.718  14.306  11.541 -0.2281  0.0175  0.0822
  381POPI    C3 5999  13.791  14.326  11.934 -0.0059  0.1185  0.0375
  381POPI   PO4 6000  13.931  14.822  11.421  0.1074  0.3783 -0.1162
  381POPI   GL1 6001  13.875  14.537  11.049  0.1125  0.0203 -0.0805
  381POPI   GL2 6002  13.991  14.284  11.048  0.2681  0.0701 -0.2045
  381POPI   C1A 6003  13.834  14.603  10.611  0.0197  0.1310 -0.0232
  381POPI   D2A 6004  13.786  14.528  10.223 -0.0183  0.0551  0.0489
  381POPI   C3A 6005  13.725  14.469   9.848 -0.2461  0.0527  0.1507
  381POPI   C4A 6006  13.769  14.540   9.392  0.2024  0.1664  0.0489
  381POPI   C1B 6007  14.074  14.169  10.661  0.0785  0.2576  0.3566
  381POPI   C2B 6008  13.888  14.041  10.255 -0.2142  0.1097 -0.0913
  381POPI   C3B 6009  13.954  14.037   9.871  0.2472 -0.1398  0.2270
  381POPI   C4B 6010  13.977  14.085   9.481  0.2151  0.0099 -0.3018
  382POPI    C1 6011   1.042  11.085  11.763 -0.0701 -0.1129 -0.0569
  382POPI    C2 6012   0.707  11.125  11.979  0.0213 -0.3986  0.1442
  382POPI    C3 6013   1.048  11.015  12.157  0.2184 -0.1371 -0.0634
  382POPI   PO4 6014   1.106  11.263  11.660  0.0370 -0.0651 -0.4372
  382POPI   GL1 6015   1.262  11.296  11.211  0.0058  0.2364  0.0023
  382POPI   GL2 6016   1.012  11.101  11.143 -0.1730 -0.0957 -0.2171
  382POPI   C1A 6017   1.274  11.396  10.740 -0.0709  0.2431 -0.1075
  382POPI   D2A 6018   1.268  11.321  10.323  0.1127 -0.2281  0.1784
  382POPI   C3A 6019   1.184  11.379   9.918 -0.1187  0.2647 -0.0043
  382POPI   C4A 6020   1.168  11.290   9.517 -0.0865 -0.1148  0.3291
  382POPI   C1B 6021   0.946  10.939  10.771  0.1165 -0.0333  0.2955
  382POPI   C2B 6022   0.972  10.883  10.269  0.2587  0.0525 -0.1547
  382POPI   C3B 6023   0.944  10.872   9.870  0.0625 -0.0686  0.2772
  382POPI   C4B 6024   0.777  10.804   9.479 -0.0238  0.2665  0.1219
  383POPI    C1 6025   7.642   4.563  11.714 -0.0284 -0.2981  0.2269
  383POPI    C2 6026   7.483   4.503  12.076 -0.0916  0.0206  0.2549
  383POPI    C3 6027   7.866   4.612  12.042 -0.1327  0.1602  0.2358
  383POPI   PO4 6028   7.523   4.702  11.511  0.2700 -0.0519  0.0116
  383POPI   GL1 6029   7.545   4.511  11.152  0.1546 -0.0974 -0.1002
  383POPI   GL2 6030   7.418   4.790  10.973 -0.4644 -0.0201 -0.0127
  383POPI   C1A 6031   7.549   4.384  10.654 -0.1134  0.1731  0.0655
  383POPI   D2A 6032   7.588   4.551  10.208 -0.0241 -0.0386  0.0602
  383POPI   C3A 6033   7.718   4.376   9.904  0.0854  0.0196  0.0647
  383POPI   C4A 6034   7.544   4.499   9.482  0.1302 -0.2274 -0.1922
  383POPI   C1B 6035   7.346   4.895  10.554  0.0493 -0.2006 -0.1249
  383POPI   C2B 6036   7.372   4.950  10.089  0.0696  0.0391  0.0395
  383POPI   C3B 6037   7.434   4.966   9.684 -0.1623  0.0680  0.0638
  383POPI   C4B 6038   7.284   4.946   9.357 -0.3255 -0.0653  0.1621
  384POPI    C1 6039   2.381   4.467  11.638 -0.0074 -0.0853  0.0629
  384POPI    C2 6040   2.323   4.358  12.019 -0.1523  0.0127  0.0700
  384POPI    C3 6041   2.545   4.679  11.934 -0.1293 -0.0027  0.0720
  384POPI   PO4 6042   2.425   4.211  11.534  0.0741 -0.1833  0.1009
  384POPI   GL1 6043   2.323   4.042  11.094  0.2524 -0.1200 -0.2421
  384POPI   GL2 6044   2.588   3.997  11.111 -0.0225 -0.0286  0.0138
  384POPI   C1A 6045   2.161   3.955  10.564 -0.0742  0.0707 -0.2259
  384POPI   D2A 6046   2.228   4.012  10.186 -0.1048 -0.2529 -0.1435
  384POPI   C3A 6047   2.374   3.892   9.855  0.1405 -0.0541  0.0244
  384POPI   C4A 6048   2.262   3.835   9.464 -0.1388 -0.0173  0.1997
  384POPI   C1B 6049   2.732   3.889  10.789  0.0444  0.0248  0.0788
  384POPI   C2B 6050   2.730   3.930  10.371 -0.1362 -0.2318 -0.2011
  384POPI   C3B 6051   2.823   3.938  10.016 -0.0935 -0.0064  0.1332
  384POPI   C4B 6052   2.782   3.914   9.568 -0.0933  0.2356  0.1988
  385POPI    C1 6053  11.953   7.352  11.753  0.2371 -0.0563 -0.0729
  385POPI    C2 6054  11.936   7.553  12.098  0.0558 -0.1096 -0.0499
  385POPI    C3 6055  11.961   7.154  12.100 -0.2213 -0.1294 -0.0981
  385POPI   PO4 6056  12.120   7.575  11.598  0.1741  0.1106 -0.2164
  385POPI   GL1 6057  12.362   7.653  11.190  0.0123 -0.2630 -0.3500
  385POPI   GL2 6058  12.661   7.732  11.029 -0.1463  0.0436 -0.0656
  385POPI   C1A 6059  12.071   7.810  10.834  0.0233 -0.2042  0.1932
  385POPI   D2A 6060  12.056   7.889  10.334  0.2959  0.2132 -0.3180
  385POPI   C3A 6061  12.066   7.763   9.846  0.1600  0.2233  0.3073
  385POPI   C4A 6062  12.022   7.756   9.449 -0.3746 -0.3194  0.1237
  385POPI   C1B 6063  12.512   7.824  10.642 -0.1403  0.0827  0.0427
  385POPI   C2B 6064  12.532   7.760  10.161 -0.1499  0.1098  0.3285
  385POPI   C3B 6065  12.552   7.696   9.649  0.1481  0.0482  0.0037
  385POPI   C4B 6066  12.538   7.899   9.188  0.1832 -0.2600 -0.0404
  386POPI    C1 6067   4.335  12.339  11.496 -0.0664  0.0845  0.0598
  386POPI    C2 6068   3.970  12.272  11.348  0.0858 -0.2232 -0.1904
  386POPI    C3 6069   4.082  12.098  11.690 -0.0490 -0.0119 -0.0360
  386POPI   PO4 6070   4.542  12.308  11.287  0.1647 -0.0905  0.1926
  386POPI   GL1 6071   4.651  12.109  10.906 -0.0604 -0.3470  0.2850
  386POPI   GL2 6072   4.921  12.083  10.786  0.1538 -0.3548 -0.1172
  386POPI   C1A 6073   4.555  12.117  10.471  0.0419 -0.1315  0.0886
  386POPI   D2A 6074   4.403  12.112  10.089 -0.0424  0.0119 -0.0754
  386POPI   C3A 6075   4.514  12.100   9.687 -0.0009  0.2530 -0.1065
  386POPI   C4A 6076   4.479  11.923   9.240  0.0804  0.2972 -0.4342
  386POPI   C1B 6077   4.989  11.942  10.365  0.0683  0.0671  0.1030
  386POPI   C2B 6078   4.899  12.065  10.002 -0.4142 -0.2294  0.0583
  386POPI   C3B 6079   4.984  11.911   9.664 -0.2463 -0.1012  0.0979
  386POPI   C4B 6080   5.041  11.900   9.205 -0.0391  0.3656  0.0676
  387POPI    C1 6081  11.261   3.563  11.416 -0.1156  0.1321  0.1070
  387POPI    C2 6082  11.382   3.753  11.747 -0.0820  0.2555  0.0244
  387POPI    C3 6083  11.317   3.359  11.755 -0.0756  0.2572  0.1765
  387POPI   PO4 6084  11.019   3.809  11.230 -0.2405 -0.0082  0.2346
  387POPI   GL1 6085  10.907   3.861  10.865 -0.1424  0.0011  0.2371
  387POPI   GL2 6086  10.662   4.111  10.819 -0.0345 -0.0428 -0.0840
  387POPI   C1A 6087  10.981   3.731  10.470  0.0169  0.1834 -0.0932
  387POPI   D2A 6088  11.104   3.511  10.133  0.2828  0.0338  0.2401
  387POPI   C3A 6089  10.905   3.307   9.751  0.1320  0.0650 -0.0961
  387POPI   C4A 6090  10.951   3.320   9.254  0.0370 -0.0687  0.0393
  387POPI   C1B 6091  10.554   4.022  10.567  0.1326  0.0246  0.1694
  387POPI   C2B 6092  10.821   4.069  10.151  0.0126  0.2285  0.1850
  387POPI   C3B 6093  11.006   3.934   9.884  0.1563 -0.1565 -0.1334
  387POPI   C4B 6094  11.203   3.722   9.567 -0.2266  0.0741 -0.1023
  388POPI    C1 6095  14.384  13.187  11.768  0.0553 -0.0485  0.0394
  388POPI    C2 6096  14.201  13.453  12.004  0.0208 -0.0596  0.0252
  388POPI    C3 6097  14.600  13.431  11.999  0.0239 -0.0043  0.0221
  388POPI   PO4 6098  14.336  13.186  11.466 -0.0393 -0.0276 -0.0753
  388POPI   GL1 6099  14.509  13.325  11.102  0.2415 -0.0141  0.1411
  388POPI   GL2 6100  14.238  13.404  11.038  0.2099  0.0140  0.0699
  388POPI   C1A 6101  14.534  13.203  10.706 -0.3162 -0.0291 -0.1664
  388POPI   D2A 6102  14.399  13.222  10.329 -0.0445  0.0074  0.0407
  388POPI   C3A 6103  14.424  13.211   9.918  0.0230  0.0943  0.2191
  388POPI   C4A 6104  14.484  13.080   9.504  0.3996  0.0072  0.1470
  388POPI   C1B 6105  14.007  13.217  10.679  0.0316  0.0157  0.2039
  388POPI   C2B 6106  13.947  13.128  10.292  0.0586 -0.3058  0.0433
  388POPI   C3B 6107  13.916  13.177   9.791 -0.1182  0.1013 -0.0956
  388POPI   C4B 6108  13.962  13.033   9.354 -0.1988  0.1278  0.2214
  389POPI    C1 6109   6.361   9.541  11.649 -0.1781  0.1554  0.0458
  389POPI    C2 6110   6.493   9.647  12.011  0.1520  0.1370 -0.0652
  389POPI    C3 6111   6.615   9.303  11.847  0.0883  0.1960 -0.2384
  389POPI   PO4 6112   6.412   9.857  11.522  0.1120  0.0799 -0.2264
  389POPI   GL1 6113   6.204  10.076  11.171  0.1138  0.1039  0.0588
  389POPI   GL2 6114   6.177  10.446  11.114 -0.0056  0.1847 -0.0227
  389POPI   C1A 6115   6.427  10.006  10.784 -0.1991 -0.0866 -0.0204
  389POPI   D2A 6116   6.548   9.882  10.395 -0.0614 -0.0249 -0.0887
  389POPI   C3A 6117   6.431  10.113  10.112  0.0859  0.2378  0.3568
  389POPI   C4A 6118   6.468   9.940   9.750  0.0251  0.1522  0.0611
  389POPI   C1B 6119   6.154  10.529  10.675 -0.1255 -0.1380  0.5615
  389POPI   C2B 6120   6.257  10.533  10.157 -0.0566 -0.0723  0.0044
  389POPI   C3B 6121   6.208  10.423   9.722  0.0054 -0.0528  0.0694
  389POPI   C4B 6122   6.118  10.656   9.316 -0.1989  0.2533 -0.0599
  390POPI    C1 6123   8.137   4.745  11.579 -0.1866  0.0235  0.0512
  390POPI    C2 6124   7.945   5.075  11.698  0.0844  0.1439  0.1633
  390POPI    C3 6125   8.265   4.946  11.901 -0.0891 -0.2567  0.1903
  390POPI   PO4 6126   8.186   4.771  11.318 -0.0092  0.0790 -0.0019
  390POPI   GL1 6127   8.077   4.711  10.932  0.1226  0.0305 -0.1311
  390POPI   GL2 6128   8.037   4.408  10.851  0.0357 -0.0022  0.0195
  390POPI   C1A 6129   7.812   4.816  10.559  0.0289 -0.0307  0.1366
  390POPI   D2A 6130   7.943   4.889  10.119  0.0273  0.1374  0.3063
  390POPI   C3A 6131   7.880   4.908   9.669  0.0022 -0.3043 -0.1220
  390POPI   C4A 6132   7.806   4.996   9.262 -0.0237 -0.0336  0.0557
  390POPI   C1B 6133   8.155   4.428  10.407 -0.3786  0.1612 -0.0235
  390POPI   C2B 6134   8.188   4.424  10.010 -0.0524  0.2500 -0.2463
  390POPI   C3B 6135   8.075   4.476   9.562 -0.0623 -0.0879 -0.1278
  390POPI   C4B 6136   8.083   4.549   9.186 -0.0724  0.1748 -0.0168
  391POPI    C1 6137  13.030  15.905  11.608 -0.0532 -0.1768  0.0507
  391POPI    C2 6138  13.365  16.044  11.440 -0.0384 -0.1387  0.1115
  391POPI    C3 6139  13.379  15.872  11.800 -0.1379  0.1960  0.2795
  391POPI   PO4 6140  12.824  15.815  11.463  0.3272 -0.0791  0.2266
  391POPI   GL1 6141  12.561  16.131  11.164 -0.1692  0.2970 -0.0723
  391POPI   GL2 6142  12.916  16.230  11.225 -0.0792  0.1058  0.2103
  391POPI   C1A 6143  12.435  16.115  10.757 -0.0050  0.0796 -0.3180
  391POPI   D2A 6144  12.502  16.071  10.411  0.4572  0.0520 -0.0541
  391POPI   C3A 6145  12.577  16.103  10.010  0.4012 -0.0667 -0.2128
  391POPI   C4A 6146  12.575  15.932   9.622  0.3630  0.2204 -0.1673
  391POPI   C1B 6147  13.027  16.123  10.652  0.2266  0.3388 -0.2655
  391POPI   C2B 6148  13.034  16.061  10.209  0.2609  0.2541  0.0948
  391POPI   C3B 6149  13.030  15.926   9.796  0.0876 -0.1308 -0.2002
  391POPI   C4B 6150  13.078  15.822   9.351 -0.1926  0.2339  0.1741
  392POPI    C1 6151  11.369  12.917  11.828 -0.1401 -0.0437 -0.1093
  392POPI    C2 6152  11.160  13.174  12.051  0.2536 -0.0200  0.2469
  392POPI    C3 6153  11.179  12.789  12.156  0.0423 -0.1088 -0.0274
  392POPI   PO4 6154  11.424  13.074  11.631 -0.2157  0.1141 -0.0557
  392POPI   GL1 6155  11.486  13.262  11.209 -0.2149  0.0576 -0.2526
  392POPI   GL2 6156  11.539  12.881  11.139 -0.0004  0.0636 -0.6132
  392POPI   C1A 6157  11.629  13.362  10.780  0.0588  0.0546  0.0427
  392POPI   D2A 6158  11.752  13.306  10.330 -0.0737 -0.0366  0.0813
  392POPI   C3A 6159  11.372  13.308  10.062 -0.1387 -0.0458 -0.0364
  392POPI   C4A 6160  11.418  13.290   9.717  0.1070 -0.3379  0.0739
  392POPI   C1B 6161  11.638  12.884  10.671 -0.1074  0.0028 -0.2902
  392POPI   C2B 6162  11.570  12.836  10.276 -0.0753 -0.0950 -0.1715
  392POPI   C3B 6163  11.632  12.869   9.841 -0.0124  0.0639 -0.0250
  392POPI   C4B 6164  11.892  13.254   9.798  0.2031  0.0233  0.1605
  393POPI    C1 6165   2.096  16.545  11.249  0.1029  0.0051  0.0253
  393POPI    C2 6166   2.304  16.829  11.438  0.1211  0.0010  0.0114
  393POPI    C3 6167   2.053  16.928  11.143  0.2323 -0.0108 -0.0880
  393POPI   PO4 6168   2.236  16.414  11.224  0.0546  0.0796  0.0448
  393POPI   GL1 6169   2.400  16.558  10.818 -0.3230 -0.0082  0.0444
  393POPI   GL2 6170   2.486  16.853  10.948  0.3196  0.1224 -0.0225
  393POPI   C1A 6171   2.484  16.532  10.408 -0.0349 -0.2917  0.0059
  393POPI   D2A 6172   2.436  16.553  10.052 -0.1197  0.3488 -0.1282
  393POPI   C3A 6173   2.415  16.357   9.657 -0.3405 -0.1106 -0.0194
  393POPI   C4A 6174   2.270  16.320   9.253 -0.0014  0.0364  0.0451
  393POPI   C1B 6175   2.501  17.010  10.505  0.0018  0.3803 -0.0481
  393POPI   C2B 6176   2.726  16.950  10.142  0.1606  0.0004  0.2078
  393POPI   C3B 6177   2.734  16.956   9.679  0.3042  0.1576 -0.2931
  393POPI   C4B 6178   2.442  16.791   9.327 -0.3022  0.3453  0.0760
  394POPI    C1 6179   6.092   5.238  11.745 -0.1025 -0.0632 -0.0607
  394POPI    C2 6180   5.990   5.000  12.049 -0.3514  0.0910 -0.0206
  394POPI    C3 6181   6.244   5.303  12.109 -0.0202 -0.1699 -0.0756
  394POPI   PO4 6182   6.185   5.127  11.559 -0.0483 -0.0628  0.3706
  394POPI   GL1 6183   6.039   4.934  11.164 -0.1520  0.0399 -0.1088
  394POPI   GL2 6184   6.405   4.968  11.047  0.4991  0.2224 -0.3274
  394POPI   C1A 6185   5.769   5.060  10.812 -0.1351  0.0998  0.2561
  394POPI   D2A 6186   5.833   4.987  10.283 -0.0316 -0.0877 -0.0668
  394POPI   C3A 6187   5.796   4.983   9.865  0.0881  0.0964  0.2703
  394POPI   C4A 6188   5.846   4.975   9.454  0.1811  0.1498 -0.1837
  394POPI   C1B 6189   6.288   4.946  10.652 -0.4384 -0.4539  0.1248
  394POPI   C2B 6190   6.279   4.946  10.144 -0.0514  0.0775  0.1583
  394POPI   C3B 6191   6.276   4.958   9.678 -0.2063  0.1588 -0.1647
  394POPI   C4B 6192   6.254   5.300   9.320 -0.0369  0.0122 -0.0488
  395POPI    C1 6193   1.308   0.400  11.139  0.0556  0.1984 -0.4393
  395POPI    C2 6194   0.918   0.470  11.084 -0.0165  0.1053 -0.0762
  395POPI    C3 6195   1.039   0.245  11.392  0.3312  0.2116 -0.1309
  395POPI   PO4 6196   1.426   0.677  11.104  0.7602  0.1442  0.1458
  395POPI   GL1 6197   1.582   0.912  10.968 -0.1683 -0.2313 -0.1912
  395POPI   GL2 6198   1.773   0.983  11.219 -0.2977  0.0719  0.1571
  395POPI   C1A 6199   1.757   0.879  10.467 -0.0551  0.0107 -0.0912
  395POPI   D2A 6200   1.741   0.882  10.007  0.0688  0.2121 -0.0646
  395POPI   C3A 6201   1.703   0.800   9.666  0.0099 -0.3496 -0.1240
  395POPI   C4A 6202   1.624   0.819   9.244 -0.0220 -0.1330 -0.1293
  395POPI   C1B 6203   1.987   1.290  10.804 -0.2347  0.1079  0.2810
  395POPI   C2B 6204   2.027   1.248  10.383 -0.1044 -0.0517 -0.0767
  395POPI   C3B 6205   1.999   1.294   9.987 -0.1528  0.0670  0.2891
  395POPI   C4B 6206   1.989   1.182   9.550  0.2697 -0.1214  0.2466
  396POPI    C1 6207  16.714   1.625  11.870 -0.1754 -0.1048 -0.1060
  396POPI    C2 6208  16.602   1.827  12.196 -0.2650 -0.2070 -0.0728
  396POPI    C3 6209  16.445   1.467  12.120 -0.0149 -0.3195 -0.0658
  396POPI   PO4 6210  16.704   1.750  11.644 -0.0236  0.2483 -0.0153
  396POPI   GL1 6211  16.951   1.735  11.197 -0.1090  0.2469  0.3548
  396POPI   GL2 6212  17.301   1.722  11.251  0.2533 -0.1104 -0.0273
  396POPI   C1A 6213  16.660   1.820  10.749  0.1021  0.2146  0.2643
  396POPI   D2A 6214  16.811   1.896  10.301 -0.0266  0.3136 -0.0541
  396POPI   C3A 6215  16.700   1.857   9.947  0.1450  0.1262  0.0105
  396POPI   C4A 6216  16.840   1.935   9.525 -0.1028  0.3777  0.2282
  396POPI   C1B 6217  17.182   1.877  10.765  0.0814  0.1389  0.1750
  396POPI   C2B 6218  17.316   1.897  10.334 -0.0298 -0.5395  0.3479
  396POPI   C3B 6219  17.260   1.901   9.912  0.1252  0.0238  0.1217
  396POPI   C4B 6220  17.334   1.903   9.535 -0.3344  0.0585 -0.0822
  397POPI    C1 6221  13.426  10.314  11.801  0.0354 -0.0123  0.1262
  397POPI    C2 6222  13.345  10.599  12.070  0.0377 -0.1243  0.2466
  397POPI    C3 6223  13.523  10.260  12.186  0.1487 -0.1232  0.0829
  397POPI   PO4 6224  13.213  10.327  11.605 -0.1328  0.0510  0.1858
  397POPI   GL1 6225  13.169  10.093  11.220  0.1046  0.1224  0.1415
  397POPI   GL2 6226  13.513  10.221  11.249 -0.0849  0.5289  0.0716
  397POPI   C1A 6227  12.964  10.084  10.812 -0.0432  0.2359 -0.2014
  397POPI   D2A 6228  12.989  10.027  10.412  0.2378  0.0561 -0.1021
  397POPI   C3A 6229  12.953   9.949   9.986 -0.2640  0.2117 -0.0909
  397POPI   C4A 6230  12.982  10.008   9.611  0.2532 -0.0253  0.0107
  397POPI   C1B 6231  13.501  10.093  10.845  0.1639  0.1149 -0.0109
  397POPI   C2B 6232  13.534   9.963  10.455  0.3016 -0.0835 -0.1121
  397POPI   C3B 6233  13.421  10.001   9.942  0.1324  0.0122  0.0815
  397POPI   C4B 6234  13.545   9.855   9.528 -0.0267 -0.2163 -0.0586
  398POPI    C1 6235   5.125   3.107  11.720 -0.1742  0.0737 -0.0496
  398POPI    C2 6236   5.033   2.724  11.653  0.1921 -0.0105 -0.0919
  398POPI    C3 6237   5.133   2.844  12.021 -0.2224  0.1131 -0.0136
  398POPI   PO4 6238   5.237   3.209  11.537 -0.0099  0.1279 -0.3172
  398POPI   GL1 6239   5.250   3.424  11.167 -0.0553  0.3189  0.0532
  398POPI   GL2 6240   4.892   3.290  10.970 -0.0263  0.1703  0.0239
  398POPI   C1A 6241   5.449   3.301  10.805 -0.2108 -0.0620  0.0151
  398POPI   D2A 6242   5.750   3.234  10.545 -0.1518 -0.0914  0.0151
  398POPI   C3A 6243   5.562   3.222  10.178  0.1030  0.0125  0.0564
  398POPI   C4A 6244   5.524   3.244   9.683  0.2023  0.0015 -0.3043
  398POPI   C1B 6245   5.028   3.224  10.503 -0.1224  0.2026  0.0123
  398POPI   C2B 6246   5.094   3.283  10.029 -0.0974  0.0686 -0.0762
  398POPI   C3B 6247   4.984   3.291   9.565  0.0577 -0.3014  0.2830
  398POPI   C4B 6248   4.977   2.994   9.178  0.1849 -0.0124  0.0172
  399POPI    C1 6249  11.586  15.134  11.777 -0.2491 -0.0732 -0.0597
  399POPI    C2 6250  11.661  15.052  12.161 -0.0395  0.2250 -0.0331
  399POPI    C3 6251  11.621  15.431  12.042 -0.0612  0.1369 -0.3148
  399POPI   PO4 6252  11.427  14.810  11.753 -0.0924 -0.0494  0.0741
  399POPI   GL1 6253  11.316  14.549  11.387 -0.1490  0.1751  0.0131
  399POPI   GL2 6254  11.240  14.768  11.240  0.0882  0.1005  0.1551
  399POPI   C1A 6255  11.414  14.306  11.038  0.0065 -0.0211  0.0783
  399POPI   D2A 6256  11.310  14.162  10.569  0.3569  0.3137 -0.0650
  399POPI   C3A 6257  11.385  14.320  10.201  0.1337  0.1753 -0.1455
  399POPI   C4A 6258  11.461  14.195   9.814  0.0544  0.1038  0.2178
  399POPI   C1B 6259  10.996  14.589  10.970 -0.0817  0.1757 -0.0461
  399POPI   C2B 6260  10.969  14.621  10.610  0.2367 -0.1877  0.1117
  399POPI   C3B 6261  11.053  14.665  10.170 -0.0564  0.2948 -0.0111
  399POPI   C4B 6262  11.147  14.661   9.804 -0.0572  0.3708  0.0091
  400POPI    C1 6263   6.661  13.712  11.386  0.0280 -0.1176  0.1225
  400POPI    C2 6264   6.783  14.063  11.534  0.1393 -0.1573  0.1251
  400POPI    C3 6265   6.486  13.864  11.712 -0.2299  0.1481 -0.1333
  400POPI   PO4 6266   6.545  13.702  11.144 -0.0533 -0.1545  0.2010
  400POPI   GL1 6267   6.625  13.677  10.701  0.1475  0.0806 -0.0511
  400POPI   GL2 6268   6.918  13.596  10.599 -0.0474 -0.0851 -0.0922
  400POPI   C1A 6269   6.373  13.647  10.297 -0.0022 -0.2697 -0.0995
  400POPI   D2A 6270   6.399  13.511   9.889  0.1866  0.0635  0.2506
  400POPI   C3A 6271   6.580  13.473   9.423 -0.0274 -0.0483  0.0319
  400POPI   C4A 6272   6.899  13.276   9.237  0.0696 -0.2557  0.4971
  400POPI   C1B 6273   6.868  13.567  10.218  0.1711 -0.1933 -0.2681
  400POPI   C2B 6274   6.924  13.505   9.762  0.0783  0.0351 -0.0929
  400POPI   C3B 6275   7.292  13.591   9.436 -0.0289 -0.2876  0.0143
  400POPI   C4B 6276   7.426  13.298   8.979 -0.1061  0.4041 -0.1871
  401POPI    C1 6277  11.284   2.007  11.627  0.1034 -0.1743 -0.1411
  401POPI    C2 6278  11.655   2.155  11.617  0.0891 -0.1338 -0.0709
  401POPI    C3 6279  11.505   2.013  11.960 -0.0417  0.0587 -0.0468
  401POPI   PO4 6280  11.212   1.832  11.404  0.2594 -0.1499  0.0585
  401POPI   GL1 6281  11.098   1.854  10.931  0.0681  0.0073 -0.2140
  401POPI   GL2 6282  11.224   1.612  10.981 -0.1430 -0.1940 -0.0452
  401POPI   C1A 6283  11.197   1.792  10.490  0.4803 -0.0050  0.0723
  401POPI   D2A 6284  11.227   1.689  10.083 -0.1660  0.2458  0.0058
  401POPI   C3A 6285  11.255   1.752   9.682 -0.1495 -0.1344 -0.0820
  401POPI   C4A 6286  11.554   1.745   9.414  0.4989  0.0868  0.0397
  401POPI   C1B 6287  11.160   1.337  10.678  0.1015 -0.1257 -0.0524
  401POPI   C2B 6288  11.202   1.276  10.281 -0.2590 -0.1412 -0.0920
  401POPI   C3B 6289  11.220   1.252   9.860 -0.0889  0.1571 -0.0438
  401POPI   C4B 6290  11.344   1.167   9.538  0.2532 -0.0895  0.2525
  402POPI    C1 6291  13.416   8.649  12.005  0.2040  0.1262  0.0384
  402POPI    C2 6292  13.734   8.412  12.058  0.2304  0.1995  0.2153
  402POPI    C3 6293  13.366   8.274  12.135  0.2103  0.0888 -0.0661
  402POPI   PO4 6294  13.470   8.729  11.715  0.1220 -0.0294  0.2067
  402POPI   GL1 6295  13.443   8.664  11.265 -0.1014 -0.2594 -0.0443
  402POPI   GL2 6296  13.193   8.535  11.254 -0.0008 -0.1461 -0.2501
  402POPI   C1A 6297  13.471   9.063  10.905 -0.4452 -0.1079 -0.0539
  402POPI   D2A 6298  13.426   9.125  10.417 -0.1658 -0.0073 -0.1308
  402POPI   C3A 6299  13.484   9.045  10.009 -0.0856  0.2259  0.1568
  402POPI   C4A 6300  13.435   8.967   9.618  0.2057  0.0706 -0.1152
  402POPI   C1B 6301  13.203   8.625  10.836  0.2027  0.0681 -0.2491
  402POPI   C2B 6302  13.123   8.590  10.407  0.1278  0.2123 -0.0555
  402POPI   C3B 6303  13.216   8.607   9.946 -0.1112  0.2866 -0.3824
  402POPI   C4B 6304  13.037   8.591   9.595 -0.2727  0.4067 -0.4262
  403POPI    C1 6305   3.362  15.939  11.320  0.1381 -0.0778 -0.0966
  403POPI    C2 6306   3.604  15.663  11.477  0.1644 -0.0259 -0.0456
  403POPI    C3 6307   3.467  15.961  11.705  0.0319 -0.0691 -0.0680
  403POPI   PO4 6308   3.570  15.999  11.131  0.0822 -0.1680  0.3120
  403POPI   GL1 6309   3.477  16.048  10.764  0.0785 -0.0637 -0.0491
  403POPI   GL2 6310   3.473  16.438  10.788  0.1147 -0.0864  0.0447
  403POPI   C1A 6311   3.227  16.031  10.324  0.0651  0.0804 -0.0942
  403POPI   D2A 6312   3.132  15.950   9.910 -0.0240  0.3127  0.1133
  403POPI   C3A 6313   3.095  15.818   9.538  0.1130  0.0529 -0.1855
  403POPI   C4A 6314   2.926  15.867   9.145 -0.0703 -0.0336 -0.0869
  403POPI   C1B 6315   3.517  16.425  10.423  0.1582  0.0319  0.1531
  403POPI   C2B 6316   3.430  16.436  10.002  0.1530  0.1286 -0.2736
  403POPI   C3B 6317   3.430  16.274   9.535 -0.0333 -0.0966 -0.1776
  403POPI   C4B 6318   3.238  16.209   9.210  0.1153 -0.0355  0.1230
  404POPI    C1 6319   0.147  14.307  11.274 -0.0891 -0.0195 -0.0203
  404POPI    C2 6320   0.345  14.440  11.595  0.0245 -0.0132 -0.0925
  404POPI    C3 6321   0.398  14.616  11.240 -0.0629 -0.0518 -0.1248
  404POPI   PO4 6322  -0.090  14.376  11.318  0.1502  0.0244  0.1157
  404POPI   GL1 6323  -0.384  14.336  11.031 -0.1840 -0.3053  0.3005
  404POPI   GL2 6324  -0.706  14.321  11.063 -0.1786 -0.0119  0.0092
  404POPI   C1A 6325  -0.463  14.682  10.780  0.0234 -0.2986  0.1870
  404POPI   D2A 6326  -0.366  14.949  10.429 -0.0989  0.0993 -0.0668
  404POPI   C3A 6327  -0.348  14.831   9.979 -0.0169  0.0377  0.0376
  404POPI   C4A 6328  -0.481  14.782   9.477 -0.3264 -0.2105 -0.1954
  404POPI   C1B 6329  -0.607  14.214  10.603  0.0922 -0.1426 -0.0918
  404POPI   C2B 6330  -0.699  14.446  10.258  0.0185 -0.1638 -0.0538
  404POPI   C3B 6331  -0.663  14.353   9.897  0.0511 -0.1893  0.0753
  404POPI   C4B 6332  -0.763  14.364   9.436  0.1739  0.2242 -0.0183
  405POPI    C1 6333  14.498   2.886  11.457  0.1800 -0.1933 -0.0143
  405POPI    C2 6334  14.510   3.236  11.651  0.0655 -0.1659 -0.0557
  405POPI    C3 6335  14.801   2.967  11.705  0.1402 -0.0752 -0.0036
  405POPI   PO4 6336  14.458   2.960  11.151 -0.2166 -0.1188  0.0634
  405POPI   GL1 6337  14.352   2.800  10.675  0.0434  0.2251 -0.0587
  405POPI   GL2 6338  14.683   2.704  10.712 -0.0475 -0.0603  0.0096
  405POPI   C1A 6339  14.206   2.892  10.261  0.0635 -0.1239 -0.2548
  405POPI   D2A 6340  14.225   2.877   9.859 -0.1293  0.1234  0.0268
  405POPI   C3A 6341  14.029   2.907   9.569  0.1504  0.0158 -0.0114
  405POPI   C4A 6342  13.904   3.007   9.173  0.0336 -0.1779  0.1208
  405POPI   C1B 6343  14.688   2.599  10.320  0.0702  0.0844  0.0316
  405POPI   C2B 6344  14.692   2.642   9.938 -0.1458 -0.2041  0.0149
  405POPI   C3B 6345  14.583   2.644   9.561  0.0386 -0.0284 -0.1206
  405POPI   C4B 6346  14.430   2.788   9.235  0.0496 -0.2467 -0.1778
  406POPI    C1 6347   6.466  14.498  11.440  0.1137 -0.0209 -0.0990
  406POPI    C2 6348   6.501  14.787  11.715 -0.0528 -0.1346  0.0448
  406POPI    C3 6349   6.505  14.403  11.827 -0.1895 -0.1807 -0.1043
  406POPI   PO4 6350   6.614  14.533  11.220  0.0351 -0.1877  0.1912
  406POPI   GL1 6351   6.770  14.771  10.827  0.0594  0.1943 -0.0684
  406POPI   GL2 6352   6.999  14.592  10.760  0.1229 -0.2528 -0.2519
  406POPI   C1A 6353   6.569  14.700  10.433  0.1832 -0.4155 -0.1466
  406POPI   D2A 6354   6.338  14.527  10.073 -0.3326  0.2296 -0.0460
  406POPI   C3A 6355   6.360  14.463   9.635  0.0558 -0.1685 -0.0132
  406POPI   C4A 6356   6.498  14.297   9.225 -0.1280 -0.2430  0.2570
  406POPI   C1B 6357   6.989  14.529  10.240 -0.2078 -0.4609 -0.1332
  406POPI   C2B 6358   7.169  14.507   9.882  0.2955  0.2499 -0.1315
  406POPI   C3B 6359   7.194  14.408   9.578  0.2742 -0.0542 -0.1997
  406POPI   C4B 6360   7.431  14.387   9.110  0.0864 -0.1359 -0.1092
  407POPI    C1 6361  15.242  13.133  11.748 -0.0326  0.0551  0.0175
  407POPI    C2 6362  15.348  13.518  11.730  0.2966 -0.0244  0.1679
  407POPI    C3 6363  15.103  13.391  12.019 -0.0449  0.1211 -0.0515
  407POPI   PO4 6364  15.336  13.056  11.451  0.1321 -0.2704 -0.0586
  407POPI   GL1 6365  15.059  12.996  11.088 -0.0857 -0.1303 -0.0631
  407POPI   GL2 6366  15.299  12.746  11.040 -0.1088  0.1435  0.0350
  407POPI   C1A 6367  15.007  13.189  10.743  0.3362 -0.0974 -0.0788
  407POPI   D2A 6368  14.918  13.124  10.341 -0.0237  0.0012  0.1204
  407POPI   C3A 6369  14.929  13.046   9.885  0.0888  0.0638 -0.0198
  407POPI   C4A 6370  15.181  12.635   9.869 -0.2797 -0.0182  0.0295
  407POPI   C1B 6371  15.030  12.664  10.628 -0.0017 -0.2725  0.0583
  407POPI   C2B 6372  14.798  12.673  10.274 -0.0120  0.0107  0.0461
  407POPI   C3B 6373  14.716  12.610   9.773  0.2061 -0.1399  0.1450
  407POPI   C4B 6374  14.812  12.578   9.349 -0.0783  0.1804  0.0556
  408POPI    C1 6375  11.792   9.432  11.935 -0.0500  0.0927 -0.0732
  408POPI    C2 6376  11.825   9.626  12.283  0.0014  0.0335 -0.0448
  408POPI    C3 6377  11.869   9.229  12.270 -0.1065  0.0229 -0.1020
  408POPI   PO4 6378  11.974   9.636  11.762 -0.0162  0.1137  0.0188
  408POPI   GL1 6379  12.264   9.530  11.426  0.1964 -0.0197 -0.0299
  408POPI   GL2 6380  12.029   9.313  11.339 -0.0330 -0.1015 -0.1031
  408POPI   C1A 6381  12.181   9.647  10.989  0.1225 -0.1182 -0.2234
  408POPI   D2A 6382  12.156   9.698  10.491 -0.2837 -0.4430  0.2955
  408POPI   C3A 6383  12.264   9.541  10.171 -0.1585  0.0690  0.0919
  408POPI   C4A 6384  12.226   9.630   9.708  0.1879 -0.1282 -0.0948
  408POPI   C1B 6385  11.934   9.193  10.943  0.0328  0.0633  0.0983
  408POPI   C2B 6386  11.775   9.221  10.528 -0.0261 -0.1617 -0.0036
  408POPI   C3B 6387  11.818   9.093  10.105 -0.1348 -0.1043  0.1296
  408POPI   C4B 6388  11.848   9.177   9.650  0.1537  0.1679 -0.0709
  409POPI    C1 6389   5.400  15.000  11.082 -0.0951 -0.0698 -0.0186
  409POPI    C2 6390   5.071  15.013  11.309 -0.0059 -0.1359  0.1152
  409POPI    C3 6391   5.155  14.684  11.097 -0.1074 -0.0614 -0.0420
  409POPI   PO4 6392   5.372  15.193  10.882  0.1099  0.0967 -0.0934
  409POPI   GL1 6393   5.378  15.518  10.736  0.2116  0.3074 -0.0780
  409POPI   GL2 6394   5.616  15.630  10.603  0.1492  0.1303  0.1756
  409POPI   C1A 6395   5.089  15.622  10.348 -0.5588  0.1034 -0.0419
  409POPI   D2A 6396   5.189  15.752   9.925 -0.1617  0.5032  0.3749
  409POPI   C3A 6397   4.985  15.399   9.624 -0.1585 -0.1537  0.1105
  409POPI   C4A 6398   4.943  15.150   9.240  0.0864  0.2435  0.1172
  409POPI   C1B 6399   5.649  15.635  10.201  0.3360  0.1163  0.2466
  409POPI   C2B 6400   5.643  15.892   9.906  0.2725  0.0605 -0.0108
  409POPI   C3B 6401   5.959  15.857   9.617  0.1923  0.1385 -0.0106
  409POPI   C4B 6402   6.311  15.692   9.462 -0.1752 -0.0486  0.1748
  410POPI    C1 6403   4.459   6.486  11.961  0.1495  0.1813  0.0206
  410POPI    C2 6404   4.651   6.836  11.990  0.2286  0.1311  0.1073
  410POPI    C3 6405   4.507   6.658  12.319  0.1246  0.1177  0.0548
  410POPI   PO4 6406   4.557   6.461  11.628  0.0661  0.1086 -0.1715
  410POPI   GL1 6407   4.580   6.581  11.208 -0.2087  0.0596 -0.0125
  410POPI   GL2 6408   4.274   6.675  11.124 -0.2555 -0.0538 -0.1994
  410POPI   C1A 6409   4.642   6.611  10.708 -0.1102 -0.1550 -0.0680
  410POPI   D2A 6410   4.529   6.502  10.343 -0.0391 -0.0316  0.3315
  410POPI   C3A 6411   4.507   6.600   9.969 -0.0291  0.0196  0.1161
  410POPI   C4A 6412   4.632   6.381   9.614 -0.2309 -0.0233 -0.0050
  410POPI   C1B 6413   3.987   6.551  10.775 -0.0860 -0.0120 -0.1602
  410POPI   C2B 6414   3.960   6.591  10.344 -0.1976 -0.0816 -0.0046
  410POPI   C3B 6415   4.033   6.555   9.926 -0.0836 -0.1245 -0.0572
  410POPI   C4B 6416   4.125   6.474   9.539  0.1216 -0.2903 -0.2345
  411POPI    C1 6417  12.376   1.834  11.092  0.0862  0.1206  0.0214
  411POPI    C2 6418  12.603   1.728  10.780  0.0903 -0.2012  0.1297
  411POPI    C3 6419  12.773   1.803  11.135  0.0616 -0.0765  0.1178
  411POPI   PO4 6420  12.171   2.003  10.995 -0.1061  0.0032  0.1906
  411POPI   GL1 6421  12.189   2.254  10.662  0.1869  0.0346  0.2957
  411POPI   GL2 6422  12.203   2.552  10.478 -0.1081 -0.1063 -0.0261
  411POPI   C1A 6423  12.334   2.027  10.333  0.0569  0.1031  0.0803
  411POPI   D2A 6424  12.544   1.625  10.245  0.0794 -0.0292  0.1498
  411POPI   C3A 6425  12.677   1.561   9.843  0.0664 -0.2004  0.0848
  411POPI   C4A 6426  12.544   1.753   9.502  0.0901 -0.0850  0.0483
  411POPI   C1B 6427  12.193   2.479  10.047 -0.1708  0.1006  0.0880
  411POPI   C2B 6428  12.003   2.640   9.587 -0.1838  0.0808  0.0231
  411POPI   C3B 6429  11.951   2.621   9.236  0.1925 -0.1772 -0.0689
  411POPI   C4B 6430  12.008   2.328   8.862  0.0696  0.0565  0.1320
  412POPI    C1 6431   4.126   3.412  11.861  0.0522  0.0392  0.1160
  412POPI    C2 6432   4.211   3.079  12.065 -0.1526 -0.1726 -0.1371
  412POPI    C3 6433   4.307   3.436  12.217  0.3406 -0.3564  0.0029
  412POPI   PO4 6434   4.300   3.413  11.650  0.0789 -0.3550 -0.3998
  412POPI   GL1 6435   4.266   3.409  11.321  0.1589  0.1862 -0.1371
  412POPI   GL2 6436   3.955   3.444  11.246 -0.1365 -0.0178 -0.1019
  412POPI   C1A 6437   4.361   3.424  10.928 -0.2520 -0.0666 -0.1600
  412POPI   D2A 6438   4.471   3.339  10.572 -0.0716  0.0670  0.3430
  412POPI   C3A 6439   4.391   3.322  10.169  0.2381  0.1962 -0.0156
  412POPI   C4A 6440   4.496   3.370   9.772 -0.3961  0.2331  0.0507
  412POPI   C1B 6441   3.895   3.378  10.781  0.0179  0.1460  0.1686
  412POPI   C2B 6442   3.974   3.435  10.319 -0.1413 -0.2199 -0.0801
  412POPI   C3B 6443   3.977   3.303   9.876 -0.0715 -0.1441 -0.1521
  412POPI   C4B 6444   4.020   3.448   9.500  0.1356  0.0139 -0.0361
  413POPI    C1 6445   6.143  15.805  11.194 -0.2009  0.0819  0.2986
  413POPI    C2 6446   6.102  15.427  11.319 -0.0623 -0.0245  0.0297
  413POPI    C3 6447   6.283  15.697  11.553  0.0749 -0.1877  0.1139
  413POPI   PO4 6448   6.093  15.773  10.875  0.1677 -0.2023 -0.2424
  413POPI   GL1 6449   6.085  15.966  10.541  0.1420  0.1873  0.0868
  413POPI   GL2 6450   5.817  16.076  10.558 -0.1482  0.2004 -0.2840
  413POPI   C1A 6451   6.107  15.803  10.121 -0.1761  0.0329 -0.1289
  413POPI   D2A 6452   6.006  15.389   9.861  0.1064 -0.2343 -0.0317
  413POPI   C3A 6453   5.970  15.342   9.453  0.2299 -0.3719 -0.0837
  413POPI   C4A 6454   6.196  15.253   9.133 -0.4257  0.1814  0.1190
  413POPI   C1B 6455   5.852  16.242  10.145 -0.0043 -0.0662  0.2121
  413POPI   C2B 6456   5.775  16.379   9.773  0.2682 -0.1494 -0.3372
  413POPI   C3B 6457   5.832  16.260   9.370 -0.3143 -0.1442 -0.0809
  413POPI   C4B 6458   5.677  16.430   9.066  0.0899 -0.2423  0.1211
  414POPI    C1 6459   5.398   2.388  11.849 -0.0193  0.1151  0.2479
  414POPI    C2 6460   5.061   2.354  12.062 -0.0592 -0.2788  0.1298
  414POPI    C3 6461   5.392   2.499  12.233 -0.2592  0.0186  0.2736
  414POPI   PO4 6462   5.494   2.131  11.688 -0.1301  0.2014  0.0229
  414POPI   GL1 6463   5.685   2.049  11.264  0.0820 -0.1718  0.0773
  414POPI   GL2 6464   5.701   2.372  11.155 -0.1443 -0.0583 -0.0608
  414POPI   C1A 6465   5.785   1.717  11.057 -0.0142 -0.0471  0.2793
  414POPI   D2A 6466   6.003   1.620  10.756  0.0472  0.0987 -0.2632
  414POPI   C3A 6467   5.819   1.676  10.379  0.0488 -0.0334  0.0831
  414POPI   C4A 6468   5.706   1.803   9.924 -0.3912 -0.3099  0.1711
  414POPI   C1B 6469   5.596   2.432  10.697 -0.0582  0.1299 -0.2059
  414POPI   C2B 6470   5.465   2.338  10.309 -0.1095  0.0718 -0.0184
  414POPI   C3B 6471   5.492   2.353   9.926 -0.0405  0.0917  0.0362
  414POPI   C4B 6472   5.516   2.019   9.549  0.2305  0.1770 -0.2905
  415POPI    C1 6473  14.440   8.386  11.751 -0.0875 -0.1789  0.0776
  415POPI    C2 6474  14.731   8.615  11.904 -0.1953  0.1421 -0.1866
  415POPI    C3 6475  14.564   8.327  12.127  0.1760  0.0942  0.0370
  415POPI   PO4 6476  14.310   8.560  11.592 -0.0279 -0.2644 -0.1223
  415POPI   GL1 6477  14.263   8.518  11.194  0.0278 -0.2104 -0.1050
  415POPI   GL2 6478  13.936   8.714  11.230  0.2460  0.1255 -0.3922
  415POPI   C1A 6479  14.259   8.668  10.772  0.0137 -0.0730  0.1310
  415POPI   D2A 6480  14.144   8.453  10.404 -0.0257  0.0278  0.0876
  415POPI   C3A 6481  14.187   8.573  10.038 -0.1231 -0.0030  0.2497
  415POPI   C4A 6482  14.094   8.508   9.677  0.1067  0.0405 -0.1821
  415POPI   C1B 6483  13.726   8.619  10.802 -0.0652 -0.0509 -0.0642
  415POPI   C2B 6484  13.685   8.589  10.332  0.2645 -0.2453  0.0160
  415POPI   C3B 6485  13.682   8.592   9.861  0.0810 -0.0704  0.4392
  415POPI   C4B 6486  13.518   8.541   9.465 -0.0295 -0.1422 -0.1992
  416POPI    C1 6487  16.942   9.370  11.767 -0.0791 -0.1716  0.3358
  416POPI    C2 6488  17.227   9.649  11.739 -0.1554 -0.1273 -0.0566
  416POPI    C3 6489  16.958   9.667  12.034  0.0274  0.0362  0.1025
  416POPI   PO4 6490  16.838   9.370  11.530  0.0404 -0.2426 -0.2084
  416POPI   GL1 6491  16.896   9.195  11.141 -0.0060  0.0408 -0.0700
  416POPI   GL2 6492  17.006   9.458  11.040 -0.0977  0.0099 -0.1136
  416POPI   C1A 6493  16.780   9.098  10.754 -0.0994  0.0766  0.3152
  416POPI   D2A 6494  16.761   9.097  10.304  0.1974  0.2859  0.0218
  416POPI   C3A 6495  16.783   9.057   9.863  0.1208 -0.1355  0.1055
  416POPI   C4A 6496  16.822   9.165   9.560 -0.4642 -0.0315  0.2494
  416POPI   C1B 6497  16.848   9.544  10.607 -0.2600 -0.0632 -0.1197
  416POPI   C2B 6498  16.882   9.614  10.191 -0.1674  0.1886 -0.1309
  416POPI   C3B 6499  17.090   9.580   9.750 -0.0148  0.1188 -0.3164
  416POPI   C4B 6500  17.069   9.580   9.349  0.2210  0.2838  0.0189
  417POPI    C1 6501  11.349   9.764  11.928 -0.1826  0.0422 -0.1096
  417POPI    C2 6502  11.045  10.014  12.001 -0.2052 -0.0437  0.0969
  417POPI    C3 6503  11.002   9.622  12.068 -0.0113 -0.0417  0.2408
  417POPI   PO4 6504  11.385   9.769  11.727  0.2101  0.0536  0.0170
  417POPI   GL1 6505  11.692   9.802  11.347  0.3192 -0.0203  0.3516
  417POPI   GL2 6506  11.974   9.943  11.315 -0.0825  0.0540  0.0833
  417POPI   C1A 6507  11.680   9.662  10.887  0.3534 -0.2246  0.0528
  417POPI   D2A 6508  11.656   9.685  10.392 -0.0775  0.3538  0.1303
  417POPI   C3A 6509  11.746   9.589   9.969 -0.0819  0.0501 -0.0230
  417POPI   C4A 6510  11.727   9.671   9.562 -0.0813  0.0747 -0.3248
  417POPI   C1B 6511  11.997  10.136  10.946  0.0172 -0.1312 -0.1283
  417POPI   C2B 6512  11.861  10.091  10.575  0.2389  0.0883  0.0062
  417POPI   C3B 6513  11.987  10.060  10.097 -0.1034  0.0176  0.3146
  417POPI   C4B 6514  12.002  10.084   9.691 -0.2237  0.0614  0.1684
  418POPI    C1 6515   4.689   9.063  11.394  0.1750  0.0333 -0.0939
  418POPI    C2 6516   4.745   8.784  11.675 -0.4456 -0.1129 -0.1012
  418POPI    C3 6517   4.826   9.167  11.755 -0.3435 -0.1906  0.1790
  418POPI   PO4 6518   4.833   8.956  11.190  0.0838 -0.1934  0.4010
  418POPI   GL1 6519   4.640   8.737  10.913 -0.3319 -0.1493 -0.1903
  418POPI   GL2 6520   4.676   8.430  10.814  0.0987  0.1880  0.1184
  418POPI   C1A 6521   4.546   8.842  10.599  0.4624 -0.4448  0.0733
  418POPI   D2A 6522   4.314   8.831  10.162  0.0995  0.0515 -0.1119
  418POPI   C3A 6523   4.479   8.849   9.823 -0.0102  0.0227  0.0099
  418POPI   C4A 6524   4.502   8.905   9.473 -0.0168 -0.1174 -0.0585
  418POPI   C1B 6525   4.691   8.401  10.360  0.1539 -0.0860 -0.1006
  418POPI   C2B 6526   4.703   8.305   9.858  0.0337  0.0909 -0.2511
  418POPI   C3B 6527   4.821   8.285   9.453  0.0117 -0.1836 -0.1130
  418POPI   C4B 6528   4.511   8.161   9.255 -0.0672  0.3996 -0.2024
  419POPI    C1 6529   8.641   6.889  11.458 -0.0020  0.0782 -0.0397
  419POPI    C2 6530   8.418   6.764  11.766 -0.1106  0.0039 -0.1470
  419POPI    C3 6531   8.656   7.083  11.807 -0.0522 -0.0624  0.0417
  419POPI   PO4 6532   8.672   6.679  11.335  0.4088  0.1685 -0.0227
  419POPI   GL1 6533   8.910   6.713  10.942  0.0202  0.2332 -0.0616
  419POPI   GL2 6534   8.847   6.359  10.964 -0.1502 -0.0507 -0.0926
  419POPI   C1A 6535   8.821   6.924  10.526  0.3682 -0.0272 -0.0088
  419POPI   D2A 6536   8.787   6.982  10.186  0.2053 -0.1384 -0.0903
  419POPI   C3A 6537   8.740   6.992   9.793 -0.2387 -0.2250  0.2063
  419POPI   C4A 6538   8.912   7.155   9.318 -0.2873 -0.1035  0.1485
  419POPI   C1B 6539   8.523   6.549  10.717 -0.1096  0.0861 -0.0852
  419POPI   C2B 6540   8.576   6.524  10.312  0.3461 -0.2286 -0.0716
  419POPI   C3B 6541   8.513   6.587   9.956 -0.2132 -0.0466  0.0726
  419POPI   C4B 6542   8.467   6.671   9.548 -0.1673  0.1449 -0.0714
  420POPI    C1 6543  11.382  16.491  11.798 -0.1318 -0.2373 -0.3762
  420POPI    C2 6544  11.046  16.554  11.590 -0.3149 -0.3248 -0.1140
  420POPI    C3 6545  11.058  16.640  11.980 -0.0292 -0.3192 -0.1215
  420POPI   PO4 6546  11.595  16.494  11.530  0.1504 -0.2143  0.0402
  420POPI   GL1 6547  11.559  16.424  11.083  0.0683  0.0830 -0.1484
  420POPI   GL2 6548  11.784  16.487  10.847 -0.0078 -0.0886  0.0534
  420POPI   C1A 6549  11.374  16.278  10.774  0.0437  0.0672 -0.0928
  420POPI   D2A 6550  11.428  16.032  10.426 -0.1956 -0.0107 -0.3916
  420POPI   C3A 6551  11.548  16.047  10.112 -0.3647 -0.0170 -0.1622
  420POPI   C4A 6552  11.612  16.027   9.671 -0.1696  0.5599 -0.0615
  420POPI   C1B 6553  11.754  16.427  10.370 -0.0801  0.0460 -0.0942
  420POPI   C2B 6554  11.827  16.545   9.918  0.2005  0.0284  0.1190
  420POPI   C3B 6555  11.857  16.446   9.552 -0.2719  0.1648 -0.0373
  420POPI   C4B 6556  11.843  16.344   9.149 -0.0160 -0.2423 -0.0235
  421POPI    C1 6557  13.103  11.003  11.929 -0.0128 -0.0752  0.1856
  421POPI    C2 6558  12.898  11.208  12.204 -0.1572 -0.0522  0.0620
  421POPI    C3 6559  13.194  11.385  12.003 -0.2185  0.0073  0.0236
  421POPI   PO4 6560  12.889  10.868  11.733 -0.0825 -0.2828  0.0302
  421POPI   GL1 6561  12.931  10.600  11.307 -0.1908 -0.1658  0.3803
  421POPI   GL2 6562  12.983  10.912  11.232  0.1516  0.1142  0.1123
  421POPI   C1A 6563  13.244  10.555  10.920 -0.1152 -0.0326 -0.2818
  421POPI   D2A 6564  13.340  10.610  10.530 -0.0789  0.3476  0.2175
  421POPI   C3A 6565  13.217  10.375  10.128  0.0772  0.1118  0.2330
  421POPI   C4A 6566  13.277  10.423   9.660  0.3240 -0.0013 -0.0692
  421POPI   C1B 6567  13.023  10.958  10.764  0.1011  0.3179 -0.1471
  421POPI   C2B 6568  13.046  10.862  10.258 -0.0432  0.0526 -0.0704
  421POPI   C3B 6569  13.028  10.866   9.904 -0.4894 -0.1323 -0.1683
  421POPI   C4B 6570  12.924  10.945   9.446 -0.3129  0.1228 -0.2329
  422POPI    C1 6571  13.445  12.605  11.691 -0.1252 -0.2048  0.1379
  422POPI    C2 6572  13.053  12.685  11.711 -0.0355  0.2533  0.1596
  422POPI    C3 6573  13.295  12.792  12.011  0.1225  0.0545  0.1058
  422POPI   PO4 6574  13.506  12.743  11.439  0.0743  0.3142 -0.0688
  422POPI   GL1 6575  13.545  12.718  10.978  0.0600  0.0107  0.4702
  422POPI   GL2 6576  13.310  12.698  10.979  0.0355  0.0060  0.0754
  422POPI   C1A 6577  13.667  12.738  10.499 -0.1931  0.3588 -0.3005
  422POPI   D2A 6578  13.761  12.653  10.087  0.0147 -0.0157 -0.2776
  422POPI   C3A 6579  13.689  12.780   9.663  0.0754 -0.0147 -0.0463
  422POPI   C4A 6580  13.522  12.721   9.170  0.5911 -0.3560  0.0126
  422POPI   C1B 6581  13.204  12.695  10.439 -0.0615  0.0587 -0.1060
  422POPI   C2B 6582  13.187  12.710  10.011 -0.0638  0.0763 -0.1235
  422POPI   C3B 6583  13.178  12.659   9.577  0.1259 -0.1554  0.1428
  422POPI   C4B 6584  13.023  12.649   9.072 -0.0061 -0.2713  0.1048
  423DPPI    C1 6585   7.562  11.400  11.847 -0.2501 -0.1692  0.1068
  423DPPI    C2 6586   7.424  11.731  12.023  0.1634  0.1571 -0.1622
  423DPPI    C3 6587   7.771  11.572  12.142  0.0113 -0.1323 -0.0962
  423DPPI   PO4 6588   7.549  11.444  11.573  0.0802  0.2354  0.2119
  423DPPI   GL1 6589   7.314  11.542  11.168 -0.2861 -0.2502  0.4739
  423DPPI   GL2 6590   7.068  11.707  10.985  0.0814 -0.2432 -0.0570
  423DPPI   C1A 6591   7.397  11.412  10.769 -0.3186 -0.0623 -0.2609
  423DPPI   C2A 6592   7.392  11.245  10.432  0.0877  0.3190  0.1060
  423DPPI   C3A 6593   7.307  11.250   9.960 -0.1275  0.1214  0.1645
  423DPPI   C4A 6594   7.326  11.306   9.569 -0.1629 -0.0400  0.0511
  423DPPI   C1B 6595   6.904  11.601  10.562  0.1602 -0.1842 -0.2789
  423DPPI   C2B 6596   6.894  11.400  10.178  0.0211  0.1852 -0.1942
  423DPPI   C3B 6597   6.821  11.350   9.679  0.0384  0.2142 -0.0618
  423DPPI   C4B 6598   6.941  11.166   9.308 -0.2883 -0.1956  0.2518
  424DPPI    C1 6599   8.916   5.720  11.486  0.0713  0.0683 -0.1742
  424DPPI    C2 6600   9.256   5.854  11.325  0.2194 -0.0503  0.0347
  424DPPI    C3 6601   9.267   5.621  11.649 -0.0589 -0.1211 -0.0045
  424DPPI   PO4 6602   8.745   5.638  11.318 -0.2481 -0.2684  0.2198
  424DPPI   GL1 6603   8.614   5.405  11.020 -0.4314 -0.0166 -0.3917
  424DPPI   GL2 6604   8.801   5.204  10.932 -0.2644  0.0668  0.0107
  424DPPI   C1A 6605   8.529   5.500  10.609  0.1124  0.3198 -0.0325
  424DPPI   C2A 6606   8.415   5.616  10.275  0.0286  0.0109  0.1732
  424DPPI   C3A 6607   8.430   5.683   9.907  0.0483 -0.2388  0.1152
  424DPPI   C4A 6608   8.365   5.769   9.526  0.0047 -0.1453 -0.1354
  424DPPI   C1B 6609   8.810   5.113  10.488 -0.0267 -0.1274  0.1723
  424DPPI   C2B 6610   8.688   5.214  10.089  0.0300 -0.0125  0.0163
  424DPPI   C3B 6611   8.644   5.268   9.700 -0.3348  0.0049 -0.0379
  424DPPI   C4B 6612   8.519   5.382   9.251 -0.1491 -0.4445 -0.3747
  425DPPI    C1 6613  13.892  15.725  11.665 -0.0365 -0.1248  0.0840
  425DPPI    C2 6614  13.835  16.121  11.663 -0.1117 -0.1352  0.1414
  425DPPI    C3 6615  14.207  15.972  11.675 -0.0875 -0.0660  0.2627
  425DPPI   PO4 6616  13.717  15.644  11.453 -0.0199 -0.4780  0.3829
  425DPPI   GL1 6617  13.683  15.774  11.140 -0.2190  0.2044 -0.2092
  425DPPI   GL2 6618  13.854  15.546  10.989  0.0298  0.1690 -0.1378
  425DPPI   C1A 6619  13.543  15.879  10.697  0.0409  0.0190  0.1646
  425DPPI   C2A 6620  13.597  15.985  10.269  0.1064  0.1262  0.0509
  425DPPI   C3A 6621  13.614  15.836   9.887 -0.2422  0.2257  0.0894
  425DPPI   C4A 6622  13.597  15.777   9.363 -0.0386 -0.0669 -0.0181
  425DPPI   C1B 6623  13.836  15.496  10.674  0.0287  0.0639  0.1750
  425DPPI   C2B 6624  13.873  15.408  10.251  0.1024  0.0674 -0.1022
  425DPPI   C3B 6625  13.794  15.361   9.813 -0.0821  0.3561  0.0897
  425DPPI   C4B 6626  13.803  15.313   9.391 -0.0460 -0.2417 -0.3124
  426DPPI    C1 6627   8.297  12.662  11.312 -0.0454  0.2350 -0.0020
  426DPPI    C2 6628   8.544  12.654  11.626 -0.0348  0.1352 -0.0124
  426DPPI    C3 6629   8.154  12.578  11.676  0.0163 -0.1736 -0.0673
  426DPPI   PO4 6630   8.492  12.469  11.172  0.2945  0.0590 -0.0634
  426DPPI   GL1 6631   8.462  12.360  10.818 -0.1946  0.2193  0.0894
  426DPPI   GL2 6632   8.673  12.680  10.777  0.0731 -0.3766  0.0665
  426DPPI   C1A 6633   8.446  12.158  10.486  0.2266 -0.0910 -0.0515
  426DPPI   C2A 6634   8.412  12.047  10.127  0.0619  0.1603  0.0822
  426DPPI   C3A 6635   8.453  12.052   9.617  0.1571 -0.1354  0.0686
  426DPPI   C4A 6636   8.300  11.882   9.175  0.0815  0.1076 -0.0196
  426DPPI   C1B 6637   8.671  12.596  10.322 -0.3175 -0.2011 -0.2803
  426DPPI   C2B 6638   8.750  12.470   9.890 -0.1272  0.0583 -0.1648
  426DPPI   C3B 6639   8.758  12.414   9.402 -0.2163  0.2945  0.0926
  426DPPI   C4B 6640   8.773  12.251   9.038 -0.1574 -0.1720  0.0977
  427DPPI    C1 6641   9.149   4.908  11.454  0.0612 -0.0142  0.0012
  427DPPI    C2 6642   8.992   5.202  11.676  0.0058  0.0635 -0.1393
  427DPPI    C3 6643   9.386   5.133  11.684 -0.0215 -0.0763  0.1489
  427DPPI   PO4 6644   8.953   4.859  11.292  0.0968  0.4512 -0.0692
  427DPPI   GL1 6645   8.788   4.686  10.960 -0.0725  0.0901  0.0747
  427DPPI   GL2 6646   8.519   4.837  10.956 -0.1715  0.0525 -0.2018
  427DPPI   C1A 6647   8.956   4.586  10.597  0.2282 -0.2603 -0.2279
  427DPPI   C2A 6648   9.014   4.726  10.298 -0.0518 -0.3032 -0.0863
  427DPPI   C3A 6649   8.979   4.882   9.854 -0.3564 -0.0071  0.4098
  427DPPI   C4A 6650   8.827   4.920   9.386  0.3653 -0.2943 -0.1980
  427DPPI   C1B 6651   8.456   4.837  10.606 -0.1574  0.0413  0.0520
  427DPPI   C2B 6652   8.432   4.814  10.160 -0.0115 -0.0552  0.1814
  427DPPI   C3B 6653   8.395   4.863   9.738 -0.0893 -0.0475  0.0108
  427DPPI   C4B 6654   8.303   4.934   9.413  0.1053  0.0637  0.4372
  428DPPI    C1 6655   9.138   6.195  11.618 -0.1413 -0.0919 -0.0162
  428DPPI    C2 6656   8.840   6.428  11.746 -0.0371  0.0599 -0.0471
  428DPPI    C3 6657   9.137   6.330  11.995 -0.0601 -0.0072 -0.0459
  428DPPI   PO4 6658   9.182   6.365  11.331  0.3799  0.0435  0.0601
  428DPPI   GL1 6659   9.373   6.427  10.882  0.1648  0.0627 -0.3006
  428DPPI   GL2 6660   9.622   6.543  10.766  0.0416  0.1720 -0.1829
  428DPPI   C1A 6661   9.150   6.529  10.571 -0.0436  0.0481 -0.1053
  428DPPI   C2A 6662   9.094   6.623  10.132 -0.0996  0.1128  0.3555
  428DPPI   C3A 6663   8.943   6.525   9.771  0.2485  0.1068  0.1407
  428DPPI   C4A 6664   8.959   6.614   9.367  0.1795  0.2822 -0.0037
  428DPPI   C1B 6665   9.664   6.629  10.373  0.0837 -0.2166 -0.2286
  428DPPI   C2B 6666   9.542   6.631   9.956  0.2119  0.0337 -0.0836
  428DPPI   C3B 6667   9.641   6.616   9.509 -0.0549  0.0872 -0.0654
  428DPPI   C4B 6668   9.410   6.864   9.137  0.1543 -0.2506 -0.2826
  429DPPI    C1 6669  10.006  11.771  11.709  0.0569  0.0177  0.1258
  429DPPI    C2 6670  10.282  11.638  11.967  0.1585  0.0596  0.0396
  429DPPI    C3 6671   9.978  11.401  11.859  0.1911 -0.0066  0.0923
  429DPPI   PO4 6672  10.179  11.865  11.536 -0.0864 -0.1428 -0.2216
  429DPPI   GL1 6673  10.218  11.978  11.168 -0.1285 -0.1441  0.2379
  429DPPI   GL2 6674  10.271  12.263  11.133  0.1575 -0.3588 -0.1518
  429DPPI   C1A 6675   9.902  12.002  10.872  0.0618  0.0756 -0.0645
  429DPPI   C2A 6676   9.889  12.225  10.503 -0.0082 -0.1677 -0.2000
  429DPPI   C3A 6677   9.883  12.087  10.056  0.0789  0.4309 -0.1227
  429DPPI   C4A 6678  10.016  11.992   9.792  0.0986 -0.1236  0.1344
  429DPPI   C1B 6679  10.427  12.248  10.695  0.0679 -0.0106 -0.1406
  429DPPI   C2B 6680  10.362  11.969  10.279 -0.1819 -0.1365 -0.0542
  429DPPI   C3B 6681  10.511  11.963   9.880 -0.1772  0.0957 -0.0488
  429DPPI   C4B 6682  10.458  11.935   9.514  0.2456 -0.2768  0.2326
  430DPPI    C1 6683   1.380   4.315  11.628  0.1255  0.1131 -0.0762
  430DPPI    C2 6684   1.355   4.299  12.027  0.1465  0.0834 -0.0761
  430DPPI    C3 6685   1.553   4.015  11.828 -0.1953 -0.1181 -0.1369
  430DPPI   PO4 6686   1.071   4.464  11.624  0.1149  0.0578 -0.0672
  430DPPI   GL1 6687   0.992   4.831  11.237  0.1044 -0.0476 -0.1158
  430DPPI   GL2 6688   0.732   4.636  11.172 -0.1188  0.0163 -0.0021
  430DPPI   C1A 6689   1.166   4.880  10.861  0.0559  0.0018 -0.1478
  430DPPI   C2A 6690   1.249   4.811  10.454 -0.0536  0.0638 -0.0731
  430DPPI   C3A 6691   1.264   4.957  10.068 -0.0005  0.1197 -0.0568
  430DPPI   C4A 6692   1.127   4.868   9.721  0.0450 -0.0067  0.2291
  430DPPI   C1B 6693   0.901   4.459  10.732 -0.3146 -0.0437 -0.0502
  430DPPI   C2B 6694   0.960   4.416  10.400 -0.2137  0.0542 -0.2285
  430DPPI   C3B 6695   0.890   4.510   9.965 -0.1512  0.1357  0.0617
  430DPPI   C4B 6696   0.954   4.385   9.569 -0.0060 -0.1840  0.2456
  431DPPI    C1 6697   5.195   6.896  11.747 -0.3829 -0.0875 -0.0352
  431DPPI    C2 6698   5.405   6.753  12.057  0.0382 -0.0042 -0.2738
  431DPPI    C3 6699   5.134   7.042  12.114  0.1130  0.0110  0.0154
  431DPPI   PO4 6700   5.421   6.956  11.547  0.0436  0.0005  0.0356
  431DPPI   GL1 6701   5.524   6.911  11.034 -0.1541  0.3827  0.0335
  431DPPI   GL2 6702   5.529   7.241  11.072  0.3069  0.1478 -0.0424
  431DPPI   C1A 6703   5.377   6.934  10.606 -0.2630 -0.1484  0.0804
  431DPPI   C2A 6704   5.392   6.901  10.170 -0.0233 -0.0008  0.3076
  431DPPI   C3A 6705   5.382   6.828   9.771  0.2957 -0.0209 -0.0890
  431DPPI   C4A 6706   5.361   6.711   9.326  0.2087  0.0808  0.1973
  431DPPI   C1B 6707   5.492   7.453  10.707  0.1061 -0.2956  0.2146
  431DPPI   C2B 6708   5.318   7.386  10.327 -0.3416  0.0905  0.2035
  431DPPI   C3B 6709   5.252   7.324   9.860 -0.1301 -0.0673  0.0307
  431DPPI   C4B 6710   5.064   7.284   9.429  0.1765  0.2489  0.2516
  432DPPI    C1 6711  10.504   9.491  12.021  0.0661  0.0572 -0.2008
  432DPPI    C2 6712  10.563   9.887  12.026  0.1317  0.0462 -0.0730
  432DPPI    C3 6713  10.198   9.738  12.092  0.1207  0.0827 -0.0517
  432DPPI   PO4 6714  10.555   9.460  11.761  0.3149  0.0544  0.0454
  432DPPI   GL1 6715  10.459   9.418  11.362  0.0706  0.0413  0.1604
  432DPPI   GL2 6716  10.709   9.327  11.202 -0.0456  0.0757 -0.0538
  432DPPI   C1A 6717  10.229   9.639  10.986  0.0330 -0.2432  0.3591
  432DPPI   C2A 6718  10.079   9.756  10.493 -0.2242  0.1203 -0.2694
  432DPPI   C3A 6719  10.100   9.736   9.991 -0.0636  0.1518 -0.0349
  432DPPI   C4A 6720  10.110   9.751   9.612  0.2601 -0.0030 -0.0429
  432DPPI   C1B 6721  10.771   9.255  10.838 -0.4059  0.2074  0.0567
  432DPPI   C2B 6722  10.809   9.187  10.448 -0.0993  0.2180 -0.3686
  432DPPI   C3B 6723  10.862   9.266  10.068 -0.0640 -0.0812 -0.2035
  432DPPI   C4B 6724  10.850   9.228   9.672  0.2131 -0.0874 -0.1351
  433DPPI    C1 6725   0.802  15.372  11.648  0.0445  0.0102  0.0552
  433DPPI    C2 6726   0.546  15.507  11.372 -0.0262 -0.1540  0.0391
  433DPPI    C3 6727   0.585  15.700  11.721  0.0814  0.0686 -0.0938
  433DPPI   PO4 6728   1.040  15.410  11.463  0.1722  0.3270  0.0195
  433DPPI   GL1 6729   1.072  15.422  11.091 -0.0163 -0.1543  0.1974
  433DPPI   GL2 6730   1.104  15.198  10.943 -0.1394 -0.2251 -0.0448
  433DPPI   C1A 6731   0.852  15.630  10.775 -0.0711 -0.1061  0.2604
  433DPPI   C2A 6732   0.751  15.696  10.377  0.2676 -0.0770  0.0950
  433DPPI   C3A 6733   0.691  15.633   9.895  0.1093 -0.0965 -0.0997
  433DPPI   C4A 6734   0.570  15.663   9.467  0.1033  0.4037  0.2685
  433DPPI   C1B 6735   1.001  15.219  10.522 -0.0945 -0.2503  0.0087
  433DPPI   C2B 6736   0.949  15.261  10.197  0.0117 -0.2640 -0.1395
  433DPPI   C3B 6737   0.861  15.123   9.840 -0.0836 -0.2190 -0.0959
  433DPPI   C4B 6738   0.768  15.202   9.382  0.0450  0.1579 -0.1768
  434DPPI    C1 6739  16.155   0.189  11.695  0.0968  0.0386  0.0003
  434DPPI    C2 6740  16.479   0.336  11.878  0.1251  0.1050 -0.1026
  434DPPI    C3 6741  16.466  -0.050  11.772  0.0722  0.0441  0.1201
  434DPPI   PO4 6742  15.932   0.185  11.647 -0.1120  0.3208  0.0300
  434DPPI   GL1 6743  15.836   0.210  11.216  0.0206  0.0860 -0.1878
  434DPPI   GL2 6744  15.955   0.445  11.114  0.1319  0.1329 -0.0934
  434DPPI   C1A 6745  15.615   0.055  10.843  0.1102 -0.0759 -0.1310
  434DPPI   C2A 6746  15.581   0.112  10.410  0.0045  0.2428  0.1833
  434DPPI   C3A 6747  15.477   0.034   9.952  0.2118 -0.1535  0.1075
  434DPPI   C4A 6748  15.401   0.040   9.554 -0.1838 -0.3120 -0.2937
  434DPPI   C1B 6749  15.872   0.526  10.713  0.0569 -0.1708 -0.1204
  434DPPI   C2B 6750  15.887   0.650  10.352 -0.2180 -0.1901  0.2676
  434DPPI   C3B 6751  16.041   0.803   9.916 -0.2369  0.0923 -0.2143
  434DPPI   C4B 6752  16.205   0.992   9.620  0.1353  0.2087 -0.2653
  435DPPI    C1 6753   0.761   5.041  12.043  0.2376 -0.1916  0.1691
  435DPPI    C2 6754   0.783   4.976  12.437 -0.0602 -0.2051  0.1854
  435DPPI    C3 6755   0.532   4.761  12.212  0.0042 -0.0991  0.0104
  435DPPI   PO4 6756   0.861   5.278  11.991 -0.2793 -0.2006 -0.1426
  435DPPI   GL1 6757   1.063   5.356  11.443 -0.2036 -0.3197 -0.0650
  435DPPI   GL2 6758   1.208   5.657  11.212 -0.1364  0.1504  0.1318
  435DPPI   C1A 6759   0.953   5.277  11.035  0.1689  0.2117 -0.0922
  435DPPI   C2A 6760   0.968   5.312  10.536  0.2350 -0.1131 -0.2274
  435DPPI   C3A 6761   0.944   5.304  10.078 -0.6033 -0.1169 -0.1471
  435DPPI   C4A 6762   0.974   5.327   9.636 -0.0756 -0.0535 -0.1380
  435DPPI   C1B 6763   1.286   5.734  10.754  0.0669 -0.0303 -0.0025
  435DPPI   C2B 6764   1.211   5.758  10.313 -0.1760  0.0898 -0.3553
  435DPPI   C3B 6765   1.282   5.721   9.872 -0.0758 -0.0502  0.3709
  435DPPI   C4B 6766   1.374   5.700   9.457  0.1808  0.0537 -0.1233
  436DPPI    C1 6767   5.886  10.535  11.521  0.1119  0.0351 -0.2198
  436DPPI    C2 6768   5.931  10.435  11.906 -0.2019  0.0680 -0.1720
  436DPPI    C3 6769   6.076  10.197  11.619 -0.1434 -0.0592 -0.0380
  436DPPI   PO4 6770   5.712  10.593  11.458 -0.0586 -0.0295 -0.2507
  436DPPI   GL1 6771   5.498  10.674  11.105  0.1572 -0.0644 -0.1478
  436DPPI   GL2 6772   5.401  10.965  10.993  0.1854  0.0281  0.1120
  436DPPI   C1A 6773   5.617  10.580  10.807 -0.0464  0.2569  0.0158
  436DPPI   C2A 6774   5.718  10.600  10.405  0.1732 -0.0788  0.2575
  436DPPI   C3A 6775   5.758  10.579   9.976  0.1574  0.0785  0.0424
  436DPPI   C4A 6776   5.686  10.527   9.585  0.0769 -0.0604 -0.0051
  436DPPI   C1B 6777   5.456  10.998  10.622  0.0993 -0.0570  0.1092
  436DPPI   C2B 6778   5.465  10.956  10.218  0.0326 -0.2061 -0.1533
  436DPPI   C3B 6779   5.422  11.027   9.770  0.4173  0.0823  0.0660
  436DPPI   C4B 6780   5.613  10.882   9.246  0.2052 -0.0946  0.0224
  437DPPI    C1 6781   2.533   8.066  11.734 -0.0000  0.0868 -0.2362
  437DPPI    C2 6782   2.290   7.986  12.042 -0.1162  0.1428 -0.3124
  437DPPI    C3 6783   2.495   7.690  11.867 -0.0197  0.1165 -0.1574
  437DPPI   PO4 6784   2.439   8.179  11.573 -0.1307 -0.0352 -0.0123
  437DPPI   GL1 6785   2.417   8.237  11.164  0.2184  0.1259 -0.2977
  437DPPI   GL2 6786   2.615   8.480  11.070 -0.0085  0.0011  0.0092
  437DPPI   C1A 6787   2.333   7.986  10.872  0.2164 -0.1987  0.1681
  437DPPI   C2A 6788   2.352   8.062  10.394  0.0633  0.0607 -0.1566
  437DPPI   C3A 6789   2.245   8.032   9.998  0.1753  0.1303  0.1151
  437DPPI   C4A 6790   2.234   8.190   9.516 -0.0198 -0.2317 -0.3022
  437DPPI   C1B 6791   2.615   8.419  10.679  0.1392 -0.1116 -0.1307
  437DPPI   C2B 6792   2.571   8.484  10.271 -0.3344 -0.0939 -0.1098
  437DPPI   C3B 6793   2.596   8.581   9.833 -0.2654  0.0861 -0.0451
  437DPPI   C4B 6794   2.636   8.520   9.422 -0.1189 -0.0744 -0.0364
  438DPPI    C1 6795   5.651  15.860  11.040  0.0607 -0.2295 -0.0716
  438DPPI    C2 6796   5.693  15.895  11.436  0.0674 -0.1155 -0.0820
  438DPPI    C3 6797   5.546  15.558  11.280  0.2810 -0.2494  0.0020
  438DPPI   PO4 6798   5.463  16.099  11.017  0.2353 -0.4372  0.2664
  438DPPI   GL1 6799   5.158  16.296  10.745 -0.1979 -0.2898 -0.0238
  438DPPI   GL2 6800   5.159  16.536  10.933 -0.1395  0.0330  0.2036
  438DPPI   C1A 6801   5.378  16.124  10.354  0.2886 -0.1625  0.0696
  438DPPI   C2A 6802   5.283  16.213   9.950  0.1564  0.2161 -0.0065
  438DPPI   C3A 6803   5.364  16.124   9.558 -0.0567 -0.2502  0.1171
  438DPPI   C4A 6804   5.302  16.147   9.077  0.0955  0.0537 -0.0908
  438DPPI   C1B 6805   4.854  16.756  10.693  0.1599  0.1127  0.0756
  438DPPI   C2B 6806   4.864  16.600  10.271 -0.0331  0.0900  0.0563
  438DPPI   C3B 6807   4.872  16.662   9.867  0.2615 -0.2560  0.0151
  438DPPI   C4B 6808   4.873  16.620   9.424  0.2172 -0.2042  0.5397
  439DPPI    C1 6809   8.980   9.630  11.892 -0.1694  0.2521  0.2289
  439DPPI    C2 6810   9.084   9.284  12.064  0.0061  0.1120 -0.1471
  439DPPI    C3 6811   8.775   9.494  12.207  0.0060 -0.1116  0.1910
  439DPPI   PO4 6812   8.966   9.575  11.581 -0.0979  0.0922 -0.1406
  439DPPI   GL1 6813   9.231   9.616  11.165  0.0977 -0.0398 -0.1371
  439DPPI   GL2 6814   9.153   9.864  11.091 -0.1148 -0.0505 -0.0227
  439DPPI   C1A 6815   9.342   9.359  10.793 -0.1134 -0.2721 -0.0472
  439DPPI   C2A 6816   9.358   9.375  10.381 -0.0961 -0.1522  0.1286
  439DPPI   C3A 6817   9.396   9.348   9.968 -0.2389 -0.0423  0.0819
  439DPPI   C4A 6818   9.314   9.365   9.581 -0.0773  0.1124 -0.0676
  439DPPI   C1B 6819   9.045   9.825  10.600 -0.0090 -0.1624 -0.0049
  439DPPI   C2B 6820   9.116   9.813  10.138  0.2506 -0.0257 -0.1352
  439DPPI   C3B 6821   9.134   9.763   9.796  0.2506  0.1420 -0.0031
  439DPPI   C4B 6822   8.993   9.800   9.343 -0.1293  0.1727  0.1210
  440DPPI    C1 6823   6.181  13.374  11.209  0.0119  0.0978 -0.1729
  440DPPI    C2 6824   6.164  13.341  11.607  0.1358 -0.1536 -0.1859
  440DPPI    C3 6825   6.100  13.695  11.433  0.2261 -0.0103  0.0658
  440DPPI   PO4 6826   6.044  13.178  11.128  0.0794 -0.0310 -0.0783
  440DPPI   GL1 6827   5.789  13.276  10.771  0.0302  0.0480  0.1678
  440DPPI   GL2 6828   6.074  13.311  10.537 -0.1249 -0.1914 -0.2517
  440DPPI   C1A 6829   5.662  12.911  10.441  0.0228  0.1234 -0.1532
  440DPPI   C2A 6830   5.687  12.915   9.997 -0.0283 -0.2385  0.0527
  440DPPI   C3A 6831   5.630  12.804   9.580 -0.3422 -0.1176  0.3419
  440DPPI   C4A 6832   5.635  12.661   9.214 -0.0352 -0.1896 -0.0975
  440DPPI   C1B 6833   6.027  13.234  10.138 -0.1065  0.2518  0.0971
  440DPPI   C2B 6834   5.977  13.213   9.675  0.0211 -0.3023 -0.1813
  440DPPI   C3B 6835   6.008  13.142   9.331 -0.2623  0.0085 -0.4238
  440DPPI   C4B 6836   5.933  13.310   8.926 -0.1066  0.0249  0.1059
  441DPPI    C1 6837  15.009   5.959  11.666 -0.1936 -0.1530  0.0043
  441DPPI    C2 6838  15.139   6.241  11.919 -0.1192 -0.0827 -0.1116
  441DPPI    C3 6839  14.750   6.147  11.906 -0.1394 -0.0077 -0.0505
  441DPPI   PO4 6840  15.101   6.021  11.424 -0.0300  0.1036 -0.2279
  441DPPI   GL1 6841  14.990   5.834  11.078  0.2867 -0.1349 -0.1645
  441DPPI   GL2 6842  15.033   5.511  11.024 -0.0516 -0.2320 -0.1677
  441DPPI   C1A 6843  15.094   6.138  10.674 -0.1262  0.0458 -0.2377
  441DPPI   C2A 6844  15.195   6.100  10.297 -0.2253  0.0991  0.0123
  441DPPI   C3A 6845  15.271   6.106   9.802  0.1114 -0.0410  0.2544
  441DPPI   C4A 6846  15.304   6.123   9.395 -0.1857 -0.3610  0.4331
  441DPPI   C1B 6847  15.193   5.658  10.646 -0.2967 -0.0905  0.2978
  441DPPI   C2B 6848  15.318   5.594  10.164  0.0338 -0.0103 -0.0621
  441DPPI   C3B 6849  15.461   5.642   9.763  0.0004  0.0790 -0.2017
  441DPPI   C4B 6850  15.489   5.601   9.324  0.1374  0.0785 -0.2276
  442DPPI    C1 6851  13.085   2.620  11.081  0.2435  0.2908  0.1321
  442DPPI    C2 6852  13.254   2.553  11.437  0.2864 -0.0519  0.0508
  442DPPI    C3 6853  13.141   2.245  11.208 -0.1111  0.1686 -0.0592
  442DPPI   PO4 6854  12.886   2.730  11.020  0.0552 -0.2836 -0.2794
  442DPPI   GL1 6855  12.704   2.837  10.643 -0.1219 -0.0769 -0.0053
  442DPPI   GL2 6856  12.398   3.042  10.598 -0.1250 -0.2082  0.1591
  442DPPI   C1A 6857  12.480   2.833  10.153  0.0591  0.3087 -0.2713
  442DPPI   C2A 6858  12.417   3.024   9.748 -0.2704  0.1858 -0.1670
  442DPPI   C3A 6859  12.479   3.173   9.325  0.0530  0.1185  0.0901
  442DPPI   C4A 6860  12.331   3.260   8.963 -0.1031 -0.1154 -0.0189
  442DPPI   C1B 6861  12.333   3.336  10.207 -0.1199  0.1091 -0.0030
  442DPPI   C2B 6862  12.246   3.455   9.720  0.1974 -0.1304 -0.0428
  442DPPI   C3B 6863  12.146   3.508   9.364  0.0600  0.0513  0.1645
  442DPPI   C4B 6864  12.038   3.951   9.044  0.1270 -0.0167  0.1843
  443DPPI    C1 6865   4.325   9.402  11.542  0.0463  0.0087 -0.1266
  443DPPI    C2 6866   4.271   9.741  11.747  0.1199  0.0127 -0.1133
  443DPPI    C3 6867   4.463   9.434  11.916  0.0843 -0.0232 -0.1379
  443DPPI   PO4 6868   4.358   9.423  11.300 -0.1299 -0.2217  0.2002
  443DPPI   GL1 6869   4.461   9.199  10.952 -0.0674  0.0859 -0.0411
  443DPPI   GL2 6870   4.721   9.258  10.773 -0.0798 -0.0086 -0.0221
  443DPPI   C1A 6871   4.244   9.234  10.518  0.0674 -0.1763 -0.3516
  443DPPI   C2A 6872   4.116   9.259  10.149  0.1836 -0.0184  0.0049
  443DPPI   C3A 6873   4.178   9.337   9.689  0.1671  0.1146  0.1445
  443DPPI   C4A 6874   4.256   9.219   9.184 -0.1562  0.2901 -0.0666
  443DPPI   C1B 6875   4.669   9.246  10.261 -0.0449 -0.0107  0.1288
  443DPPI   C2B 6876   4.746   9.295   9.812  0.0448  0.0426 -0.0007
  443DPPI   C3B 6877   4.863   9.284   9.418 -0.2889 -0.1972 -0.1118
  443DPPI   C4B 6878   5.045   9.082   9.041 -0.0690 -0.0455  0.1026
  444DPPI    C1 6879   0.626   0.543  11.678 -0.3938  0.4744  0.1396
  444DPPI    C2 6880   0.921   0.738  11.491 -0.1708 -0.1569 -0.1998
  444DPPI    C3 6881   0.926   0.701  11.889  0.2613 -0.2361 -0.2081
  444DPPI   PO4 6882   0.503   0.372  11.418  0.0686  0.1136  0.0614
  444DPPI   GL1 6883   0.300   0.408  10.976  0.0990  0.2351 -0.1764
  444DPPI   GL2 6884   0.044   0.187  11.129  0.1446 -0.4394  0.2050
  444DPPI   C1A 6885   0.284   0.457  10.466  0.2422 -0.4677  0.2689
  444DPPI   C2A 6886   0.344   0.481   9.968 -0.3725  0.0170 -0.2783
  444DPPI   C3A 6887   0.268   0.405   9.555 -0.0454  0.0507  0.1925
  444DPPI   C4A 6888   0.361   0.513   9.141  0.0276  0.2186  0.3511
  444DPPI   C1B 6889   0.123   0.041  10.707 -0.2874  0.0385  0.1890
  444DPPI   C2B 6890   0.058  -0.031  10.219 -0.1641  0.0950 -0.0143
  444DPPI   C3B 6891  -0.001  -0.069   9.771 -0.0076 -0.0604  0.0506
  444DPPI   C4B 6892  -0.050  -0.075   9.339  0.1684  0.3028 -0.1568
  445DPPI    C1 6893   8.009   7.110  11.755  0.1201 -0.1851 -0.3808
  445DPPI    C2 6894   7.666   6.991  11.587 -0.2980  0.3630  0.0468
  445DPPI    C3 6895   7.780   6.840  11.940  0.0272  0.0144 -0.1997
  445DPPI   PO4 6896   8.220   7.229  11.598  0.0927 -0.0601  0.1773
  445DPPI   GL1 6897   8.195   7.455  11.234 -0.0414 -0.2884 -0.3149
  445DPPI   GL2 6898   7.932   7.202  11.149  0.0809  0.1828  0.1064
  445DPPI   C1A 6899   8.400   7.696  10.863  0.1407 -0.0248  0.0489
  445DPPI   C2A 6900   8.502   7.785  10.423 -0.0883  0.0386  0.0313
  445DPPI   C3A 6901   8.370   7.922  10.042  0.1105 -0.1589  0.2442
  445DPPI   C4A 6902   8.499   8.070   9.673  0.2001 -0.3327  0.0457
  445DPPI   C1B 6903   7.974   7.430  10.728  0.0343  0.2074  0.1536
  445DPPI   C2B 6904   7.817   7.399  10.352  0.2160 -0.2008  0.0523
  445DPPI   C3B 6905   7.995   7.524   9.928  0.0484 -0.0908  0.0319
  445DPPI   C4B 6906   8.177   7.556   9.560  0.1678  0.0422  0.1502
  446DPPI    C1 6907   4.089   7.709  12.099 -0.1434  0.0806  0.0008
  446DPPI    C2 6908   4.264   7.443  12.340 -0.3358  0.0793  0.1415
  446DPPI    C3 6909   4.310   7.834  12.408 -0.1030  0.0839 -0.0293
  446DPPI   PO4 6910   3.984   7.438  11.849  0.1033 -0.1066  0.3364
  446DPPI   GL1 6911   3.739   7.366  11.463  0.2056  0.0700  0.0999
  446DPPI   GL2 6912   3.884   7.123  11.486 -0.2318 -0.1789  0.2530
  446DPPI   C1A 6913   3.636   7.374  11.115 -0.1507 -0.0812  0.1658
  446DPPI   C2A 6914   3.597   7.488  10.634 -0.2873 -0.0724  0.0089
  446DPPI   C3A 6915   3.541   7.468  10.200  0.1219 -0.0580  0.0873
  446DPPI   C4A 6916   3.540   7.580   9.816  0.0099  0.3465  0.2387
  446DPPI   C1B 6917   3.913   6.945  11.061 -0.1091  0.0480 -0.0469
  446DPPI   C2B 6918   3.787   6.997  10.622 -0.2083 -0.2330 -0.0062
  446DPPI   C3B 6919   3.784   7.045  10.204 -0.2297  0.0114  0.1241
  446DPPI   C4B 6920   3.735   7.093   9.737 -0.2316 -0.0377  0.2161
  447DPPI    C1 6921  16.132   5.478  11.849  0.0671 -0.0228  0.1511
  447DPPI    C2 6922  15.786   5.610  12.002  0.0220  0.1166 -0.0665
  447DPPI    C3 6923  16.129   5.676  12.197 -0.1029 -0.2998  0.3111
  447DPPI   PO4 6924  16.021   5.195  11.787 -0.1211 -0.1865  0.0280
  447DPPI   GL1 6925  16.175   5.210  11.376  0.4798 -0.0913 -0.0089
  447DPPI   GL2 6926  16.379   5.468  11.416 -0.2697 -0.0132  0.0889
  447DPPI   C1A 6927  16.437   5.022  11.084 -0.4088 -0.0960  0.0367
  447DPPI   C2A 6928  16.531   5.052  10.724  0.0614  0.1236  0.0905
  447DPPI   C3A 6929  16.585   5.140  10.261  0.4692  0.5226  0.1350
  447DPPI   C4A 6930  16.671   5.022   9.901 -0.2523  0.0045 -0.1148
  447DPPI   C1B 6931  16.299   5.596  10.919 -0.0622 -0.0838  0.0292
  447DPPI   C2B 6932  16.382   5.666  10.461  0.1513 -0.0929 -0.0851
  447DPPI   C3B 6933  16.353   5.500  10.047  0.1983 -0.0162 -0.1936
  447DPPI   C4B 6934  16.539   5.467   9.742  0.1510  0.0488  0.1215
  448DPPI    C1 6935  15.344   1.134  11.434  0.0415 -0.0496 -0.1300
  448DPPI    C2 6936  15.003   0.938  11.362  0.0022 -0.0225 -0.0204
  448DPPI    C3 6937  15.292   0.765  11.579  0.0120 -0.0016 -0.0168
  448DPPI   PO4 6938  15.212   1.343  11.301 -0.0142 -0.2434 -0.1921
  448DPPI   GL1 6939  15.337   1.549  10.940  0.2968 -0.0349 -0.0191
  448DPPI   GL2 6940  15.002   1.743  10.872  0.0447  0.1011 -0.0945
  448DPPI   C1A 6941  15.616   1.517  10.600 -0.0976  0.2375 -0.0834
  448DPPI   C2A 6942  15.619   1.521  10.232 -0.0605 -0.0171  0.4534
  448DPPI   C3A 6943  15.490   1.500   9.716 -0.0077 -0.0812 -0.0883
  448DPPI   C4A 6944  15.499   1.421   9.272 -0.0830  0.0274  0.1854
  448DPPI   C1B 6945  15.138   1.806  10.433 -0.0900 -0.1805 -0.4031
  448DPPI   C2B 6946  15.125   1.782   9.944 -0.1070 -0.0614 -0.1678
  448DPPI   C3B 6947  14.981   1.674   9.488 -0.1687  0.0257 -0.0830
  448DPPI   C4B 6948  15.009   1.478   9.185 -0.2934 -0.0619  0.3320
  449DPPI    C1 6949  15.141   8.143  11.955 -0.0516 -0.2001  0.0804
  449DPPI    C2 6950  15.060   8.342  12.292 -0.0333  0.2987 -0.2010
  449DPPI    C3 6951  15.438   8.306  12.166 -0.0300  0.0220 -0.1173
  449DPPI   PO4 6952  14.970   8.188  11.786 -0.1633  0.2744 -0.0857
  449DPPI   GL1 6953  14.951   8.123  11.432 -0.0436  0.0821  0.0193
  449DPPI   GL2 6954  14.763   8.449  11.367  0.0125 -0.0512 -0.1617
  449DPPI   C1A 6955  14.841   8.078  10.979 -0.0228 -0.1553  0.0240
  449DPPI   C2A 6956  14.795   8.010  10.588 -0.2190 -0.2126 -0.1406
  449DPPI   C3A 6957  14.889   8.028  10.104  0.0343  0.0092 -0.1028
  449DPPI   C4A 6958  14.863   8.008   9.672 -0.2931 -0.0377 -0.1454
  449DPPI   C1B 6959  14.730   8.551  10.890  0.1675  0.1447 -0.0602
  449DPPI   C2B 6960  14.651   8.498  10.362  0.0433  0.0202 -0.4406
  449DPPI   C3B 6961  14.651   8.477   9.922 -0.2697  0.0298 -0.2903
  449DPPI   C4B 6962  14.583   8.416   9.482  0.3484 -0.0979  0.2379
  450DPPI    C1 6963   8.893  13.981  11.715 -0.2235 -0.0323  0.0284
  450DPPI    C2 6964   8.804  13.844  12.080  0.1408  0.1468  0.1896
  450DPPI    C3 6965   8.656  14.194  11.957 -0.1682 -0.0208  0.0726
  450DPPI   PO4 6966   8.858  13.818  11.572  0.1991 -0.3569 -0.1128
  450DPPI   GL1 6967   8.965  13.590  11.097  0.2312 -0.0750  0.2943
  450DPPI   GL2 6968   8.961  13.255  10.952 -0.1777 -0.2413  0.0146
  450DPPI   C1A 6969   9.146  13.580  10.607  0.2380 -0.0212 -0.1621
  450DPPI   C2A 6970   9.234  13.443  10.267  0.1536 -0.1684  0.0247
  450DPPI   C3A 6971   9.230  13.420   9.878  0.4271 -0.0033 -0.1882
  450DPPI   C4A 6972   9.292  13.339   9.647 -0.0561  0.0539  0.1400
  450DPPI   C1B 6973   8.938  13.066  10.541 -0.1916 -0.2426  0.0284
  450DPPI   C2B 6974   8.999  12.985  10.182 -0.1740  0.1649 -0.0889
  450DPPI   C3B 6975   9.043  12.964   9.783 -0.0532 -0.3350  0.0004
  450DPPI   C4B 6976   9.184  12.861   9.382 -0.1179 -0.0589 -0.0912
  451DPPI    C1 6977   2.914   2.847  11.878  0.0243  0.1774  0.1238
  451DPPI    C2 6978   3.147   2.536  11.973 -0.0574  0.0940  0.0527
  451DPPI    C3 6979   2.770   2.552  12.107  0.0080  0.2607  0.2221
  451DPPI   PO4 6980   2.887   2.880  11.525  0.0231  0.0349  0.0884
  451DPPI   GL1 6981   2.670   2.573  11.208 -0.0477 -0.1060 -0.2711
  451DPPI   GL2 6982   2.862   2.464  10.938  0.2282 -0.2987 -0.4216
  451DPPI   C1A 6983   2.562   2.901  10.959  0.0243  0.1146 -0.3045
  451DPPI   C2A 6984   2.573   2.979  10.506 -0.0106 -0.0319 -0.4160
  451DPPI   C3A 6985   2.677   2.944  10.011 -0.1058 -0.2114 -0.4599
  451DPPI   C4A 6986   2.700   2.917   9.614  0.2403  0.0375  0.0417
  451DPPI   C1B 6987   2.780   2.549  10.634 -0.0751  0.2804  0.0729
  451DPPI   C2B 6988   2.923   2.521  10.206  0.1956 -0.0390  0.0509
  451DPPI   C3B 6989   3.008   2.472   9.749  0.1969 -0.1468  0.2566
  451DPPI   C4B 6990   2.935   2.569   9.350  0.2188  0.0227 -0.0145
  452DPPI    C1 6991   8.947  10.360  11.611 -0.0287  0.0364  0.0135
  452DPPI    C2 6992   8.700  10.045  11.631  0.2613 -0.1880  0.1426
  452DPPI    C3 6993   8.931  10.138  11.944  0.1791  0.1554  0.1049
  452DPPI   PO4 6994   9.065  10.362  11.408  0.1562 -0.4005 -0.0534
  452DPPI   GL1 6995   9.276  10.330  11.195  0.2587 -0.1125  0.0616
  452DPPI   GL2 6996   9.507  10.242  11.182 -0.0071  0.1636 -0.0494
  452DPPI   C1A 6997   9.221  10.309  10.813  0.0207  0.2458 -0.0777
  452DPPI   C2A 6998   9.378  10.220  10.392  0.1504 -0.2152 -0.1252
  452DPPI   C3A 6999   9.332  10.256   9.993 -0.2192 -0.0016  0.0792
  452DPPI   C4A 7000   9.289  10.215   9.544 -0.2235  0.0945 -0.1901
  452DPPI   C1B 7001   9.720  10.228  10.719  0.1752  0.0883 -0.2368
  452DPPI   C2B 7002   9.864  10.187  10.255 -0.4685 -0.3756 -0.1751
  452DPPI   C3B 7003   9.834  10.181   9.834  0.1818 -0.0048 -0.0873
  452DPPI   C4B 7004   9.767  10.117   9.362  0.1079  0.0827 -0.0558
  453DPPI    C1 7005   6.806  16.746  11.681  0.2079  0.2127 -0.0086
  453DPPI    C2 7006   6.929  16.371  11.617 -0.1321  0.0852  0.0628
  453DPPI    C3 7007   7.083  16.584  11.919 -0.0996 -0.0765  0.1617
  453DPPI   PO4 7008   6.738  16.918  11.473  0.4621 -0.1441  0.2151
  453DPPI   GL1 7009   6.584  17.054  11.016  0.0343  0.0388  0.0796
  453DPPI   GL2 7010   6.505  17.276  10.856  0.1180 -0.0379  0.2781
  453DPPI   C1A 7011   6.546  16.865  10.636  0.2412  0.1649  0.1647
  453DPPI   C2A 7012   6.575  16.872  10.137 -0.1077  0.0103  0.0559
  453DPPI   C3A 7013   6.698  17.019   9.786 -0.0752 -0.2339  0.0565
  453DPPI   C4A 7014   6.943  17.014   9.430  0.0521  0.0894 -0.0775
  453DPPI   C1B 7015   6.545  17.367  10.442 -0.3049  0.0032  0.1557
  453DPPI   C2B 7016   6.612  17.540  10.120  0.1668 -0.3337 -0.1211
  453DPPI   C3B 7017   6.641  17.523   9.735  0.2045  0.3001 -0.0730
  453DPPI   C4B 7018   6.574  17.365   9.305  0.0214 -0.1867  0.1692
  454DPPI    C1 7019   9.036   2.592  11.687  0.0231  0.0867 -0.1577
  454DPPI    C2 7020   9.314   2.689  11.958  0.0975 -0.0846 -0.1718
  454DPPI    C3 7021   8.942   2.602  12.076  0.0732  0.0550 -0.1448
  454DPPI   PO4 7022   9.101   2.762  11.449  0.0378  0.0918  0.1253
  454DPPI   GL1 7023   9.222   2.927  11.021 -0.1664  0.0016  0.4256
  454DPPI   GL2 7024   8.843   2.755  10.965 -0.0227 -0.0942 -0.2011
  454DPPI   C1A 7025   9.370   2.800  10.702 -0.0065  0.1859  0.0155
  454DPPI   C2A 7026   9.342   2.764  10.243  0.0012 -0.0998 -0.1539
  454DPPI   C3A 7027   9.351   2.802   9.768  0.0943 -0.1862  0.1408
  454DPPI   C4A 7028   9.219   3.005   9.318  0.0086 -0.1849 -0.0313
  454DPPI   C1B 7029   8.887   2.811  10.543  0.1548 -0.3273 -0.1261
  454DPPI   C2B 7030   8.860   2.844  10.144 -0.0409  0.0577 -0.2992
  454DPPI   C3B 7031   8.876   2.759   9.711 -0.0974  0.1384  0.0862
  454DPPI   C4B 7032   8.895   2.636   9.414 -0.0265  0.0709  0.3025
  455DPPI    C1 7033  16.874   4.908  12.101  0.0277  0.0960  0.0154
  455DPPI    C2 7034  16.907   4.596  12.350 -0.1211  0.0678  0.0006
  455DPPI    C3 7035  17.034   4.958  12.465  0.0598  0.0007  0.0146
  455DPPI   PO4 7036  16.865   4.753  11.839  0.0477 -0.0450 -0.1802
  455DPPI   GL1 7037  16.812   4.555  11.418  0.0074 -0.1195  0.2259
  455DPPI   GL2 7038  16.815   4.887  11.341  0.2721  0.0358  0.0579
  455DPPI   C1A 7039  16.747   4.447  11.014 -0.0338  0.0987 -0.3005
  455DPPI   C2A 7040  16.829   4.598  10.631  0.1455  0.1475 -0.3453
  455DPPI   C3A 7041  16.894   4.533  10.211 -0.2156  0.0253 -0.0363
  455DPPI   C4A 7042  16.934   4.636   9.739  0.0791 -0.1953 -0.1103
  455DPPI   C1B 7043  17.042   5.006  11.052 -0.1943  0.0111 -0.0516
  455DPPI   C2B 7044  17.106   5.059  10.623  0.6082 -0.0643 -0.1055
  455DPPI   C3B 7045  17.154   5.039  10.156  0.1959 -0.1805  0.3015
  455DPPI   C4B 7046  17.230   4.991   9.659 -0.0625  0.1479  0.1808
  456DPPI    C1 7047   7.821   2.979  11.576 -0.0332 -0.2576 -0.1066
  456DPPI    C2 7048   8.062   2.688  11.709  0.1516 -0.1322 -0.1617
  456DPPI    C3 7049   8.183   3.069  11.722 -0.1958 -0.0272  0.1632
  456DPPI   PO4 7050   7.734   2.851  11.340 -0.1311  0.0663  0.0992
  456DPPI   GL1 7051   7.404   2.656  11.106 -0.0735 -0.1068 -0.1575
  456DPPI   GL2 7052   7.357   2.442  10.976  0.1154  0.2284 -0.1005
  456DPPI   C1A 7053   7.488   2.675  10.600  0.1201 -0.0722 -0.1197
  456DPPI   C2A 7054   7.406   2.665  10.158  0.1318 -0.1106  0.1015
  456DPPI   C3A 7055   7.383   2.751   9.773  0.2446 -0.1863 -0.3138
  456DPPI   C4A 7056   7.364   2.792   9.337 -0.0400  0.2812  0.0615
  456DPPI   C1B 7057   7.247   2.232  10.647  0.0332  0.1577 -0.0605
  456DPPI   C2B 7058   7.170   2.238  10.220 -0.1203  0.0882  0.0085
  456DPPI   C3B 7059   7.046   2.174   9.800 -0.1645  0.0478  0.0383
  456DPPI   C4B 7060   7.044   2.069   9.295  0.1625 -0.0341  0.0878
  457DPPI    C1 7061   7.566   4.049  11.698 -0.0572  0.0040  0.1079
  457DPPI    C2 7062   7.879   4.135  11.931  0.0848 -0.1598 -0.0198
  457DPPI    C3 7063   7.545   3.988  12.093  0.0159  0.1604  0.1364
  457DPPI   PO4 7064   7.665   3.921  11.495  0.2580  0.1607  0.2647
  457DPPI   GL1 7065   7.652   4.020  11.045 -0.1811  0.1798 -0.2064
  457DPPI   GL2 7066   7.342   3.975  10.908  0.2157  0.0231 -0.1245
  457DPPI   C1A 7067   7.910   3.954  10.658 -0.1698  0.1409 -0.0957
  457DPPI   C2A 7068   7.884   4.041  10.233  0.0474  0.1574 -0.1456
  457DPPI   C3A 7069   7.931   3.947   9.859 -0.0381 -0.0715  0.0835
  457DPPI   C4A 7070   7.691   4.059   9.418 -0.1950 -0.0743 -0.2633
  457DPPI   C1B 7071   7.438   3.934  10.452  0.3117  0.0789  0.0593
  457DPPI   C2B 7072   7.375   4.061  10.054 -0.0078  0.0600  0.0318
  457DPPI   C3B 7073   7.286   4.073   9.698 -0.0030 -0.0617  0.0762
  457DPPI   C4B 7074   7.125   3.990   9.290  0.0809 -0.1057  0.0508
  458DPPI    C1 7075   9.724   6.834  11.550  0.0333 -0.0349 -0.3016
  458DPPI    C2 7076   9.559   6.964  11.890  0.2145  0.0214 -0.2337
  458DPPI    C3 7077   9.484   6.593  11.760  0.2673 -0.0543 -0.0512
  458DPPI   PO4 7078   9.634   7.032  11.444  0.4435  0.0016  0.1661
  458DPPI   GL1 7079   9.824   7.194  11.165  0.0460  0.1002  0.0033
  458DPPI   GL2 7080   9.709   7.480  11.121 -0.1841 -0.2459  0.0589
  458DPPI   C1A 7081   9.950   7.122  10.820  0.1685 -0.1297 -0.3147
  458DPPI   C2A 7082  10.023   7.045  10.415 -0.0565  0.2476  0.0164
  458DPPI   C3A 7083   9.933   7.065  10.095 -0.0738  0.5553 -0.2386
  458DPPI   C4A 7084   9.779   7.004   9.763  0.0668 -0.2401 -0.1140
  458DPPI   C1B 7085   9.728   7.550  10.678 -0.0497 -0.0623 -0.0469
  458DPPI   C2B 7086   9.751   7.550  10.200  0.3670 -0.2115 -0.5410
  458DPPI   C3B 7087   9.655   7.538   9.875 -0.1660  0.0618  0.2138
  458DPPI   C4B 7088   9.877   7.409   9.443 -0.2401 -0.0408 -0.0620
  459DPPI    C1 7089   6.597  15.136  11.091 -0.1031 -0.0496  0.0149
  459DPPI    C2 7090   6.564  15.258  11.471  0.0681  0.0238  0.0067
  459DPPI    C3 7091   6.830  14.974  11.374 -0.0770 -0.0992 -0.0345
  459DPPI   PO4 7092   6.340  15.239  10.924 -0.0104 -0.1940 -0.1466
  459DPPI   GL1 7093   6.165  15.159  10.517 -0.1748  0.0877 -0.0742
  459DPPI   GL2 7094   6.152  15.455  10.497  0.3079  0.3138 -0.2956
  459DPPI   C1A 7095   6.263  14.992  10.128 -0.0519  0.1395 -0.1274
  459DPPI   C2A 7096   6.316  15.039   9.727 -0.0667  0.2280 -0.1270
  459DPPI   C3A 7097   6.236  14.830   9.329  0.4195  0.3243  0.0235
  459DPPI   C4A 7098   6.138  14.797   8.852  0.1619  0.1143  0.2634
  459DPPI   C1B 7099   6.452  15.437  10.191 -0.0461 -0.1201 -0.0450
  459DPPI   C2B 7100   6.721  15.363   9.836 -0.1211  0.0095 -0.0614
  459DPPI   C3B 7101   6.684  15.229   9.427  0.2777 -0.0041 -0.1914
  459DPPI   C4B 7102   6.602  15.461   9.002  0.0012 -0.1661  0.1158
  460DPPI    C1 7103  15.807   7.870  11.859 -0.1226  0.0388 -0.0743
  460DPPI    C2 7104  16.148   7.783  12.049 -0.0625  0.1213 -0.1434
  460DPPI    C3 7105  15.864   7.995  12.235 -0.0683  0.0691 -0.0926
  460DPPI   PO4 7106  15.905   8.013  11.633  0.0780 -0.2661 -0.0170
  460DPPI   GL1 7107  15.851   7.934  11.177 -0.0364  0.2294  0.2140
  460DPPI   GL2 7108  16.000   8.240  11.187  0.0829 -0.1703 -0.1246
  460DPPI   C1A 7109  15.866   7.928  10.694  0.0118 -0.0201 -0.1538
  460DPPI   C2A 7110  15.919   7.830  10.291  0.0451  0.0193  0.2653
  460DPPI   C3A 7111  15.976   7.886   9.897 -0.0496  0.2862  0.0533
  460DPPI   C4A 7112  15.901   7.879   9.454  0.1496 -0.0257  0.1518
  460DPPI   C1B 7113  16.179   8.307  10.739  0.0062 -0.1288 -0.0104
  460DPPI   C2B 7114  16.246   8.264  10.318  0.0291 -0.1798  0.1323
  460DPPI   C3B 7115  16.236   8.324   9.866 -0.1780 -0.2453 -0.0350
  460DPPI   C4B 7116  16.241   8.300   9.488  0.0540  0.2073  0.0912
  461DPPI    C1 7117   8.159  15.657  11.488  0.1077  0.0198 -0.2540
  461DPPI    C2 7118   7.829  15.824  11.640  0.0456 -0.1076 -0.2478
  461DPPI    C3 7119   8.175  16.024  11.645  0.0609 -0.1364  0.1254
  461DPPI   PO4 7120   7.981  15.499  11.311 -0.0503 -0.1386 -0.0504
  461DPPI   GL1 7121   7.876  15.321  10.940 -0.0669  0.0488 -0.2939
  461DPPI   GL2 7122   7.492  15.378  10.781  0.1363  0.1247 -0.2598
  461DPPI   C1A 7123   8.174  15.094  10.606 -0.1361 -0.1409 -0.0245
  461DPPI   C2A 7124   8.231  15.071  10.129  0.0067 -0.1116  0.0984
  461DPPI   C3A 7125   8.224  14.969   9.681  0.1573 -0.1498 -0.0325
  461DPPI   C4A 7126   8.475  15.168   9.344  0.0539 -0.1364 -0.1563
  461DPPI   C1B 7127   7.726  15.389  10.462 -0.1025  0.0551 -0.2509
  461DPPI   C2B 7128   7.774  15.315  10.046  0.1837  0.0328  0.1549
  461DPPI   C3B 7129   7.784  15.274   9.599 -0.1427 -0.1258  0.0452
  461DPPI   C4B 7130   7.937  15.259   9.305  0.0012  0.1352 -0.1306
  462DPPI    C1 7131   8.234  12.939  11.961 -0.0671  0.2203  0.0784
  462DPPI    C2 7132   8.483  13.080  12.240 -0.0447  0.1784  0.0797
  462DPPI    C3 7133   8.468  12.687  12.166 -0.0454  0.1902  0.0169
  462DPPI   PO4 7134   8.210  13.156  11.704  0.1188  0.1567  0.1040
  462DPPI   GL1 7135   8.348  13.171  11.228  0.0317  0.2793  0.1101
  462DPPI   GL2 7136   8.503  13.486  11.344  0.1494  0.1017 -0.2229
  462DPPI   C1A 7137   8.421  13.098  10.780  0.1729  0.2299  0.0312
  462DPPI   C2A 7138   8.495  13.075  10.390  0.2670  0.2330  0.1062
  462DPPI   C3A 7139   8.587  12.905   9.875  0.1050  0.0616 -0.0590
  462DPPI   C4A 7140   8.681  12.966   9.450  0.2975  0.0665 -0.0635
  462DPPI   C1B 7141   8.471  13.685  11.073  0.0796 -0.2806  0.0335
  462DPPI   C2B 7142   8.620  13.544  10.641  0.2755  0.0324 -0.1015
  462DPPI   C3B 7143   8.625  13.526  10.205  0.1887 -0.0573 -0.0932
  462DPPI   C4B 7144   8.761  13.387   9.977 -0.5115  0.0543 -0.1096
  463DPPI    C1 7145   4.986  10.467  11.869 -0.0818  0.0568  0.2847
  463DPPI    C2 7146   5.335  10.640  11.778 -0.1438 -0.0638 -0.2096
  463DPPI    C3 7147   5.190  10.667  12.150  0.2385  0.2500 -0.0758
  463DPPI   PO4 7148   4.860  10.644  11.617  0.2600 -0.0179  0.0710
  463DPPI   GL1 7149   4.659  10.558  11.110  0.1064  0.0014 -0.1773
  463DPPI   GL2 7150   4.991  10.695  11.068 -0.1032 -0.2409 -0.3414
  463DPPI   C1A 7151   4.624  10.582  10.653  0.0933 -0.1789  0.1516
  463DPPI   C2A 7152   4.562  10.539  10.257  0.0936 -0.1173 -0.1417
  463DPPI   C3A 7153   4.703  10.589   9.848  0.1650 -0.2719 -0.0200
  463DPPI   C4A 7154   4.562  10.532   9.398  0.3336 -0.0732  0.1466
  463DPPI   C1B 7155   5.113  10.527  10.733  0.0488  0.2530 -0.0804
  463DPPI   C2B 7156   5.160  10.572  10.361 -0.1508 -0.1969 -0.2768
  463DPPI   C3B 7157   5.199  10.597   9.937 -0.0163  0.3330 -0.0363
  463DPPI   C4B 7158   5.195  10.528   9.513  0.4351  0.2281 -0.1738
  464DPPI    C1 7159  11.258   2.525  11.696 -0.0707  0.0424 -0.0010
  464DPPI    C2 7160  10.886   2.637  11.599 -0.0292  0.2996  0.1290
  464DPPI    C3 7161  10.995   2.613  11.983  0.0684  0.1546  0.0933
  464DPPI   PO4 7162  11.374   2.617  11.407 -0.1545 -0.2480  0.4436
  464DPPI   GL1 7163  11.494   2.322  11.068 -0.1531  0.1790 -0.3208
  464DPPI   GL2 7164  11.868   2.415  11.028  0.1974  0.0943  0.1177
  464DPPI   C1A 7165  11.272   2.314  10.703 -0.4705 -0.1398  0.1238
  464DPPI   C2A 7166  11.169   2.284  10.343 -0.1771 -0.0898  0.1858
  464DPPI   C3A 7167  11.245   2.281   9.909 -0.0526  0.2673 -0.2719
  464DPPI   C4A 7168  11.244   2.379   9.487  0.2263 -0.1845  0.2686
  464DPPI   C1B 7169  11.733   2.525  10.559 -0.2170  0.2124 -0.1112
  464DPPI   C2B 7170  11.549   2.541  10.146 -0.2304 -0.1067 -0.3168
  464DPPI   C3B 7171  11.579   2.631   9.762  0.2444  0.1310 -0.1744
  464DPPI   C4B 7172  11.492   2.785   9.340  0.0406 -0.0014  0.0756
  465DPPI    C1 7173   5.022  12.728  11.610 -0.0157 -0.1310 -0.3013
  465DPPI    C2 7174   5.220  12.394  11.710  0.1418 -0.0310 -0.2752
  465DPPI    C3 7175   4.821  12.405  11.734  0.1667 -0.0408  0.2595
  465DPPI   PO4 7176   5.168  12.807  11.372 -0.2742  0.1502  0.0512
  465DPPI   GL1 7177   5.048  13.026  11.003  0.0265 -0.2482 -0.1561
  465DPPI   GL2 7178   4.756  13.123  10.846  0.1490 -0.1034 -0.0775
  465DPPI   C1A 7179   5.214  12.860  10.612  0.0376  0.2028  0.1609
  465DPPI   C2A 7180   5.216  12.936  10.172 -0.0007  0.0468  0.0324
  465DPPI   C3A 7181   5.175  12.919   9.752 -0.1845  0.1031  0.0382
  465DPPI   C4A 7182   5.193  12.787   9.304 -0.2560  0.1038 -0.3926
  465DPPI   C1B 7183   4.792  13.297  10.438  0.2253 -0.3123  0.2264
  465DPPI   C2B 7184   4.908  13.311  10.002 -0.2417  0.0795 -0.0470
  465DPPI   C3B 7185   4.896  13.247   9.550  0.0291  0.0562 -0.2927
  465DPPI   C4B 7186   5.055  13.241   9.210 -0.1920 -0.5198 -0.0696
  466DPPI    C1 7187   2.301   9.578  11.515  0.0107 -0.0111  0.0661
  466DPPI    C2 7188   2.391   9.724  11.877  0.1450  0.0182  0.0216
  466DPPI    C3 7189   2.022   9.589  11.801  0.0756  0.1484  0.1245
  466DPPI   PO4 7190   2.495   9.444  11.454 -0.2380  0.1829  0.1482
  466DPPI   GL1 7191   2.704   9.459  11.099 -0.0807  0.1015 -0.0117
  466DPPI   GL2 7192   2.957   9.310  11.093 -0.1690 -0.1276  0.0487
  466DPPI   C1A 7193   2.609   9.393  10.638  0.0925  0.0207  0.1323
  466DPPI   C2A 7194   2.543   9.430  10.168  0.1469 -0.0491 -0.0002
  466DPPI   C3A 7195   2.686   9.382   9.858  0.1029  0.1212  0.6161
  466DPPI   C4A 7196   2.625   9.396   9.357  0.2454 -0.3043  0.2506
  466DPPI   C1B 7197   3.102   9.292  10.656 -0.0516  0.2615 -0.1842
  466DPPI   C2B 7198   3.087   9.268  10.269  0.2108  0.2774 -0.2415
  466DPPI   C3B 7199   3.146   9.442   9.930 -0.1719  0.0639 -0.1251
  466DPPI   C4B 7200   3.229   9.319   9.486  0.0547 -0.0613  0.0340
  467DPPI    C1 7201  13.087  15.127  11.680 -0.0719 -0.0310  0.0412
  467DPPI    C2 7202  12.937  15.477  11.803 -0.0730 -0.0469  0.0852
  467DPPI    C3 7203  13.007  15.185  12.068  0.2116  0.0255  0.0932
  467DPPI   PO4 7204  12.979  15.098  11.342  0.0146  0.0967  0.2039
  467DPPI   GL1 7205  13.058  14.729  11.081 -0.0582 -0.0581 -0.0843
  467DPPI   GL2 7206  12.974  14.917  10.858 -0.2035 -0.4671  0.0130
  467DPPI   C1A 7207  13.299  14.535  10.627 -0.2980 -0.1598  0.0387
  467DPPI   C2A 7208  13.292  14.469  10.246 -0.1423 -0.2344 -0.0633
  467DPPI   C3A 7209  13.258  14.480   9.745 -0.0209 -0.2593 -0.1389
  467DPPI   C4A 7210  13.170  14.616   9.373 -0.1330 -0.1694  0.0070
  467DPPI   C1B 7211  13.075  15.000  10.385  0.0230  0.0989 -0.1275
  467DPPI   C2B 7212  13.092  14.909   9.990  0.0372 -0.0114  0.0083
  467DPPI   C3B 7213  13.046  15.061   9.674  0.2025 -0.2247 -0.1439
  467DPPI   C4B 7214  12.913  15.028   9.206 -0.0032  0.0468  0.3390
  468DPPI    C1 7215  12.980  13.471  11.570 -0.2138 -0.0668  0.0260
  468DPPI    C2 7216  12.912  13.858  11.496 -0.1793 -0.0755 -0.0523
  468DPPI    C3 7217  13.004  13.738  11.866 -0.1804 -0.0076 -0.0299
  468DPPI   PO4 7218  12.777  13.331  11.427  0.0626 -0.1362  0.3543
  468DPPI   GL1 7219  12.800  13.525  11.062  0.1668  0.4323 -0.2507
  468DPPI   GL2 7220  12.652  13.584  10.881  0.1892 -0.0626 -0.1150
  468DPPI   C1A 7221  12.863  13.198  10.637  0.2953 -0.1869 -0.0995
  468DPPI   C2A 7222  12.996  13.142  10.282  0.0604  0.0190  0.1350
  468DPPI   C3A 7223  12.908  13.228   9.879 -0.4374 -0.1681  0.2698
  468DPPI   C4A 7224  12.985  13.281   9.527  0.0026 -0.0676  0.4861
  468DPPI   C1B 7225  12.726  13.625  10.435  0.0809  0.0889 -0.1855
  468DPPI   C2B 7226  12.752  13.662  10.066  0.0848 -0.2190  0.0680
  468DPPI   C3B 7227  12.632  13.639   9.657  0.6264 -0.1029  0.1214
  468DPPI   C4B 7228  12.668  13.604   9.204 -0.0862  0.1735  0.0957
  469DPPI    C1 7229  10.460  14.287  11.772  0.0974 -0.1852  0.0009
  469DPPI    C2 7230  10.274  14.190  12.113  0.0804  0.0542  0.0618
  469DPPI    C3 7231  10.655  14.310  12.121  0.1292 -0.0921 -0.0229
  469DPPI   PO4 7232  10.175  14.414  11.681 -0.2001 -0.2017 -0.1941
  469DPPI   GL1 7233  10.002  14.665  11.350  0.1013 -0.0353  0.0213
  469DPPI   GL2 7234   9.830  14.412  11.288 -0.0313  0.2853  0.1453
  469DPPI   C1A 7235  10.080  14.800  10.984 -0.1338  0.0018 -0.4828
  469DPPI   C2A 7236  10.116  14.750  10.608 -0.1360 -0.1344  0.1055
  469DPPI   C3A 7237  10.111  14.658  10.171  0.2533  0.0185  0.1720
  469DPPI   C4A 7238  10.175  14.662   9.713 -0.2135 -0.1253 -0.0109
  469DPPI   C1B 7239   9.905  14.270  10.826 -0.0741  0.2415 -0.0629
  469DPPI   C2B 7240   9.876  14.321  10.390 -0.2688  0.2518 -0.1394
  469DPPI   C3B 7241   9.827  14.266   9.949 -0.0641  0.0606 -0.0806
  469DPPI   C4B 7242   9.910  14.255   9.475 -0.1613  0.0245 -0.0820
  470DPPI    C1 7243   9.998   7.348  12.108 -0.2231 -0.0342 -0.0369
  470DPPI    C2 7244  10.111   6.994  12.258 -0.2012 -0.0372 -0.0605
  470DPPI    C3 7245   9.796   7.186  12.412 -0.1737 -0.0364 -0.0051
  470DPPI   PO4 7246  10.000   7.333  11.783 -0.1236 -0.0647 -0.2786
  470DPPI   GL1 7247  10.168   7.649  11.539  0.0727  0.0573  0.2888
  470DPPI   GL2 7248   9.906   7.878  11.391  0.0973  0.3122 -0.1521
  470DPPI   C1A 7249  10.290   7.468  11.163 -0.0294  0.0618  0.2430
  470DPPI   C2A 7250  10.250   7.490  10.700  0.0042  0.0371 -0.1021
  470DPPI   C3A 7251  10.247   7.502  10.257 -0.0164 -0.2925 -0.1638
  470DPPI   C4A 7252  10.199   7.490   9.813  0.2557 -0.2607 -0.3059
  470DPPI   C1B 7253  10.015   7.839  10.935 -0.3677  0.0306 -0.1425
  470DPPI   C2B 7254   9.992   7.934  10.476  0.1436  0.0633 -0.1929
  470DPPI   C3B 7255   9.968   7.952  10.073 -0.2426  0.0780 -0.0218
  470DPPI   C4B 7256   9.971   7.915   9.603  0.3086  0.2374  0.0958
  471DPPI    C1 7257   7.461   0.197  11.368  0.2388  0.2601  0.2054
  471DPPI    C2 7258   7.127   0.050  11.203  0.2607  0.3009  0.1243
  471DPPI    C3 7259   7.176   0.037  11.599  0.2160  0.1852  0.1265
  471DPPI   PO4 7260   7.687   0.117  11.271 -0.0550  0.3472  0.1159
  471DPPI   GL1 7261   7.858  -0.006  10.801  0.3530  0.0582  0.1018
  471DPPI   GL2 7262   7.574   0.204  10.780 -0.2643  0.2543  0.1448
  471DPPI   C1A 7263   7.776   0.023  10.337 -0.0041 -0.0461  0.0178
  471DPPI   C2A 7264   7.764   0.211   9.943 -0.1302  0.2931 -0.1280
  471DPPI   C3A 7265   7.566   0.198   9.530 -0.3466 -0.1392 -0.0341
  471DPPI   C4A 7266   7.522   0.420   9.146  0.2282  0.0584  0.0707
  471DPPI   C1B 7267   7.859   0.431  10.573 -0.1851 -0.3232 -0.4119
  471DPPI   C2B 7268   7.972   0.584  10.201  0.1183  0.0503  0.0089
  471DPPI   C3B 7269   8.039   0.655   9.742 -0.0513 -0.0894 -0.2281
  471DPPI   C4B 7270   7.957   0.865   9.422 -0.2287 -0.0657 -0.0488
  472DPPI    C1 7271   1.009   1.236  11.545  0.0067  0.1035  0.0680
  472DPPI    C2 7272   1.334   1.051  11.402 -0.1149 -0.1511  0.1143
  472DPPI    C3 7273   1.281   1.086  11.797 -0.1113 -0.0487  0.1062
  472DPPI   PO4 7274   1.015   1.503  11.361  0.0656  0.0512  0.0087
  472DPPI   GL1 7275   0.802   1.644  10.984  0.3065  0.0789 -0.0230
  472DPPI   GL2 7276   0.829   1.356  10.830 -0.1074 -0.2800 -0.1651
  472DPPI   C1A 7277   0.643   1.890  10.600  0.0802  0.1595  0.2169
  472DPPI   C2A 7278   0.767   1.782  10.161  0.0146 -0.3255  0.0368
  472DPPI   C3A 7279   0.692   1.747   9.699 -0.0547  0.1045 -0.0193
  472DPPI   C4A 7280   0.817   1.846   9.320  0.0019 -0.2284  0.1019
  472DPPI   C1B 7281   0.956   1.308  10.463  0.0401  0.1516 -0.1104
  472DPPI   C2B 7282   1.004   1.330  10.080  0.0906 -0.0428  0.1504
  472DPPI   C3B 7283   1.050   1.355   9.731  0.0379 -0.0152 -0.1133
  472DPPI   C4B 7284   0.899   1.339   9.344 -0.1827 -0.0971  0.2417
  473PYPI    C1 7285  10.816   7.549  11.971 -0.1298 -0.1217  0.0405
  473PYPI    C2 7286  10.716   7.892  12.150 -0.0299 -0.1495  0.1506
  473PYPI    C3 7287  10.443   7.691  11.937 -0.0784  0.0170  0.0537
  473PYPI   PO4 7288  11.075   7.513  11.858  0.1258  0.0710  0.2118
  473PYPI   GL1 7289  11.169   7.498  11.516  0.0778  0.1747 -0.1395
  473PYPI   GL2 7290  11.230   7.221  11.256  0.1238  0.0508  0.1252
  473PYPI   C1A 7291  11.370   7.682  11.130 -0.0242 -0.1872 -0.0556
  473PYPI   C2A 7292  11.499   7.809  10.649  0.0095 -0.1993  0.1579
  473PYPI   D3A 7293  11.517   7.818  10.185 -0.1990  0.0858 -0.2347
  473PYPI   C4A 7294  11.596   7.816   9.729 -0.0906 -0.1205  0.1813
  473PYPI   C1B 7295  11.294   7.271  10.845  0.2281  0.1155  0.2154
  473PYPI   C2B 7296  11.278   7.374  10.441 -0.1769  0.0567 -0.0712
  473PYPI   C3B 7297  11.191   7.452  10.080 -0.0084 -0.1189 -0.1061
  473PYPI   C4B 7298  11.255   7.406   9.650  0.0896  0.3232  0.3512
  474PYPI    C1 7299   9.787  10.433  11.601  0.1767 -0.1867  0.1696
  474PYPI    C2 7300   9.431  10.427  11.784  0.0342  0.0587 -0.0907
  474PYPI    C3 7301   9.768  10.427  12.000 -0.1197 -0.2418  0.1570
  474PYPI   PO4 7302   9.842  10.649  11.398  0.0431 -0.0095  0.1209
  474PYPI   GL1 7303   9.936  10.504  11.028 -0.0194  0.1508 -0.1036
  474PYPI   GL2 7304   9.633  10.682  10.915 -0.1777 -0.0178 -0.0008
  474PYPI   C1A 7305  10.056  10.582  10.603 -0.1427  0.0733  0.0176
  474PYPI   C2A 7306  10.079  10.607  10.158 -0.0862  0.0361  0.3856
  474PYPI   D3A 7307  10.124  10.589   9.722 -0.1677 -0.0146  0.2440
  474PYPI   C4A 7308  10.212  10.622   9.185 -0.0297  0.2856  0.3326
  474PYPI   C1B 7309   9.564  10.681  10.449  0.0938  0.0624  0.0747
  474PYPI   C2B 7310   9.611  10.631   9.997 -0.1136  0.1113 -0.1959
  474PYPI   C3B 7311   9.664  10.587   9.458  0.3451 -0.0422  0.4197
  474PYPI   C4B 7312   9.744  10.524   9.036 -0.0854  0.0756 -0.1214
  475PYPI    C1 7313  11.964   1.611  11.457 -0.1896 -0.0315  0.0566
  475PYPI    C2 7314  11.573   1.586  11.538 -0.1890 -0.0701  0.0481
  475PYPI    C3 7315  11.838   1.620  11.836 -0.1874 -0.2011  0.0622
  475PYPI   PO4 7316  11.973   1.508  11.258 -0.1389 -0.0630  0.0208
  475PYPI   GL1 7317  11.875   1.580  10.854 -0.1356  0.1083 -0.0264
  475PYPI   GL2 7318  12.104   1.644  10.630  0.1910 -0.2108  0.0258
  475PYPI   C1A 7319  11.651   1.442  10.444  0.1294 -0.0250  0.1335
  475PYPI   C2A 7320  11.656   1.437  10.014 -0.3739 -0.1321  0.2652
  475PYPI   D3A 7321  11.740   1.417   9.640  0.0025  0.2340 -0.1360
  475PYPI   C4A 7322  11.847   1.027   9.480 -0.2986 -0.3998 -0.0352
  475PYPI   C1B 7323  12.051   1.657  10.195 -0.0221  0.1801 -0.0973
  475PYPI   C2B 7324  12.119   1.670   9.698 -0.0958 -0.1235  0.0477
  475PYPI   C3B 7325  12.207   1.476   9.313  0.1129  0.1534  0.1469
  475PYPI   C4B 7326  12.283   1.078   9.107  0.0460  0.0728  0.0227
  476PYPI    C1 7327   9.826  16.988  11.499 -0.0490 -0.0857  0.1773
  476PYPI    C2 7328  10.090  17.088  11.782 -0.0316  0.3880  0.0023
  476PYPI    C3 7329   9.698  17.115  11.856 -0.0271  0.4663 -0.0012
  476PYPI   PO4 7330   9.909  17.027  11.298  0.1240 -0.1379 -0.0139
  476PYPI   GL1 7331   9.728  17.331  11.096  0.0725 -0.1027 -0.0868
  476PYPI   GL2 7332   9.448  17.234  11.055  0.0086 -0.2397  0.2011
  476PYPI   C1A 7333   9.792  17.234  10.632 -0.1436 -0.1005 -0.1720
  476PYPI   C2A 7334   9.945  17.066  10.226 -0.1969  0.0878 -0.2272
  476PYPI   D3A 7335   9.954  17.001   9.814 -0.1464  0.0740 -0.1302
  476PYPI   C4A 7336   9.614  16.972   9.543 -0.1401 -0.1304  0.1191
  476PYPI   C1B 7337   9.305  17.260  10.688 -0.0073  0.1681 -0.2537
  476PYPI   C2B 7338   9.229  17.230  10.358  0.1438  0.2056  0.3509
  476PYPI   C3B 7339   9.247  17.150   9.880 -0.1892 -0.0639  0.2711
  476PYPI   C4B 7340   9.025  17.081   9.586 -0.2599 -0.1068  0.1600
  477PYPI    C1 7341   3.875  11.589  11.323 -0.1845 -0.0101 -0.0648
  477PYPI    C2 7342   3.759  11.637  11.703  0.0563  0.1503 -0.0095
  477PYPI    C3 7343   4.146  11.585  11.617  0.0178  0.2377 -0.2438
  477PYPI   PO4 7344   3.804  11.776  11.184  0.0770  0.0722  0.0372
  477PYPI   GL1 7345   3.786  12.094  10.890 -0.0429 -0.5175 -0.1308
  477PYPI   GL2 7346   4.102  12.133  10.858 -0.0383 -0.1499  0.2411
  477PYPI   C1A 7347   3.459  12.142  10.586 -0.2130 -0.2104  0.0783
  477PYPI   C2A 7348   3.436  12.178  10.233  0.0439 -0.2418 -0.2997
  477PYPI   D3A 7349   3.334  12.039   9.871  0.2358 -0.2510 -0.3020
  477PYPI   C4A 7350   3.211  12.196   9.535  0.2351  0.2103  0.0148
  477PYPI   C1B 7351   3.970  12.099  10.427  0.0480  0.1883  0.2941
  477PYPI   C2B 7352   3.892  12.131  10.030 -0.0422 -0.2411 -0.0399
  477PYPI   C3B 7353   3.865  12.080   9.681 -0.1298  0.3930  0.3160
  477PYPI   C4B 7354   4.103  12.243   9.356 -0.0465  0.2755  0.1892
  478PYPI    C1 7355  11.100   0.815  11.542 -0.0166  0.0939 -0.0110
  478PYPI    C2 7356  11.375   1.055  11.706  0.0612  0.0418 -0.0648
  478PYPI    C3 7357  10.997   1.068  11.834  0.1151  0.0232  0.0979
  478PYPI   PO4 7358  11.108   0.850  11.286  0.1221  0.3076  0.0500
  478PYPI   GL1 7359  10.926   0.946  10.878  0.2558 -0.2385  0.0224
  478PYPI   GL2 7360  10.672   0.751  10.896  0.0155 -0.3160  0.2159
  478PYPI   C1A 7361  10.956   0.902  10.497  0.1963 -0.4809  0.1238
  478PYPI   C2A 7362  10.943   0.908  10.077 -0.0944  0.1832  0.0184
  478PYPI   D3A 7363  11.019   0.787   9.642  0.1442  0.0499 -0.0310
  478PYPI   C4A 7364  10.868   1.025   9.394 -0.0981 -0.2461 -0.2279
  478PYPI   C1B 7365  10.770   0.417  10.511  0.1705  0.0339 -0.0182
  478PYPI   C2B 7366  10.731   0.372  10.079  0.1815 -0.2590 -0.1307
  478PYPI   C3B 7367  10.660   0.432   9.657  0.0785  0.2599 -0.2354
  478PYPI   C4B 7368  10.917   0.462   9.285 -0.0840  0.0580 -0.2043
  479PYPI    C1 7369   8.524   1.698  11.627  0.0519 -0.0229 -0.1293
  479PYPI    C2 7370   8.427   1.932  11.937  0.1078  0.0910 -0.1971
  479PYPI    C3 7371   8.797   1.782  11.908  0.0938  0.0556 -0.1934
  479PYPI   PO4 7372   8.467   1.839  11.407  0.0296  0.0772  0.1293
  479PYPI   GL1 7373   8.479   1.708  10.944  0.0435  0.1738 -0.2972
  479PYPI   GL2 7374   8.678   1.513  11.006  0.0553  0.4443  0.0934
  479PYPI   C1A 7375   8.482   1.634  10.453 -0.0145  0.1187 -0.0755
  479PYPI   C2A 7376   8.448   1.805  10.114 -0.0323 -0.1475 -0.1410
  479PYPI   D3A 7377   8.398   1.883   9.732  0.1119 -0.0501  0.2052
  479PYPI   C4A 7378   8.182   1.643   9.502 -0.1272 -0.3161 -0.0819
  479PYPI   C1B 7379   8.928   1.543  10.631  0.2977  0.1431 -0.0755
  479PYPI   C2B 7380   8.932   1.503  10.187  0.0293  0.3221 -0.1296
  479PYPI   C3B 7381   9.195   1.463   9.813 -0.0516 -0.2797 -0.1203
  479PYPI   C4B 7382   9.156   1.375   9.422 -0.0423 -0.2852  0.0260
  480PYPI    C1 7383   3.251  16.515  11.243 -0.2811 -0.4125 -0.1048
  480PYPI    C2 7384   3.515  16.395  11.519 -0.1222 -0.0565 -0.0958
  480PYPI    C3 7385   3.124  16.332  11.575 -0.0922  0.0166  0.2148
  480PYPI   PO4 7386   3.369  16.776  11.105  0.2080  0.1279  0.2403
  480PYPI   GL1 7387   3.062  16.961  10.826  0.3123  0.4029  0.0062
  480PYPI   GL2 7388   2.934  16.752  10.841 -0.2418  0.1333 -0.5211
  480PYPI   C1A 7389   3.198  16.896  10.417 -0.1715  0.0180  0.0177
  480PYPI   C2A 7390   3.208  16.938  10.004 -0.0010  0.3087 -0.1104
  480PYPI   D3A 7391   3.291  16.805   9.659 -0.0471 -0.3780 -0.2067
  480PYPI   C4A 7392   3.057  16.769   9.280 -0.1317  0.0443  0.1379
  480PYPI   C1B 7393   2.966  16.479  10.500 -0.2611  0.0748  0.0062
  480PYPI   C2B 7394   2.950  16.464   9.952  0.0369 -0.0877  0.2116
  480PYPI   C3B 7395   2.887  16.309   9.568 -0.0404 -0.3741  0.0847
  480PYPI   C4B 7396   2.739  16.350   9.164 -0.1891 -0.2590 -0.0629
  481PYPI    C1 7397   9.847   5.351  11.580 -0.2070 -0.0280  0.0412
  481PYPI    C2 7398  10.224   5.481  11.547 -0.2145 -0.0266 -0.0426
  481PYPI    C3 7399  10.151   5.094  11.618 -0.1942 -0.0013  0.1196
  481PYPI   PO4 7400   9.726   5.503  11.390 -0.1000  0.2885  0.2447
  481PYPI   GL1 7401   9.613   5.707  10.982 -0.3355 -0.3758 -0.1592
  481PYPI   GL2 7402   9.591   5.967  11.018  0.0879 -0.0397 -0.2372
  481PYPI   C1A 7403   9.695   5.669  10.519 -0.3378  0.1241 -0.2016
  481PYPI   C2A 7404   9.655   5.761  10.156  0.3537 -0.1650  0.1363
  481PYPI   D3A 7405   9.618   5.615   9.844  0.2390  0.0123 -0.1852
  481PYPI   C4A 7406   9.464   5.728   9.491  0.0719 -0.0193  0.0530
  481PYPI   C1B 7407   9.293   5.979  10.771  0.1059  0.0786  0.3604
  481PYPI   C2B 7408   9.409   6.200  10.329  0.0049  0.4545 -0.0590
  481PYPI   C3B 7409   9.401   6.145   9.882  0.0491 -0.0926 -0.2767
  481PYPI   C4B 7410   9.221   6.179   9.478  0.1927  0.0717 -0.0516
  482PYPI    C1 7411   3.319   9.422  11.564  0.1650 -0.2430  0.0112
  482PYPI    C2 7412   3.173   9.310  11.919  0.3222 -0.2042  0.0890
  482PYPI    C3 7413   3.495   9.545  11.901  0.1685 -0.0027 -0.0768
  482PYPI   PO4 7414   3.328   9.207  11.418  0.2974  0.1090  0.1351
  482PYPI   GL1 7415   3.385   9.043  11.009 -0.0762  0.4118 -0.2389
  482PYPI   GL2 7416   3.662   8.926  11.024 -0.1374 -0.2576 -0.1854
  482PYPI   C1A 7417   3.367   8.840  10.631  0.3806 -0.4386  0.2633
  482PYPI   C2A 7418   3.365   8.849  10.225  0.1445  0.1334  0.0867
  482PYPI   D3A 7419   3.404   8.969   9.786 -0.1825 -0.1517  0.1206
  482PYPI   C4A 7420   3.391   8.875   9.335 -0.0638  0.0123  0.0054
  482PYPI   C1B 7421   3.863   8.790  10.787  0.0782  0.1990  0.0069
  482PYPI   C2B 7422   3.837   8.818  10.350 -0.1707 -0.1470  0.2765
  482PYPI   C3B 7423   3.858   8.880   9.925 -0.1347  0.0309 -0.1674
  482PYPI   C4B 7424   3.985   8.848   9.492 -0.1125 -0.1208  0.1959
  483PYPI    C1 7425   1.776   1.032  11.715 -0.2041  0.1720 -0.0567
  483PYPI    C2 7426   1.751   1.128  12.102 -0.0149 -0.2173  0.0578
  483PYPI    C3 7427   1.820   0.749  11.994  0.0564 -0.0918 -0.3556
  483PYPI   PO4 7428   1.733   1.258  11.639  0.0143 -0.1412 -0.2265
  483PYPI   GL1 7429   1.595   1.440  11.232 -0.1009  0.1278  0.3308
  483PYPI   GL2 7430   1.355   1.367  10.987 -0.1812  0.0607  0.0569
  483PYPI   C1A 7431   1.663   1.714  10.838  0.1095 -0.0106  0.0217
  483PYPI   C2A 7432   1.778   1.682  10.453  0.2136  0.1375  0.3221
  483PYPI   D3A 7433   1.761   1.743  10.025  0.1090  0.0143 -0.0283
  483PYPI   C4A 7434   1.834   1.688   9.637  0.3441  0.1849  0.2220
  483PYPI   C1B 7435   1.532   1.277  10.632 -0.0864 -0.0722 -0.2005
  483PYPI   C2B 7436   1.513   1.288  10.201  0.0567 -0.0593 -0.1127
  483PYPI   C3B 7437   1.539   1.294   9.813 -0.1732  0.1655 -0.0102
  483PYPI   C4B 7438   1.474   1.237   9.464  0.2948 -0.0190  0.0550
  484PYPI    C1 7439   9.181  11.108  11.930 -0.2746 -0.0084  0.0032
  484PYPI    C2 7440   9.044  10.733  11.959 -0.3039  0.0048  0.0347
  484PYPI    C3 7441   9.378  10.839  12.152 -0.1863 -0.0569 -0.1323
  484PYPI   PO4 7442   9.165  11.145  11.727  0.3868  0.2755  0.1127
  484PYPI   GL1 7443   9.239  11.255  11.338  0.0944  0.1975  0.1048
  484PYPI   GL2 7444   8.979  11.210  11.290  0.0807 -0.1840  0.0284
  484PYPI   C1A 7445   9.307  11.223  10.894 -0.0094 -0.1879  0.0594
  484PYPI   C2A 7446   9.396  11.141  10.503  0.0924  0.0569 -0.0829
  484PYPI   D3A 7447   9.365  11.043  10.065 -0.0560 -0.1534 -0.1815
  484PYPI   C4A 7448   9.466  11.039   9.687 -0.1541  0.0306 -0.1340
  484PYPI   C1B 7449   8.826  11.249  10.861 -0.0907  0.0816 -0.1839
  484PYPI   C2B 7450   8.904  11.131  10.514  0.0102 -0.0232  0.0039
  484PYPI   C3B 7451   8.819  11.145  10.098 -0.0031  0.2356  0.1170
  484PYPI   C4B 7452   8.924  11.126   9.635 -0.0027  0.2096 -0.1372
  485PYPI    C1 7453   8.416   2.552  11.338  0.0203  0.0932  0.0848
  485PYPI    C2 7454   8.563   2.922  11.381 -0.2597  0.2245 -0.0619
  485PYPI    C3 7455   8.547   2.675  11.696  0.1011  0.2693 -0.0039
  485PYPI   PO4 7456   8.123   2.641  11.179 -0.1952  0.2772  0.1229
  485PYPI   GL1 7457   7.908   2.739  10.869 -0.0866 -0.0599  0.2798
  485PYPI   GL2 7458   7.889   2.986  10.805 -0.1255 -0.3243 -0.0463
  485PYPI   C1A 7459   8.054   2.610  10.518  0.1977  0.1303 -0.1720
  485PYPI   C2A 7460   7.922   2.670  10.051 -0.0240  0.3841 -0.1024
  485PYPI   D3A 7461   7.901   2.756   9.636 -0.1487 -0.0638  0.0608
  485PYPI   C4A 7462   7.830   2.606   9.308  0.1598  0.0815 -0.0952
  485PYPI   C1B 7463   7.820   3.073  10.387 -0.0581  0.2604 -0.2364
  485PYPI   C2B 7464   7.610   3.104  10.034 -0.0191 -0.2156 -0.2515
  485PYPI   C3B 7465   7.663   3.165   9.733 -0.1789  0.0267  0.0710
  485PYPI   C4B 7466   7.731   3.232   9.295  0.1670  0.0193 -0.0883
  486PYPI    C1 7467   6.450   2.008  11.952 -0.2392 -0.1184 -0.3716
  486PYPI    C2 7468   6.054   2.013  12.006 -0.1789 -0.0145  0.1043
  486PYPI    C3 7469   6.291   2.233  12.242  0.1769 -0.2157 -0.0579
  486PYPI   PO4 7470   6.465   2.023  11.673 -0.1068 -0.0882  0.0318
  486PYPI   GL1 7471   6.679   1.856  11.313  0.1276  0.3858 -0.4797
  486PYPI   GL2 7472   6.733   2.116  11.178  0.0181  0.0482 -0.2288
  486PYPI   C1A 7473   6.432   1.757  10.942  0.2158 -0.2698  0.0968
  486PYPI   C2A 7474   6.415   1.848  10.519  0.0753  0.0397  0.1251
  486PYPI   D3A 7475   6.223   1.876  10.123  0.1250  0.1190 -0.0425
  486PYPI   C4A 7476   6.148   1.879   9.710  0.0997 -0.0086  0.0321
  486PYPI   C1B 7477   6.706   2.261  10.736  0.1487 -0.2367  0.1372
  486PYPI   C2B 7478   6.627   2.301  10.278  0.2922  0.0012 -0.0530
  486PYPI   C3B 7479   6.587   2.233   9.862  0.1123 -0.2140  0.2497
  486PYPI   C4B 7480   6.526   2.038   9.452  0.0353 -0.2694 -0.1869
  487PYPI    C1 7481   9.693   4.872  11.375 -0.2287  0.2185  0.2390
  487PYPI    C2 7482   9.523   4.624  11.638 -0.0368 -0.2729 -0.0860
  487PYPI    C3 7483   9.805   4.489  11.389  0.2123  0.3235 -0.1443
  487PYPI   PO4 7484   9.572   5.021  11.240  0.1186  0.0653  0.4815
  487PYPI   GL1 7485   9.636   5.236  10.822 -0.1118 -0.0733 -0.0643
  487PYPI   GL2 7486   9.867   5.272  10.664  0.2387  0.1328  0.0527
  487PYPI   C1A 7487   9.418   5.291  10.361  0.0399  0.1019  0.0558
  487PYPI   C2A 7488   9.402   5.208   9.950  0.2656 -0.0905 -0.0260
  487PYPI   D3A 7489   9.250   5.218   9.519  0.2658  0.0813  0.0455
  487PYPI   C4A 7490   9.249   5.020   9.095 -0.2744 -0.0248 -0.1856
  487PYPI   C1B 7491   9.876   5.303  10.179  0.0570  0.1233 -0.3391
  487PYPI   C2B 7492   9.868   5.158   9.814  0.0961 -0.0506  0.0536
  487PYPI   C3B 7493   9.743   5.239   9.514  0.0715  0.1891  0.2831
  487PYPI   C4B 7494   9.601   5.398   9.167 -0.1337  0.1638 -0.1753
  488PYPI    C1 7495   6.364   7.220  11.346 -0.1421 -0.1936 -0.0217
  488PYPI    C2 7496   6.425   7.397  11.700 -0.4169 -0.2172  0.0399
  488PYPI    C3 7497   6.172   7.560  11.435 -0.1061 -0.1237 -0.2062
  488PYPI   PO4 7498   6.280   6.919  11.392  0.0129  0.0553  0.0438
  488PYPI   GL1 7499   6.296   6.666  11.046  0.1602  0.0852  0.0216
  488PYPI   GL2 7500   5.955   6.707  10.761  0.0895  0.0529 -0.1013
  488PYPI   C1A 7501   6.391   6.764  10.621  0.1813  0.0578  0.1458
  488PYPI   C2A 7502   6.412   6.787  10.206 -0.2511  0.0984  0.2139
  488PYPI   D3A 7503   6.396   6.923   9.795 -0.1005 -0.0658 -0.0707
  488PYPI   C4A 7504   6.562   6.774   9.470  0.2058 -0.1594 -0.1696
  488PYPI   C1B 7505   5.664   6.540  10.532 -0.1758  0.0550 -0.1540
  488PYPI   C2B 7506   5.519   6.454  10.102 -0.4031 -0.1124 -0.1810
  488PYPI   C3B 7507   5.662   6.356   9.637  0.1790 -0.0801 -0.0084
  488PYPI   C4B 7508   5.660   6.073   9.134  0.0461 -0.0565  0.1194
  489PYPI    C1 7509  12.496   8.211  11.849 -0.2573 -0.0918 -0.1402
  489PYPI    C2 7510  12.523   7.916  12.118 -0.1588  0.0396 -0.0045
  489PYPI    C3 7511  12.195   7.950  11.891 -0.1621 -0.1862 -0.0361
  489PYPI   PO4 7512  12.737   8.263  11.686 -0.0698 -0.0399 -0.0692
  489PYPI   GL1 7513  12.796   8.206  11.252 -0.1484 -0.0029 -0.0544
  489PYPI   GL2 7514  13.028   8.035  11.289  0.2170 -0.0823  0.1153
  489PYPI   C1A 7515  12.869   8.226  10.752  0.0618 -0.0242 -0.1289
  489PYPI   C2A 7516  12.809   8.241  10.264  0.0999  0.1218 -0.1117
  489PYPI   D3A 7517  12.751   8.154   9.795  0.0474 -0.1201  0.2276
  489PYPI   C4A 7518  12.932   8.090   9.418  0.0057 -0.1803  0.1522
  489PYPI   C1B 7519  13.375   8.167  10.948 -0.0381 -0.0836  0.0790
  489PYPI   C2B 7520  13.358   8.212  10.563  0.1978  0.1750 -0.1006
  489PYPI   C3B 7521  13.352   8.166  10.170 -0.2557 -0.0959 -0.0368
  489PYPI   C4B 7522  13.393   8.146   9.803  0.0631  0.0032  0.1848
  490PYPI    C1 7523   7.667  12.412  11.711  0.1662 -0.0625 -0.1025
  490PYPI    C2 7524   7.288  12.384  11.585  0.1730 -0.1769 -0.0983
  490PYPI    C3 7525   7.399  12.209  11.927  0.2283 -0.1378 -0.0960
  490PYPI   PO4 7526   7.737  12.319  11.433  0.0731  0.0964 -0.0913
  490PYPI   GL1 7527   7.932  12.337  11.107 -0.2420 -0.0802  0.0781
  490PYPI   GL2 7528   8.098  12.060  10.952  0.0696  0.1601 -0.5559
  490PYPI   C1A 7529   7.605  12.480  10.697  0.1886  0.0283  0.0265
  490PYPI   C2A 7530   7.524  12.420  10.274  0.4137  0.1969  0.1998
  490PYPI   D3A 7531   7.486  12.151   9.938  0.2579 -0.0877  0.2444
  490PYPI   C4A 7532   7.400  12.181   9.526  0.0502 -0.0086  0.1428
  490PYPI   C1B 7533   7.958  12.155  10.515  0.0928 -0.1265  0.2024
  490PYPI   C2B 7534   7.886  12.082  10.148  0.1559 -0.0614 -0.1536
  490PYPI   C3B 7535   7.903  12.167   9.709 -0.2766  0.1024  0.2089
  490PYPI   C4B 7536   7.761  12.034   9.225  0.1310  0.0452  0.0023
  491PYPI    C1 7537   5.837   0.717  11.533  0.0754  0.0005  0.0539
  491PYPI    C2 7538   5.455   0.634  11.618  0.0179  0.0212 -0.1766
  491PYPI    C3 7539   5.687   0.812  11.891 -0.1405  0.0209 -0.0402
  491PYPI   PO4 7540   5.834   0.493  11.329 -0.0457 -0.2345  0.1006
  491PYPI   GL1 7541   5.818   0.515  10.892  0.0060  0.0388 -0.1547
  491PYPI   GL2 7542   6.108   0.547  10.815 -0.0607 -0.0679 -0.0803
  491PYPI   C1A 7543   5.509   0.580  10.542 -0.0917 -0.1310 -0.2428
  491PYPI   C2A 7544   5.409   0.591  10.073  0.0545  0.0667  0.2077
  491PYPI   D3A 7545   5.381   0.583   9.601 -0.1923  0.2254  0.1691
  491PYPI   C4A 7546   5.779   0.532   9.470  0.1012  0.0288  0.3805
  491PYPI   C1B 7547   5.967   0.554  10.365  0.1991 -0.0763  0.1395
  491PYPI   C2B 7548   6.123   0.636   9.937  0.0547 -0.1959  0.3061
  491PYPI   C3B 7549   6.142   0.928   9.606 -0.1617 -0.1024 -0.1156
  491PYPI   C4B 7550   5.873   0.938   9.248 -0.1667 -0.1581  0.4011
  492PYPI    C1 7551  15.965  11.928  11.958  0.1312 -0.0250 -0.0380
  492PYPI    C2 7552  15.921  11.546  12.069  0.1059 -0.0292 -0.0632
  492PYPI    C3 7553  16.166  11.787  12.274  0.0077 -0.0191  0.0440
  492PYPI   PO4 7554  15.996  11.929  11.685 -0.0615  0.2580 -0.1541
  492PYPI   GL1 7555  16.110  11.846  11.261 -0.0633 -0.0267 -0.2658
  492PYPI   GL2 7556  15.799  11.821  11.112  0.0927 -0.1155  0.1662
  492PYPI   C1A 7557  16.272  11.656  10.843 -0.0259 -0.1865 -0.0431
  492PYPI   C2A 7558  16.274  11.609  10.383 -0.1715  0.0119 -0.3469
  492PYPI   D3A 7559  16.115  11.425  10.060  0.0129 -0.1518 -0.1224
  492PYPI   C4A 7560  16.122  11.599   9.711 -0.0290 -0.3074  0.1845
  492PYPI   C1B 7561  15.785  11.673  10.740  0.1880  0.1967  0.1171
  492PYPI   C2B 7562  15.742  11.520  10.351  0.0173 -0.3668 -0.1688
  492PYPI   C3B 7563  15.682  11.578   9.952 -0.0966  0.1409 -0.0594
  492PYPI   C4B 7564  15.605  11.713   9.556  0.1136  0.4301 -0.3091
  493PYPI    C1 7565   9.164  16.397  11.508 -0.0526 -0.1046  0.0062
  493PYPI    C2 7566   9.087  16.020  11.617 -0.1983 -0.0938 -0.0565
  493PYPI    C3 7567   9.301  16.258  11.857 -0.1924 -0.1854  0.0297
  493PYPI   PO4 7568   9.209  16.352  11.235  0.0052  0.0860 -0.1877
  493PYPI   GL1 7569   9.426  16.250  10.928  0.0600 -0.0808 -0.0169
  493PYPI   GL2 7570   9.687  16.264  10.927  0.0040  0.1118  0.1192
  493PYPI   C1A 7571   9.288  16.333  10.539  0.4929  0.1022  0.0461
  493PYPI   C2A 7572   9.311  16.098  10.199  0.0980 -0.0653 -0.2658
  493PYPI   D3A 7573   9.565  16.019   9.808 -0.0415 -0.1470 -0.4335
  493PYPI   C4A 7574   9.529  16.018   9.409 -0.1802 -0.1226 -0.0359
  493PYPI   C1B 7575   9.877  16.264  10.561 -0.1877 -0.0528 -0.3598
  493PYPI   C2B 7576   9.920  16.139  10.173 -0.3604 -0.1942 -0.1764
  493PYPI   C3B 7577  10.029  16.064   9.707 -0.1464  0.0095  0.1404
  493PYPI   C4B 7578  10.013  15.940   9.278 -0.0814  0.0922  0.3175
  494PYPI    C1 7579   5.293  14.117  11.405 -0.2821 -0.2426  0.0652
  494PYPI    C2 7580   5.271  13.721  11.458 -0.0086 -0.2538  0.1080
  494PYPI    C3 7581   5.611  13.915  11.540 -0.0632 -0.0449 -0.1451
  494PYPI   PO4 7582   5.051  14.124  11.163 -0.0395  0.2279  0.1254
  494PYPI   GL1 7583   4.904  14.208  10.669 -0.1076  0.1075  0.1742
  494PYPI   GL2 7584   5.101  13.861  10.720 -0.1424  0.0353  0.0711
  494PYPI   C1A 7585   4.947  14.262  10.289  0.1396 -0.0279 -0.0701
  494PYPI   C2A 7586   4.922  14.210   9.905 -0.0092 -0.2954 -0.0210
  494PYPI   D3A 7587   4.868  14.272   9.457  0.0251 -0.0111  0.0020
  494PYPI   C4A 7588   4.919  14.162   8.963  0.1028 -0.1697 -0.1739
  494PYPI   C1B 7589   5.041  13.744  10.225 -0.1426 -0.3032  0.1283
  494PYPI   C2B 7590   5.037  13.755   9.798  0.1459  0.1813  0.1821
  494PYPI   C3B 7591   4.940  13.769   9.368 -0.1486  0.2178  0.0079
  494PYPI   C4B 7592   4.916  13.622   8.925  0.0739 -0.2105  0.0265
  495PYPI    C1 7593   6.431   8.932  11.495  0.3411  0.0406  0.3100
  495PYPI    C2 7594   6.215   8.943  11.831  0.0430  0.1366  0.1194
  495PYPI    C3 7595   6.558   8.737  11.821  0.0485  0.1206  0.4754
  495PYPI   PO4 7596   6.560   9.144  11.373 -0.1686  0.0680  0.1161
  495PYPI   GL1 7597   6.760   9.184  11.032  0.1193 -0.0351  0.0297
  495PYPI   GL2 7598   7.001   9.152  11.109 -0.1003  0.3606 -0.1115
  495PYPI   C1A 7599   6.910   8.952  10.630  0.2932 -0.2373  0.0472
  495PYPI   C2A 7600   6.962   9.005  10.222 -0.1638  0.0967 -0.1860
  495PYPI   D3A 7601   6.890   9.048   9.817 -0.2014 -0.0942  0.1365
  495PYPI   C4A 7602   6.717   8.683   9.591  0.1641  0.2355 -0.1104
  495PYPI   C1B 7603   7.101   9.427  10.770  0.1092 -0.1088 -0.0332
  495PYPI   C2B 7604   7.268   9.465  10.350  0.0197  0.0267  0.0049
  495PYPI   C3B 7605   7.280   9.446   9.912  0.3036  0.0005 -0.1494
  495PYPI   C4B 7606   7.198   9.502   9.425 -0.0487  0.0939  0.2395
  496PYPI    C1 7607   0.587  14.887  11.759  0.0424 -0.1454 -0.1590
  496PYPI    C2 7608   0.345  14.735  12.039 -0.0302  0.1693 -0.0459
  496PYPI    C3 7609   0.700  14.887  12.143 -0.0118  0.1912 -0.1400
  496PYPI   PO4 7610   0.412  15.049  11.586  0.2441 -0.2611 -0.0505
  496PYPI   GL1 7611   0.345  15.125  11.136 -0.0809 -0.0805  0.0024
  496PYPI   GL2 7612   0.476  15.358  10.929  0.2985  0.2686  0.3936
  496PYPI   C1A 7613   0.209  15.012  10.707  0.2040 -0.0446 -0.0123
  496PYPI   C2A 7614   0.117  14.937  10.287 -0.0601  0.0056  0.0897
  496PYPI   D3A 7615   0.080  14.826   9.817 -0.0424  0.2093  0.1121
  496PYPI   C4A 7616   0.007  14.793   9.404 -0.0007 -0.0005  0.0933
  496PYPI   C1B 7617   0.487  15.280  10.445  0.0121  0.0792  0.1534
  496PYPI   C2B 7618   0.429  15.229  10.021 -0.1181  0.1008 -0.0952
  496PYPI   C3B 7619   0.305  15.242   9.592  0.2241  0.1514  0.1382
  496PYPI   C4B 7620   0.333  15.064   9.149 -0.1381  0.1167  0.1386
  497PYPI    C1 7621   2.331  14.785  11.552 -0.2476  0.0082  0.0188
  497PYPI    C2 7622   2.195  14.951  11.890 -0.1683 -0.1443  0.1268
  497PYPI    C3 7623   2.459  14.651  11.907  0.1056  0.0797 -0.0775
  497PYPI   PO4 7624   2.355  15.035  11.412 -0.0670  0.1910  0.0856
  497PYPI   GL1 7625   2.490  15.052  10.955  0.0264 -0.3160  0.0795
  497PYPI   GL2 7626   2.264  14.870  10.901 -0.0696 -0.2141  0.3418
  497PYPI   C1A 7627   2.726  14.930  10.664 -0.1462 -0.2252 -0.0689
  497PYPI   C2A 7628   2.630  14.968  10.240  0.0522  0.1947  0.3439
  497PYPI   D3A 7629   2.611  14.990   9.865  0.0835  0.0305  0.0785
  497PYPI   C4A 7630   2.389  14.999   9.535  0.1222  0.0931  0.1457
  497PYPI   C1B 7631   2.231  14.888  10.475  0.1396  0.1366 -0.0362
  497PYPI   C2B 7632   2.046  15.058  10.205  0.2299 -0.4547 -0.1465
  497PYPI   C3B 7633   1.891  15.072   9.827 -0.1181  0.1555 -0.1231
  497PYPI   C4B 7634   1.806  15.088   9.409 -0.0977 -0.0023  0.0137
  498PYPI    C1 7635   2.740   6.503  11.941  0.0511  0.0273  0.0219
  498PYPI    C2 7636   2.669   6.573  12.329 -0.1904 -0.1728  0.0165
  498PYPI    C3 7637   2.615   6.206  12.179 -0.0325 -0.1122 -0.1933
  498PYPI   PO4 7638   2.749   6.710  11.853  0.0693  0.3176 -0.0594
  498PYPI   GL1 7639   2.765   6.935  11.370 -0.1585 -0.3062 -0.0617
  498PYPI   GL2 7640   2.605   7.147  11.329 -0.1249 -0.0743  0.0845
  498PYPI   C1A 7641   2.896   6.650  11.015  0.1667 -0.0559 -0.1806
  498PYPI   C2A 7642   2.996   6.643  10.662  0.1212 -0.2470 -0.1871
  498PYPI   D3A 7643   3.013   6.620  10.212 -0.2619 -0.0578 -0.3581
  498PYPI   C4A 7644   2.876   6.670   9.829  0.2413  0.0506  0.1600
  498PYPI   C1B 7645   2.820   7.129  10.928  0.0820  0.0157  0.2216
  498PYPI   C2B 7646   2.801   7.167  10.510 -0.2735  0.1997  0.2305
  498PYPI   C3B 7647   2.738   7.157  10.074 -0.2013  0.0263 -0.1358
  498PYPI   C4B 7648   2.726   7.234   9.659  0.1091  0.2794 -0.0115
  499PYPI    C1 7649  13.152   7.744  11.685  0.1598 -0.1037  0.0776
  499PYPI    C2 7650  12.966   7.558  11.986  0.2189 -0.0607  0.1408
  499PYPI    C3 7651  13.005   7.957  11.990  0.0822 -0.0453 -0.0002
  499PYPI   PO4 7652  13.020   7.569  11.445  0.2639 -0.0102  0.0247
  499PYPI   GL1 7653  13.199   7.581  11.073  0.4940 -0.1078  0.1890
  499PYPI   GL2 7654  13.456   7.661  11.112  0.2535  0.2016 -0.3262
  499PYPI   C1A 7655  13.099   7.794  10.814  0.0017  0.0024 -0.0737
  499PYPI   C2A 7656  13.058   7.847  10.423 -0.1385  0.2317 -0.1649
  499PYPI   D3A 7657  13.066   7.760  10.016 -0.0239  0.2652 -0.0790
  499PYPI   C4A 7658  13.121   7.663   9.642  0.1471 -0.3386  0.1584
  499PYPI   C1B 7659  13.541   7.697  10.773  0.1054  0.0971 -0.2698
  499PYPI   C2B 7660  13.585   7.719  10.372  0.2222 -0.0077 -0.0021
  499PYPI   C3B 7661  13.553   7.645   9.935 -0.0990  0.0427  0.1927
  499PYPI   C4B 7662  13.611   7.720   9.449 -0.1613 -0.0500  0.0122
  500PYPI    C1 7663  16.063  10.862  11.711 -0.1365 -0.1120  0.0323
  500PYPI    C2 7664  16.193  11.154  11.952 -0.0137 -0.0684 -0.0856
  500PYPI    C3 7665  15.801  11.085  11.915 -0.0339 -0.0691  0.1185
  500PYPI   PO4 7666  16.139  10.883  11.387  0.1516  0.3279 -0.0125
  500PYPI   GL1 7667  16.110  10.687  10.964 -0.2021 -0.1468  0.3249
  500PYPI   GL2 7668  15.755  10.799  11.051  0.5282 -0.0148 -0.0509
  500PYPI   C1A 7669  16.091  10.649  10.474 -0.0801 -0.3353 -0.1144
  500PYPI   C2A 7670  16.102  10.621  10.050  0.3291 -0.1408  0.0731
  500PYPI   D3A 7671  16.028  10.518   9.588  0.0419  0.0710 -0.2442
  500PYPI   C4A 7672  16.135  10.707   9.252 -0.0007 -0.2954 -0.2822
  500PYPI   C1B 7673  15.628  10.738  10.666 -0.0390 -0.0732  0.0542
  500PYPI   C2B 7674  15.601  10.630  10.197 -0.1322 -0.0702  0.2834
  500PYPI   C3B 7675  15.584  10.636   9.757  0.1085  0.1183  0.0608
  500PYPI   C4B 7676  15.512  10.764   9.319 -0.0148 -0.0724  0.2969
  501PYPI    C1 7677  13.474   3.777  11.352 -0.1187  0.1962  0.0414
  501PYPI    C2 7678  13.765   3.883  11.099 -0.0507  0.0697  0.0660
  501PYPI    C3 7679  13.841   3.857  11.491 -0.0260 -0.2113  0.0453
  501PYPI   PO4 7680  13.295   3.534  11.204 -0.0738  0.0499  0.0010
  501PYPI   GL1 7681  13.504   3.550  10.773  0.0688  0.1511  0.0566
  501PYPI   GL2 7682  13.704   3.268  10.708  0.1194 -0.2644 -0.0567
  501PYPI   C1A 7683  13.301   3.516  10.397 -0.3442  0.0487 -0.2792
  501PYPI   C2A 7684  13.266   3.586   9.954 -0.0438  0.2278  0.2805
  501PYPI   D3A 7685  13.333   3.720   9.582  0.0340 -0.1720 -0.1511
  501PYPI   C4A 7686  13.121   3.704   9.227  0.1393  0.0663 -0.1122
  501PYPI   C1B 7687  13.793   3.173  10.306  0.2575 -0.1248 -0.1735
  501PYPI   C2B 7688  13.747   3.237   9.859 -0.1964 -0.0037 -0.1088
  501PYPI   C3B 7689  13.866   3.437   9.476  0.2150 -0.0183  0.2131
  501PYPI   C4B 7690  13.685   3.815   9.318 -0.2500 -0.2758  0.1215
  502PYPI    C1 7691   3.752   6.118  11.825  0.1507 -0.0261  0.0066
  502PYPI    C2 7692   3.743   5.937  12.182  0.0474  0.0247  0.0300
  502PYPI    C3 7693   3.588   6.303  12.140  0.0121 -0.0023 -0.0789
  502PYPI   PO4 7694   3.696   5.887  11.628  0.0428 -0.1103  0.0229
  502PYPI   GL1 7695   3.395   5.881  11.244 -0.0186  0.0498  0.2070
  502PYPI   GL2 7696   3.122   5.962  11.319  0.1591 -0.0776 -0.1470
  502PYPI   C1A 7697   3.396   5.734  10.777 -0.1842 -0.1448 -0.0615
  502PYPI   C2A 7698   3.458   5.777  10.337 -0.2558 -0.0471  0.1712
  502PYPI   D3A 7699   3.334   5.682   9.978 -0.1613  0.2110  0.3107
  502PYPI   C4A 7700   3.398   5.811   9.550 -0.1164 -0.0826 -0.0283
  502PYPI   C1B 7701   3.155   6.225  10.934 -0.0669  0.1371 -0.2879
  502PYPI   C2B 7702   3.212   6.183  10.563 -0.1558  0.0172  0.1096
  502PYPI   C3B 7703   3.196   6.149  10.083  0.0334  0.4221  0.1424
  502PYPI   C4B 7704   3.230   6.255   9.694 -0.0076 -0.0717  0.1750
  503PYPI    C1 7705  12.572  12.870  11.631 -0.1516  0.1907 -0.0508
  503PYPI    C2 7706  12.369  12.890  11.976 -0.1150 -0.2081 -0.0007
  503PYPI    C3 7707  12.382  13.207  11.732 -0.1522  0.0745  0.3559
  503PYPI   PO4 7708  12.536  12.636  11.473  0.0961 -0.3847 -0.0579
  503PYPI   GL1 7709  12.483  12.607  11.046  0.0800  0.2668  0.0691
  503PYPI   GL2 7710  12.511  12.837  10.842  0.0505 -0.0438  0.2022
  503PYPI   C1A 7711  12.413  12.300  10.700  0.1195  0.0339 -0.1830
  503PYPI   C2A 7712  12.376  12.292  10.242  0.0605  0.0290  0.1372
  503PYPI   D3A 7713  12.335  12.366   9.852 -0.1503 -0.2892 -0.4260
  503PYPI   C4A 7714  12.361  12.255   9.404 -0.1698 -0.5006  0.2972
  503PYPI   C1B 7715  12.596  12.725  10.449  0.1552  0.3857 -0.1673
  503PYPI   C2B 7716  12.666  12.770  10.021  0.0930  0.0841 -0.2502
  503PYPI   C3B 7717  12.649  12.729   9.587  0.0796 -0.3633 -0.2485
  503PYPI   C4B 7718  12.384  12.714   9.224 -0.0306 -0.0607 -0.0910
  504PYPI    C1 7719   1.527   4.760  12.084  0.0717  0.0052 -0.0336
  504PYPI    C2 7720   1.298   5.088  12.089  0.1361  0.0505 -0.0329
  504PYPI    C3 7721   1.129   4.725  12.093  0.0675  0.0835  0.1284
  504PYPI   PO4 7722   1.647   4.716  11.817  0.0987  0.1124 -0.0692
  504PYPI   GL1 7723   1.554   4.688  11.348 -0.1973 -0.0022 -0.0166
  504PYPI   GL2 7724   1.793   4.844  11.298  0.0198  0.0066  0.2902
  504PYPI   C1A 7725   1.401   4.495  10.984 -0.3638 -0.0276  0.1484
  504PYPI   C2A 7726   1.550   4.456  10.589  0.1240 -0.2910  0.0568
  504PYPI   D3A 7727   1.398   4.418  10.179 -0.0912 -0.0671 -0.2558
  504PYPI   C4A 7728   1.436   4.427   9.779  0.0320  0.2656 -0.0126
  504PYPI   C1B 7729   1.759   4.840  10.864 -0.2201 -0.1513 -0.2326
  504PYPI   C2B 7730   1.726   4.883  10.437 -0.0790 -0.0336  0.4576
  504PYPI   C3B 7731   1.764   4.802   9.993 -0.1507 -0.1264  0.0919
  504PYPI   C4B 7732   1.662   4.813   9.541 -0.1264 -0.2866 -0.1221
  505PYPI    C1 7733   1.944   3.117  11.895 -0.0760  0.0804 -0.0294
  505PYPI    C2 7734   1.877   2.886  12.214  0.1947 -0.0438 -0.0597
  505PYPI    C3 7735   1.966   3.273  12.262 -0.0667  0.0104 -0.0000
  505PYPI   PO4 7736   1.967   2.949  11.721 -0.1276 -0.0885  0.0653
  505PYPI   GL1 7737   2.044   2.880  11.288  0.1963 -0.1927  0.1760
  505PYPI   GL2 7738   2.183   2.661  11.125  0.1646 -0.1413  0.2070
  505PYPI   C1A 7739   2.103   3.151  10.906  0.0183  0.2301  0.1638
  505PYPI   C2A 7740   2.122   3.142  10.430  0.1922  0.0051 -0.0999
  505PYPI   D3A 7741   2.047   2.984   9.930  0.0385 -0.1704  0.1172
  505PYPI   C4A 7742   2.145   2.930   9.539 -0.0689  0.0144 -0.0353
  505PYPI   C1B 7743   2.320   2.537  10.741  0.0460  0.1728 -0.1004
  505PYPI   C2B 7744   2.371   2.549  10.266 -0.2436  0.0368  0.2313
  505PYPI   C3B 7745   2.375   2.512   9.798 -0.0331  0.0866  0.2866
  505PYPI   C4B 7746   2.431   2.466   9.306  0.0529  0.2466 -0.0015
  506ERGO   ROH 7747  13.078  11.985  10.949 -0.1100 -0.0408 -0.0345
  506ERGO    R1 7748  13.163  11.853  10.714 -0.1091 -0.0638 -0.0207
  506ERGO    R2 7749  12.986  11.757  10.525 -0.1008  0.1308 -0.1266
  506ERGO    R3 7750  13.135  11.908  10.355  0.1143  0.0381 -0.0247
  506ERGO    R4 7751  12.972  11.739  10.180 -0.0457  0.2994 -0.1389
  506ERGO    R5 7752  13.189  11.760  10.175 -0.0155  0.0526 -0.0783
  506ERGO    C1 7753  13.104  11.871   9.820  0.1884  0.3103 -0.0503
  506ERGO    C2 7754  13.102  11.816   9.521  0.0279 -0.0474 -0.0663
  507ERGO   ROH 7755  11.205   9.636  11.211  0.1622  0.0699 -0.0912
  507ERGO    R1 7756  11.101   9.611  10.948  0.1745 -0.0836 -0.0823
  507ERGO    R2 7757  11.110   9.818  10.765  0.0803 -0.1536 -0.1655
  507ERGO    R3 7758  11.233   9.631  10.610  0.1664 -0.1602 -0.0904
  507ERGO    R4 7759  11.084   9.799  10.421  0.3070 -0.1387 -0.1847
  507ERGO    R5 7760  11.073   9.582  10.438  0.2747 -0.1390 -0.1989
  507ERGO    C1 7761  11.185   9.614  10.075  0.5200 -0.1364 -0.1253
  507ERGO    C2 7762  11.174   9.611   9.750 -0.0027 -0.0232 -0.2506
  508ERGO   ROH 7763   0.237   4.450  11.100 -0.2041 -0.2559 -0.0615
  508ERGO    R1 7764   0.248   4.590  10.855 -0.1053 -0.1034  0.0267
  508ERGO    R2 7765   0.455   4.560  10.674  0.0095  0.0648  0.1177
  508ERGO    R3 7766   0.253   4.505  10.501  0.1186  0.1077 -0.0224
  508ERGO    R4 7767   0.485   4.554  10.330  0.2047  0.2083  0.1323
  508ERGO    R5 7768   0.291   4.652  10.316  0.2032  0.1846  0.0599
  508ERGO    C1 7769   0.313   4.500   9.967  0.4208  0.3321  0.0095
  508ERGO    C2 7770   0.281   4.445   9.644  0.0096  0.0696  0.1757
  509ERGO   ROH 7771  14.491   5.847  11.044 -0.2352  0.1234 -0.0571
  509ERGO    R1 7772  14.593   5.711  10.818 -0.2953  0.0392 -0.0342
  509ERGO    R2 7773  14.480   5.733  10.567 -0.1457  0.2359 -0.0881
  509ERGO    R3 7774  14.732   5.802  10.494 -0.0176 -0.0675  0.0526
  509ERGO    R4 7775  14.601   5.725  10.243 -0.0193  0.2351 -0.0413
  509ERGO    R5 7776  14.789   5.646  10.321 -0.1554 -0.0589  0.0001
  509ERGO    C1 7777  14.908   5.785   9.987  0.1745 -0.0502  0.1182
  509ERGO    C2 7778  14.990   5.765   9.647 -0.0749 -0.0934  0.0308
  510ERGO   ROH 7779   9.669  16.829  10.878  0.2028  0.2487 -0.0197
  510ERGO    R1 7780   9.573  16.705  10.642  0.1060  0.1472  0.0718
  510ERGO    R2 7781   9.538  16.843  10.405  0.1328  0.0183 -0.0088
  510ERGO    R3 7782   9.697  16.646  10.305  0.0248 -0.1197  0.0862
  510ERGO    R4 7783   9.558  16.756  10.071  0.0404 -0.1997  0.0406
  510ERGO    R5 7784   9.566  16.547  10.131 -0.0489 -0.1667  0.1688
  510ERGO    C1 7785   9.719  16.521   9.783 -0.1149 -0.4561  0.1585
  510ERGO    C2 7786   9.777  16.462   9.489 -0.1371  0.2892 -0.0338
  511ERGO   ROH 7787   6.581  15.884  10.671 -0.1005 -0.0580  0.0799
  511ERGO    R1 7788   6.522  15.921  10.396 -0.1818 -0.2823  0.0649
  511ERGO    R2 7789   6.687  16.067  10.227 -0.4548 -0.0405  0.0004
  511ERGO    R3 7790   6.681  15.839  10.079 -0.0325 -0.1225  0.0959
  511ERGO    R4 7791   6.769  16.045   9.892 -0.2648 -0.0626  0.0472
  511ERGO    R5 7792   6.602  15.909   9.864 -0.0447 -0.3377  0.0272
  511ERGO    C1 7793   6.811  15.819   9.558  0.2422 -0.1524  0.1641
  511ERGO    C2 7794   7.112  15.798   9.376 -0.0736 -0.2338  0.0988
  512ERGO   ROH 7795  15.085   4.835  10.991  0.0418  0.1708  0.0268
  512ERGO    R1 7796  15.224   4.827  10.745 -0.0187  0.3019 -0.0127
  512ERGO    R2 7797  15.259   4.594  10.601  0.2802  0.3040  0.0464
  512ERGO    R3 7798  15.146   4.739  10.400  0.0027  0.0848  0.0375
  512ERGO    R4 7799  15.331   4.556  10.265  0.0991  0.2024  0.0174
  512ERGO    R5 7800  15.325   4.773  10.244 -0.1333  0.1850 -0.0964
  512ERGO    C1 7801  15.268   4.670   9.881 -0.2669 -0.0626 -0.0078
  512ERGO    C2 7802  15.398   4.676   9.658  0.0713  0.0111  0.3250
  513ERGO   ROH 7803  11.760  11.016  11.239  0.0285 -0.1116 -0.0141
  513ERGO    R1 7804  11.788  11.103  10.971  0.1504 -0.0954  0.0030
  513ERGO    R2 7805  12.007  11.036  10.815  0.0967 -0.3078  0.0126
  513ERGO    R3 7806  11.815  10.946  10.644  0.0122 -0.0717 -0.0197
  513ERGO    R4 7807  12.025  11.053  10.470  0.1446 -0.2745  0.0170
  513ERGO    R5 7808  11.814  11.106  10.466  0.2028 -0.0424  0.0051
  513ERGO    C1 7809  11.856  10.979  10.109  0.0931 -0.0334 -0.0107
  513ERGO    C2 7810  11.953  10.972   9.760  0.0205 -0.0166  0.0915
  514ERGO   ROH 7811   8.031   1.511  10.889  0.2253  0.1990  0.1073
  514ERGO    R1 7812   8.058   1.505  10.607  0.2676  0.2307  0.1108
  514ERGO    R2 7813   7.845   1.455  10.438  0.3618 -0.1183  0.0886
  514ERGO    R3 7814   7.921   1.689  10.325  0.0007  0.0060  0.0881
  514ERGO    R4 7815   7.778   1.546  10.112  0.2134 -0.2164  0.0900
  514ERGO    R5 7816   7.980   1.630  10.100  0.0896  0.0952  0.0864
  514ERGO    C1 7817   7.812   1.819   9.814 -0.2121 -0.1570  0.0904
  514ERGO    C2 7818   7.757   1.897   9.488 -0.1611 -0.1576 -0.0245
  515ERGO   ROH 7819   6.138  12.773  10.705 -0.0172 -0.0352  0.0059
  515ERGO    R1 7820   6.206  12.845  10.440 -0.1822  0.1297  0.0079
  515ERGO    R2 7821   6.320  12.667  10.260  0.1244  0.3607 -0.0303
  515ERGO    R3 7822   6.109  12.740  10.105 -0.0350  0.0001  0.0043
  515ERGO    R4 7823   6.301  12.621   9.919  0.3576  0.7273 -0.0996
  515ERGO    R5 7824   6.210  12.817   9.901 -0.1652  0.5236  0.1215
  515ERGO    C1 7825   6.093  12.662   9.573  0.3438  0.6023 -0.1075
  515ERGO    C2 7826   6.106  12.587   9.311 -0.0344 -0.0187 -0.0907
  516ERGO   ROH 7827  16.325  11.221  11.016 -0.0738  0.0943 -0.2262
  516ERGO    R1 7828  16.464  11.185  10.771 -0.1336  0.0393 -0.2522
  516ERGO    R2 7829  16.471  10.943  10.638 -0.1540  0.0067 -0.1947
  516ERGO    R3 7830  16.378  11.092  10.430 -0.2127 -0.0517 -0.2071
  516ERGO    R4 7831  16.492  10.853  10.305 -0.0590  0.0170 -0.1913
  516ERGO    R5 7832  16.540  11.060  10.257 -0.1743  0.0414 -0.1860
  516ERGO    C1 7833  16.418  10.940   9.916 -0.0588 -0.0318 -0.2009
  516ERGO    C2 7834  16.348  11.099   9.612  0.1289 -0.1206  0.1259
  517ERGO   ROH 7835  11.670   2.022  10.697  0.1205 -0.0528 -0.0062
  517ERGO    R1 7836  11.787   1.972  10.444 -0.0086  0.0267 -0.0824
  517ERGO    R2 7837  11.639   1.888  10.226 -0.1109  0.0384 -0.0165
  517ERGO    R3 7838  11.753   2.103  10.107 -0.2273  0.0893 -0.0385
  517ERGO    R4 7839  11.629   1.954   9.887  0.0340 -0.1168 -0.0525
  517ERGO    R5 7840  11.837   2.019   9.899 -0.0267  0.0710  0.0466
  517ERGO    C1 7841  11.731   2.194   9.577  0.0091 -0.1593 -0.0940
  517ERGO    C2 7842  11.600   2.215   9.168  0.1061  0.1479 -0.2070
  518ERGO   ROH 7843   5.304  13.321  10.721 -0.1419 -0.3484 -0.0117
  518ERGO    R1 7844   5.332  13.456  10.473  0.0952 -0.2222  0.0801
  518ERGO    R2 7845   5.550  13.419  10.307  0.0454 -0.4820  0.0647
  518ERGO    R3 7846   5.359  13.361  10.123 -0.0545 -0.0340  0.0164
  518ERGO    R4 7847   5.600  13.411   9.965  0.0473 -0.3765  0.0623
  518ERGO    R5 7848   5.406  13.507   9.939  0.2167 -0.0111  0.1024
  518ERGO    C1 7849   5.449  13.352   9.593 -0.0454  0.1056  0.0157
  518ERGO    C2 7850   5.525  13.159   9.260 -0.0481  0.2342 -0.1481
  519ERGO   ROH 7851   7.224   7.015  11.109  0.1765 -0.1333 -0.0923
  519ERGO    R1 7852   7.173   7.138  10.859  0.0431 -0.1216 -0.0607
  519ERGO    R2 7853   7.373   7.191  10.676 -0.0418 -0.0344 -0.1298
  519ERGO    R3 7854   7.212   7.050  10.508 -0.0571 -0.0689 -0.0856
  519ERGO    R4 7855   7.363   7.230  10.333 -0.1950  0.0207 -0.1191
  519ERGO    R5 7856   7.146   7.209  10.342 -0.1855 -0.0641 -0.0329
  519ERGO    C1 7857   7.206   7.121   9.976 -0.2986  0.0204 -0.0715
  519ERGO    C2 7858   7.331   7.260   9.726  0.2293  0.1013 -0.1158
  520ERGO   ROH 7859  10.650   7.538  11.457  0.1044 -0.0954  0.1644
  520ERGO    R1 7860  10.794   7.544  11.213  0.1141 -0.2013  0.1671
  520ERGO    R2 7861  10.784   7.337  11.030 -0.0609 -0.1821  0.1542
  520ERGO    R3 7862  10.712   7.536  10.858  0.1114 -0.1071  0.1647
  520ERGO    R4 7863  10.798   7.315  10.685 -0.1011 -0.1809  0.1528
  520ERGO    R5 7864  10.872   7.521  10.680  0.0884 -0.2463  0.1555
  520ERGO    C1 7865  10.739   7.489  10.324  0.0371 -0.1098  0.1616
  520ERGO    C2 7866  10.712   7.503  10.005 -0.3077 -0.1662 -0.0537
  521ERGO   ROH 7867  14.755   3.177  10.766 -0.2249 -0.1649 -0.0303
  521ERGO    R1 7868  14.615   3.174  10.520 -0.1660  0.1018 -0.0698
  521ERGO    R2 7869  14.669   3.354  10.317  0.1599  0.0749 -0.0168
  521ERGO    R3 7870  14.700   3.128  10.169 -0.1376  0.0565 -0.0563
  521ERGO    R4 7871  14.723   3.347   9.976 -0.0484  0.0478 -0.0499
  521ERGO    R5 7872  14.588   3.176   9.963 -0.2150  0.1744  0.0141
  521ERGO    C1 7873  14.783   3.131   9.638 -0.4491  0.0147 -0.1064
  521ERGO    C2 7874  14.905   3.189   9.359 -0.1403  0.4137 -0.3944
  522ERGO   ROH 7875   0.021  14.632  10.866  0.3462  0.0193 -0.3308
  522ERGO    R1 7876   0.026  14.523  10.605 -0.0059 -0.1299 -0.2803
  522ERGO    R2 7877  -0.147  14.324  10.523 -0.2730 -0.0147 -0.0066
  522ERGO    R3 7878  -0.205  14.500  10.324 -0.3002 -0.0710 -0.0495
  522ERGO    R4 7879  -0.137  14.250  10.186  0.0354 -0.0158 -0.0004
  522ERGO    R5 7880  -0.048  14.446  10.150 -0.1233  0.0711  0.0602
  522ERGO    C1 7881  -0.185  14.372   9.802  0.1896 -0.0693 -0.0371
  522ERGO    C2 7882  -0.263  14.370   9.553 -0.0682 -0.1481 -0.0702
  523ERGO   ROH 7883   4.819  12.570  10.845  0.0846 -0.0963 -0.0545
  523ERGO    R1 7884   4.718  12.559  10.581  0.0824  0.0709 -0.0622
  523ERGO    R2 7885   4.776  12.751  10.390  0.3083  0.0488 -0.0217
  523ERGO    R3 7886   4.857  12.536  10.245  0.0757 -0.0172 -0.0582
  523ERGO    R4 7887   4.782  12.737  10.045  0.2422  0.0717 -0.0240
  523ERGO    R5 7888   4.709  12.532  10.057  0.0443  0.1435 -0.0351
  523ERGO    C1 7889   4.861  12.526   9.708 -0.0145  0.0230 -0.0596
  523ERGO    C2 7890   4.926  12.365   9.341  0.1614  0.0635 -0.0816
  524ERGO   ROH 7891   2.837  12.164  10.858 -0.0705  0.2574 -0.0381
  524ERGO    R1 7892   2.939  12.223  10.601 -0.1002  0.3216 -0.0344
  524ERGO    R2 7893   2.915  12.050  10.388  0.1786  0.2239  0.0154
  524ERGO    R3 7894   2.804  12.266  10.265 -0.0934  0.0383 -0.0770
  524ERGO    R4 7895   2.869  12.079  10.047  0.3323  0.0964 -0.0181
  524ERGO    R5 7896   2.930  12.289  10.062 -0.0034  0.2045 -0.0081
  524ERGO    C1 7897   2.738  12.299   9.733  0.1665 -0.1521 -0.1242
  524ERGO    C2 7898   2.690  12.070   9.413  0.1071 -0.2628 -0.0190
  525ERGO   ROH 7899  16.042   5.901  11.241  0.2462 -0.2447  0.0376
  525ERGO    R1 7900  15.981   6.030  10.996  0.0644 -0.2197  0.0969
  525ERGO    R2 7901  16.167   6.176  10.854 -0.1035 -0.0278  0.0871
  525ERGO    R3 7902  16.094   6.010  10.651 -0.0306 -0.0174  0.0493
  525ERGO    R4 7903  16.268   6.208  10.525 -0.0237  0.0480  0.1176
  525ERGO    R5 7904  16.067   6.154  10.463 -0.0119  0.0178  0.0625
  525ERGO    C1 7905  16.258   6.072  10.143  0.0910  0.1019  0.0999
  525ERGO    C2 7906  16.210   5.954   9.859  0.2263  0.2451  0.2940
  526ERGO   ROH 7907  12.011   1.128  10.474 -0.1373 -0.0871 -0.1071
  526ERGO    R1 7908  12.131   1.056  10.228 -0.2095 -0.1056 -0.1369
  526ERGO    R2 7909  12.071   1.184   9.990 -0.1071  0.0325 -0.0887
  526ERGO    R3 7910  12.340   1.219   9.979 -0.0746 -0.2002 -0.0867
  526ERGO    R4 7911  12.258   1.184   9.700 -0.1549  0.2101 -0.1212
  526ERGO    R5 7912  12.412   1.072   9.805 -0.2385 -0.0604 -0.2784
  526ERGO    C1 7913  12.620   1.217   9.520 -0.1523  0.0952 -0.1382
  526ERGO    C2 7914  12.852   1.157   9.254  0.2109 -0.2577  0.2150
  527ERGO   ROH 7915   4.327   7.857  10.976  0.0832  0.1088  0.0406
  527ERGO    R1 7916   4.319   7.975  10.718  0.0225  0.0067 -0.0082
  527ERGO    R2 7917   4.536   7.975  10.547 -0.0090 -0.0690 -0.0744
  527ERGO    R3 7918   4.358   7.862  10.375 -0.0648 -0.1430  0.0348
  527ERGO    R4 7919   4.558   7.990  10.203 -0.3749  0.1232 -0.0922
  527ERGO    R5 7920   4.342   8.019  10.195 -0.3969 -0.0797  0.1300
  527ERGO    C1 7921   4.405   7.894   9.840 -0.6403  0.1656  0.0002
  527ERGO    C2 7922   4.311   7.785   9.553  0.1050  0.1533  0.1209
  528ERGO   ROH 7923  12.554  15.007  11.089  0.1450 -0.1120 -0.0470
  528ERGO    R1 7924  12.470  15.107  10.838 -0.0174 -0.1594 -0.0132
  528ERGO    R2 7925  12.646  15.215  10.654 -0.1626  0.0064 -0.0607
  528ERGO    R3 7926  12.535  15.031  10.488 -0.0601 -0.0750 -0.0390
  528ERGO    R4 7927  12.648  15.232  10.309 -0.1623 -0.0428 -0.0628
  528ERGO    R5 7928  12.443  15.159  10.308 -0.1223 -0.1506 -0.0597
  528ERGO    C1 7929  12.546  15.069   9.952 -0.0659 -0.1479 -0.0435
  528ERGO    C2 7930  12.521  15.087   9.612 -0.1277  0.2290 -0.0813
  529ERGO   ROH 7931  10.604   4.604  10.898 -0.2774 -0.2105 -0.2142
  529ERGO    R1 7932  10.710   4.638  10.638 -0.2071  0.0362 -0.1562
  529ERGO    R2 7933  10.639   4.476  10.426  0.1299 -0.0035 -0.2482
  529ERGO    R3 7934  10.578   4.713  10.307 -0.1716 -0.0479 -0.1886
  529ERGO    R4 7935  10.673   4.542  10.088  0.1811  0.1732 -0.2088
  529ERGO    R5 7936  10.747   4.741  10.140 -0.1376  0.2675 -0.1046
  529ERGO    C1 7937  10.636   4.803   9.780 -0.0721  0.2345 -0.1299
  529ERGO    C2 7938  10.546   4.829   9.495  0.1642 -0.1211  0.2003
  530ERGO   ROH 7939   7.506   8.901  11.307  0.0159  0.0684 -0.0123
  530ERGO    R1 7940   7.556   8.989  11.043  0.0301  0.0215 -0.0272
  530ERGO    R2 7941   7.647   8.820  10.844  0.1129 -0.0041  0.0181
  530ERGO    R3 7942   7.429   8.911  10.710  0.0995 -0.0993 -0.0227
  530ERGO    R4 7943   7.638   8.888  10.506  0.1524  0.0865  0.0361
  530ERGO    R5 7944   7.519   9.065  10.550  0.0396 -0.0061  0.0453
  530ERGO    C1 7945   7.429   9.014  10.183  0.1628  0.0500  0.0085
  530ERGO    C2 7946   7.474   8.978   9.857  0.4570  0.0304  0.0449
  531ERGO   ROH 7947  10.751   1.419  11.032 -0.0874 -0.0417  0.0760
  531ERGO    R1 7948  10.639   1.427  10.772 -0.0368 -0.1609  0.0504
  531ERGO    R2 7949  10.734   1.595  10.574 -0.1650 -0.0635  0.0722
  531ERGO    R3 7950  10.755   1.364  10.432  0.1076 -0.0463  0.0772
  531ERGO    R4 7951  10.717   1.572  10.230 -0.2895 -0.1079  0.0803
  531ERGO    R5 7952  10.599   1.390  10.253 -0.0170 -0.2827  0.1458
  531ERGO    C1 7953  10.726   1.342   9.896 -0.1061 -0.1176  0.0898
  531ERGO    C2 7954  10.817   1.519   9.577  0.0733 -0.0086 -0.1118
  532ERGO   ROH 7955   2.763   4.924  11.020 -0.0545  0.0483  0.0572
  532ERGO    R1 7956   2.753   4.809  10.761 -0.0833 -0.0088  0.0825
  532ERGO    R2 7957   2.624   4.930  10.549  0.0465  0.0343  0.0225
  532ERGO    R3 7958   2.864   4.899  10.427  0.0528 -0.1685  0.0837
  532ERGO    R4 7959   2.667   4.849  10.216  0.0646 -0.0867  0.0548
  532ERGO    R5 7960   2.831   4.718  10.275 -0.0405 -0.1862  0.1263
  532ERGO    C1 7961   2.919   4.773   9.907  0.0811 -0.3475  0.1311
  532ERGO    C2 7962   2.887   4.714   9.643  0.2890  0.1054 -0.2011
  533ERGO   ROH 7963   8.092  12.759  10.895  0.1724 -0.3564  0.0535
  533ERGO    R1 7964   8.106  12.612  10.653  0.1508 -0.0989 -0.1078
  533ERGO    R2 7965   7.951  12.674  10.433  0.0397  0.0627  0.0106
  533ERGO    R3 7966   8.191  12.682  10.306 -0.0087  0.3057 -0.0705
  533ERGO    R4 7967   8.003  12.581  10.104  0.0320  0.0994 -0.0009
  533ERGO    R5 7968   8.191  12.488  10.166  0.1498  0.2980 -0.0585
  533ERGO    C1 7969   8.260  12.535   9.794 -0.0180  0.3489 -0.0837
  533ERGO    C2 7970   8.266  12.524   9.413 -0.1840 -0.0492  0.2081
  534ERGO   ROH 7971   1.747  14.591  10.867  0.1370  0.0262 -0.1220
  534ERGO    R1 7972   1.756  14.695  10.604 -0.0192  0.0788 -0.1078
  534ERGO    R2 7973   1.903  14.576  10.402 -0.0441  0.1835 -0.1905
  534ERGO    R3 7974   1.664  14.580  10.272 -0.1013  0.0951 -0.0902
  534ERGO    R4 7975   1.864  14.561  10.059 -0.1974  0.0190 -0.1673
  534ERGO    R5 7976   1.706  14.709  10.074 -0.2052  0.0063 -0.1688
  534ERGO    C1 7977   1.618  14.556   9.737 -0.3403 -0.1597 -0.0598
  534ERGO    C2 7978   1.503  14.627   9.366  0.1059  0.0840  0.0912
  535ERGO   ROH 7979  12.565   5.768  10.931 -0.2474  0.0750  0.0155
  535ERGO    R1 7980  12.414   5.774  10.692 -0.1405  0.2299 -0.0510
  535ERGO    R2 7981  12.426   5.985  10.513  0.2391  0.1738 -0.1083
  535ERGO    R3 7982  12.485   5.788  10.335  0.0370  0.0358 -0.0239
  535ERGO    R4 7983  12.382   6.008  10.171  0.3022  0.0801 -0.1219
  535ERGO    R5 7984  12.311   5.802  10.171  0.0726  0.1618 -0.0462
  535ERGO    C1 7985  12.411   5.836   9.805  0.1492 -0.1041 -0.0505
  535ERGO    C2 7986  12.399   5.980   9.450 -0.1495  0.0565 -0.1922
  536ERGO   ROH 7987   2.078   6.089  11.057  0.3441  0.0715 -0.0819
  536ERGO    R1 7988   2.002   6.219  10.817  0.1508  0.0417 -0.0399
  536ERGO    R2 7989   2.187   6.306  10.630  0.0145  0.2055 -0.1050
  536ERGO    R3 7990   2.037   6.156  10.460  0.0622  0.1070 -0.0598
  536ERGO    R4 7991   2.230   6.294  10.287 -0.0884  0.2410 -0.1187
  536ERGO    R5 7992   2.013   6.293  10.265 -0.0942  0.0934 -0.0494
  536ERGO    C1 7993   2.114   6.147   9.928 -0.1036  0.1693 -0.0843
  536ERGO    C2 7994   2.182   6.111   9.593  0.3424 -0.0036  0.3127
  537ERGO   ROH 7995   3.081   9.874  11.115  0.2318  0.0991 -0.0611
  537ERGO    R1 7996   3.048   9.765  10.856  0.1308 -0.0093 -0.0043
  537ERGO    R2 7997   2.827   9.817  10.699  0.0061 -0.1728  0.1041
  537ERGO    R3 7998   3.014   9.893  10.517 -0.1340 -0.1418 -0.0289
  537ERGO    R4 7999   2.785   9.806  10.356 -0.2853 -0.0030  0.1309
  537ERGO    R5 8000   2.991   9.735  10.338 -0.3250 -0.0478 -0.0820
  537ERGO    C1 8001   2.936   9.870   9.986 -0.5866  0.1250  0.0217
  537ERGO    C2 8002   2.912   9.740   9.641  0.0323  0.3347  0.0781
  538ERGO   ROH 8003  15.620  14.930  10.881  0.0027  0.2023 -0.1157
  538ERGO    R1 8004  15.690  14.980  10.611  0.0778  0.1243 -0.1138
  538ERGO    R2 8005  15.794  14.785  10.446  0.0700  0.0551 -0.0528
  538ERGO    R3 8006  15.587  14.857  10.284  0.1196  0.0722 -0.1050
  538ERGO    R4 8007  15.799  14.772  10.100  0.1900  0.1658 -0.0541
  538ERGO    R5 8008  15.692  14.962  10.096  0.1649  0.1447 -0.0337
  538ERGO    C1 8009  15.607  14.831   9.748  0.3065  0.2464 -0.1039
  538ERGO    C2 8010  15.528  14.812   9.346  0.4237  0.2160  0.0893
  539ERGO   ROH 8011   0.077   0.844  10.843 -0.0086  0.2177  0.0012
  539ERGO    R1 8012   0.007   0.942  10.587  0.0525  0.0776 -0.0699
  539ERGO    R2 8013   0.196   1.009  10.396  0.0951 -0.1267 -0.0995
  539ERGO    R3 8014   0.053   0.836  10.242  0.0367 -0.1697  0.0015
  539ERGO    R4 8015   0.201   1.001  10.050 -0.1890 -0.0845 -0.1068
  539ERGO    R5 8016  -0.014   0.966  10.053 -0.1761 -0.1744  0.0700
  539ERGO    C1 8017   0.069   0.835   9.704 -0.4093 -0.1003 -0.0162
  539ERGO    C2 8018   0.039   0.988   9.333 -0.0198  0.3804  0.0948
  540ERGO   ROH 8019   4.575  11.637  10.838 -0.0160  0.1081  0.0723
  540ERGO    R1 8020   4.715  11.591  10.597  0.0928 -0.0113  0.1554
  540ERGO    R2 8021   4.640  11.397  10.415  0.0977 -0.0209  0.1541
  540ERGO    R3 8022   4.641  11.606  10.241  0.2847 -0.0548  0.1143
  540ERGO    R4 8023   4.631  11.368  10.071 -0.0356 -0.0665  0.1617
  540ERGO    R5 8024   4.775  11.530  10.058  0.1429 -0.2361  0.0889
  540ERGO    C1 8025   4.627  11.546   9.707  0.0623 -0.1248  0.1288
  540ERGO    C2 8026   4.541  11.448   9.352 -0.1598 -0.0369  0.3323
  541ERGO   ROH 8027  14.657   6.421  11.476  0.1994  0.3548 -0.0700
  541ERGO    R1 8028  14.581   6.277  11.244  0.0804  0.1513  0.0924
  541ERGO    R2 8029  14.479   6.400  11.019 -0.0694 -0.0493  0.0486
  541ERGO    R3 8030  14.681   6.267  10.894 -0.1264 -0.1257  0.0377
  541ERGO    R4 8031  14.506   6.359  10.677  0.0243  0.1603  0.0297
  541ERGO    R5 8032  14.573   6.154  10.712 -0.1501  0.0804 -0.0797
  541ERGO    C1 8033  14.710   6.211  10.360  0.0255  0.2105  0.0084
  541ERGO    C2 8034  14.807   6.268  10.044  0.1274  0.0377 -0.1876
  542ERGO   ROH 8035  12.780   3.349  10.461 -0.1010  0.0089  0.0084
  542ERGO    R1 8036  12.858   3.437  10.203  0.0109 -0.0283  0.0281
  542ERGO    R2 8037  12.802   3.294   9.974  0.0192 -0.0139  0.0103
  542ERGO    R3 8038  12.692   3.528   9.893  0.1359  0.0303 -0.0204
  542ERGO    R4 8039  12.779   3.397   9.645  0.1808  0.0222  0.0099
  542ERGO    R5 8040  12.830   3.599   9.710  0.2270 -0.0049  0.0395
  542ERGO    C1 8041  12.661   3.678   9.377  0.3844  0.0848 -0.0192
  542ERGO    C2 8042  12.571   3.793   9.096 -0.0452  0.0032  0.1477
  543ERGO   ROH 8043  12.977   7.093  11.140 -0.2597  0.0473 -0.0655
  543ERGO    R1 8044  12.795   7.133  10.927 -0.1591  0.1315 -0.1359
  543ERGO    R2 8045  12.806   7.353  10.762  0.0658  0.0767 -0.1893
  543ERGO    R3 8046  12.813   7.165  10.565 -0.0174  0.0208 -0.1409
  543ERGO    R4 8047  12.788   7.421  10.423 -0.0411 -0.0061 -0.2013
  543ERGO    R5 8048  12.659   7.246  10.400 -0.0687 -0.0045 -0.1111
  543ERGO    C1 8049  12.784   7.284  10.042 -0.1815 -0.1067 -0.1629
  543ERGO    C2 8050  12.758   7.256   9.761  0.0719 -0.3900  0.0372
  544ERGO   ROH 8051   7.158  11.120  11.378  0.1100  0.0805 -0.0702
  544ERGO    R1 8052   7.036  11.011  11.147 -0.0787  0.1753 -0.0176
  544ERGO    R2 8053   6.976  11.164  10.925  0.1034  0.1926 -0.0586
  544ERGO    R3 8054   7.122  10.975  10.795 -0.1778 -0.0587 -0.0195
  544ERGO    R4 8055   6.942  11.085  10.591  0.0166  0.2058 -0.0528
  544ERGO    R5 8056   6.966  10.875  10.643 -0.3232  0.1687 -0.0255
  544ERGO    C1 8057   7.060  10.862  10.273 -0.2979 -0.0223 -0.0129
  544ERGO    C2 8058   7.040  10.844   9.903  0.0831  0.0571 -0.1427
  545ERGO   ROH 8059  15.502  13.197  10.985 -0.1282  0.0093  0.0033
  545ERGO    R1 8060  15.575  13.096  10.730 -0.0347 -0.0032  0.0342
  545ERGO    R2 8061  15.400  12.952  10.572  0.0323 -0.0372 -0.0109
  545ERGO    R3 8062  15.464  13.141  10.387  0.0692 -0.0442 -0.0051
  545ERGO    R4 8063  15.404  12.901  10.230  0.1650 -0.0677 -0.0048
  545ERGO    R5 8064  15.585  13.021  10.219  0.1495 -0.0399  0.0501
  545ERGO    C1 8065  15.466  13.048   9.858  0.2768 -0.0922  0.0041
  545ERGO    C2 8066  15.510  13.047   9.492 -0.2192  0.3879 -0.1407
  546ERGO   ROH 8067  13.972   0.179  10.770  0.2327  0.0315 -0.0329
  546ERGO    R1 8068  13.885   0.229  10.505  0.1791  0.0624 -0.0104
  546ERGO    R2 8069  14.055   0.325  10.310  0.1620  0.0042 -0.0574
  546ERGO    R3 8070  13.968   0.107  10.173  0.0485  0.0332 -0.0320
  546ERGO    R4 8071  14.102   0.273   9.971  0.0367 -0.0128 -0.0723
  546ERGO    R5 8072  13.899   0.194   9.960  0.0096  0.0536 -0.0089
  546ERGO    C1 8073  14.048   0.038   9.645 -0.1428  0.0046 -0.0571
  546ERGO    C2 8074  14.044  -0.016   9.339 -0.0906 -0.0287 -0.1316
  547ERGO   ROH 8075  13.385   1.035  10.654 -0.3078 -0.3505 -0.0279
  547ERGO    R1 8076  13.399   1.154  10.397 -0.0375 -0.1371  0.0803
  547ERGO    R2 8077  13.640   1.208  10.272  0.0962 -0.3440  0.2349
  547ERGO    R3 8078  13.530   1.061  10.071 -0.0176 -0.0235  0.0564
  547ERGO    R4 8079  13.771   1.180   9.953  0.1985 -0.2479  0.2687
  547ERGO    R5 8080  13.569   1.192   9.874  0.2478  0.0968  0.1851
  547ERGO    C1 8081  13.745   1.027   9.579  0.1513  0.1089  0.1208
  547ERGO    C2 8082  13.771   1.062   9.262 -0.1829 -0.4562  0.0072
  548ERGO   ROH 8083   5.270   1.768  11.393  0.1130  0.0819  0.0184
  548ERGO    R1 8084   5.209   1.815  11.120  0.0182  0.1221  0.0462
  548ERGO    R2 8085   5.284   2.045  10.988  0.1361  0.0603  0.0053
  548ERGO    R3 8086   5.396   1.870  10.813 -0.0843 -0.0332 -0.0457
  548ERGO    R4 8087   5.239   2.052  10.646  0.1600  0.2326  0.0043
  548ERGO    R5 8088   5.226   1.834  10.648 -0.1268  0.2435 -0.0671
  548ERGO    C1 8089   5.317   1.891  10.282 -0.0330  0.2453 -0.0442
  548ERGO    C2 8090   5.189   1.891   9.926 -0.0986 -0.2589 -0.1296
  549ERGO   ROH 8091   8.387  16.170  10.659 -0.1388  0.1443  0.0349
  549ERGO    R1 8092   8.276  16.135  10.401 -0.0763  0.1897  0.0028
  549ERGO    R2 8093   8.291  16.330  10.204  0.1528  0.1410 -0.0238
  549ERGO    R3 8094   8.400  16.127  10.059  0.0372  0.0261  0.0453
  549ERGO    R4 8095   8.273  16.300   9.860  0.2392  0.1060 -0.0265
  549ERGO    R5 8096   8.242  16.086   9.885  0.0554  0.1299 -0.0007
  549ERGO    C1 8097   8.364  16.093   9.524  0.1811 -0.0222  0.0368
  549ERGO    C2 8098   8.499  16.082   9.140 -0.0415 -0.5963 -0.2854
  550ERGO   ROH 8099   6.089   3.858   6.960  0.0340 -0.1448 -0.0953
  550ERGO    R1 8100   6.173   3.729   7.198  0.0091 -0.1826 -0.1063
  550ERGO    R2 8101   6.190   3.861   7.440  0.2479 -0.1463 -0.1356
  550ERGO    R3 8102   6.030   3.658   7.525  0.0754  0.0298 -0.0306
  550ERGO    R4 8103   6.236   3.682   7.733  0.2366 -0.2059 -0.1702
  550ERGO    R5 8104   6.182   3.501   7.624 -0.0383 -0.1431 -0.1336
  550ERGO    C1 8105   6.114   3.388   7.982  0.0680 -0.0753 -0.0917
  550ERGO    C2 8106   6.221   3.215   8.123  0.1700  0.1875  0.1727
  551ERGO   ROH 8107   2.358  12.262  10.843  0.0624 -0.0668 -0.0442
  551ERGO    R1 8108   2.435  12.285  10.571  0.0323 -0.0913 -0.0537
  551ERGO    R2 8109   2.427  12.071  10.396 -0.1314 -0.0684 -0.0680
  551ERGO    R3 8110   2.276  12.240  10.247 -0.0471  0.0391 -0.0354
  551ERGO    R4 8111   2.411  12.068  10.051 -0.2425 -0.1018 -0.0635
  551ERGO    R5 8112   2.411  12.286  10.054 -0.0655 -0.0937 -0.0868
  551ERGO    C1 8113   2.259  12.225   9.710 -0.2282 -0.0203 -0.0303
  551ERGO    C2 8114   2.157  12.123   9.307 -0.0329  0.0047 -0.0238
  552ERGO   ROH 8115  12.610   7.860   7.054 -0.2377 -0.1593  0.1919
  552ERGO    R1 8116  12.566   7.779   7.322 -0.0883 -0.0582  0.2492
  552ERGO    R2 8117  12.747   7.624   7.462  0.0232  0.0497  0.2322
  552ERGO    R3 8118  12.730   7.827   7.643  0.0533  0.1245  0.1503
  552ERGO    R4 8119  12.738   7.584   7.806 -0.0817  0.1882  0.2460
  552ERGO    R5 8120  12.589   7.741   7.816 -0.0225  0.2476  0.1469
  552ERGO    C1 8121  12.718   7.751   8.175 -0.1145  0.3392  0.1770
  552ERGO    C2 8122  12.788   7.564   8.405 -0.2647 -0.3630  0.2287
  553ERGO   ROH 8123   9.786   4.780  10.892 -0.1954  0.1148  0.0469
  553ERGO    R1 8124   9.701   4.689  10.638 -0.0153  0.0406  0.0121
  553ERGO    R2 8125   9.526   4.833  10.479 -0.2136 -0.1890  0.0172
  553ERGO    R3 8126   9.724   4.807  10.294 -0.1384  0.1566  0.0430
  553ERGO    R4 8127   9.476   4.770  10.143 -0.0615 -0.1947 -0.0052
  553ERGO    R5 8128   9.646   4.635  10.148  0.1510  0.0648 -0.0082
  553ERGO    C1 8129   9.632   4.709   9.774  0.0977  0.1264  0.0059
  553ERGO    C2 8130   9.491   4.825   9.453 -0.0584  0.1078  0.0905
  554ERGO   ROH 8131  13.380  11.640  11.125  0.0498  0.1323 -0.0828
  554ERGO    R1 8132  13.410  11.453  10.915 -0.0667 -0.0361  0.0470
  554ERGO    R2 8133  13.203  11.387  10.744 -0.0909  0.0297  0.0454
  554ERGO    R3 8134  13.382  11.457  10.552  0.0153 -0.2504  0.0384
  554ERGO    R4 8135  13.164  11.328  10.405 -0.1894  0.0947  0.0454
  554ERGO    R5 8136  13.375  11.277  10.395 -0.2707 -0.2375  0.0368
  554ERGO    C1 8137  13.309  11.360  10.028 -0.1471 -0.1303  0.0386
  554ERGO    C2 8138  13.253  11.384   9.686 -0.0830 -0.2449 -0.0321
  555ERGO   ROH 8139   1.684  11.579  11.169 -0.2496  0.2617 -0.1169
  555ERGO    R1 8140   1.827  11.483  10.945 -0.2318  0.0564 -0.0191
  555ERGO    R2 8141   1.738  11.271  10.791 -0.3384  0.0666  0.0286
  555ERGO    R3 8142   1.767  11.448  10.588 -0.1088 -0.0363 -0.0316
  555ERGO    R4 8143   1.698  11.195  10.456 -0.4843  0.0136  0.0571
  555ERGO    R5 8144   1.870  11.322  10.413 -0.3063 -0.2419 -0.0042
  555ERGO    C1 8145   1.702  11.318  10.070 -0.3537 -0.1140  0.0172
  555ERGO    C2 8146   1.666  11.246   9.741 -0.2789 -0.2514 -0.0637
  556ERGO   ROH 8147  10.528  11.246  11.061  0.1086  0.0639  0.0251
  556ERGO    R1 8148  10.718  11.251  10.851  0.1971  0.0020  0.1018
  556ERGO    R2 8149  10.781  11.027  10.703  0.0440  0.0178  0.0032
  556ERGO    R3 8150  10.717  11.188  10.493  0.2717  0.1985  0.0656
  556ERGO    R4 8151  10.842  10.953  10.371 -0.0915  0.0553 -0.0307
  556ERGO    R5 8152  10.899  11.161  10.340  0.2222 -0.0158  0.0445
  556ERGO    C1 8153  10.818  11.061   9.981  0.0435  0.2468  0.0082
  556ERGO    C2 8154  10.889  10.945   9.615 -0.1550  0.0195  0.0465
  557ERGO   ROH 8155  15.250  14.517  10.799 -0.0630 -0.0093 -0.0364
  557ERGO    R1 8156  15.329  14.599  10.541 -0.1941  0.0139 -0.0677
  557ERGO    R2 8157  15.458  14.432  10.364  0.0554  0.1441 -0.0005
  557ERGO    R3 8158  15.255  14.502  10.197 -0.0542 -0.2259 -0.0342
  557ERGO    R4 8159  15.469  14.403  10.020  0.1780  0.1579  0.0005
  557ERGO    R5 8160  15.366  14.596  10.006 -0.1816 -0.0167 -0.0156
  557ERGO    C1 8161  15.284  14.452   9.663  0.1465 -0.1814 -0.0306
  557ERGO    C2 8162  15.255  14.371   9.296 -0.0662  0.0079  0.0885
  558ERGO   ROH 8163   1.206   0.845  10.615 -0.2431 -0.0600 -0.0405
  558ERGO    R1 8164   1.272   0.876  10.342 -0.0711  0.0731  0.0144
  558ERGO    R2 8165   1.237   0.673  10.156  0.1915  0.1124 -0.0767
  558ERGO    R3 8166   1.094   0.863  10.024  0.1598  0.0607 -0.1177
  558ERGO    R4 8167   1.222   0.707   9.813  0.1897  0.0263 -0.0854
  558ERGO    R5 8168   1.232   0.923   9.838  0.1554  0.0384 -0.1326
  558ERGO    C1 8169   1.080   0.905   9.489  0.1590 -0.0723 -0.1291
  558ERGO    C2 8170   1.132   0.807   9.225  0.2233 -0.1946  0.0946
  559ERGO   ROH 8171  12.135  17.002  10.848  0.0588 -0.0380 -0.0303
  559ERGO    R1 8172  11.998  16.988  10.601  0.0964 -0.0596 -0.0490
  559ERGO    R2 8173  12.049  17.161  10.392  0.1508 -0.1024 -0.0639
  559ERGO    R3 8174  12.085  16.930  10.252  0.1405 -0.1267 -0.0290
  559ERGO    R4 8175  12.101  17.143  10.050 -0.3712 -0.1728 -0.1493
  559ERGO    R5 8176  11.971  16.968  10.045 -0.2306 -0.3024  0.1277
  559ERGO    C1 8177  12.165  16.916   9.721 -0.6850 -0.2367 -0.1662
  559ERGO    C2 8178  12.270  16.815   9.391  0.1432 -0.2335  0.0056
  560ERGO   ROH 8179   1.540   6.992  11.213  0.0198 -0.2728 -0.0499
  560ERGO    R1 8180   1.523   7.090  10.948  0.0622 -0.0804  0.0172
  560ERGO    R2 8181   1.733   7.223  10.826  0.1369 -0.1267  0.0950
  560ERGO    R3 8182   1.699   7.033  10.634  0.0046  0.0248 -0.0349
  560ERGO    R4 8183   1.807   7.263  10.490  0.1639  0.0524  0.1214
  560ERGO    R5 8184   1.625   7.154  10.442  0.0866  0.2091  0.0462
  560ERGO    C1 8185   1.818   7.108  10.116  0.0555  0.2990  0.0149
  560ERGO    C2 8186   1.762   7.162   9.774 -0.1472  0.1690 -0.0531
  561ERGO   ROH 8187  10.729  15.255  11.169  0.2148 -0.0407  0.0488
  561ERGO    R1 8188  10.872  15.312  10.932  0.2264 -0.2401  0.0064
  561ERGO    R2 8189  10.993  15.116  10.779 -0.1154 -0.4166 -0.0450
  561ERGO    R3 8190  10.845  15.225  10.579 -0.0195 -0.1813  0.0085
  561ERGO    R4 8191  11.047  15.063  10.442 -0.3150 -0.4966 -0.0661
  561ERGO    R5 8192  11.004  15.273  10.407 -0.0006 -0.4249 -0.0464
  561ERGO    C1 8193  10.939  15.134  10.058 -0.3411 -0.3223 -0.0283
  561ERGO    C2 8194  11.012  15.127   9.744 -0.0805 -0.4007  0.3750
  562ERGO   ROH 8195   1.942   8.217  11.245 -0.1239 -0.0676  0.0429
  562ERGO    R1 8196   1.915   8.372  11.010 -0.1719 -0.0669  0.0491
  562ERGO    R2 8197   2.131   8.488  10.881 -0.2120  0.0460  0.0811
  562ERGO    R3 8198   2.032   8.354  10.666 -0.1226  0.0098  0.0621
  562ERGO    R4 8199   2.156   8.594  10.554 -0.0539 -0.0225  0.0696
  562ERGO    R5 8200   1.952   8.526  10.521 -0.0438 -0.0141 -0.0105
  562ERGO    C1 8201   2.078   8.530  10.161  0.1221 -0.0962  0.0450
  562ERGO    C2 8202   2.014   8.593   9.705 -0.1603  0.0654 -0.1242
  563ERGO   ROH 8203   4.095  11.569  10.726 -0.0393 -0.0501 -0.1147
  563ERGO    R1 8204   4.223  11.607  10.476  0.0241  0.0783 -0.0644
  563ERGO    R2 8205   4.187  11.434  10.264  0.2229  0.0820 -0.1058
  563ERGO    R3 8206   4.119  11.662  10.132  0.1055  0.0548 -0.0920
  563ERGO    R4 8207   4.190  11.471   9.920  0.2038  0.1112 -0.1028
  563ERGO    R5 8208   4.272  11.671   9.947  0.0984  0.1493 -0.0903
  563ERGO    C1 8209   4.128  11.705   9.596  0.0825  0.1027 -0.0880
  563ERGO    C2 8210   3.979  11.660   9.359 -0.2767 -0.1151 -0.1616
  564ERGO   ROH 8211   8.026  14.304  10.970  0.0850  0.1390 -0.1139
  564ERGO    R1 8212   7.921  14.366  10.715  0.1256  0.1425 -0.1302
  564ERGO    R2 8213   8.039  14.549  10.546  0.2021  0.0812 -0.1459
  564ERGO    R3 8214   8.033  14.343  10.370  0.1452  0.0594 -0.1182
  564ERGO    R4 8215   8.126  14.572  10.212 -0.0172  0.0651 -0.2057
  564ERGO    R5 8216   7.958  14.441  10.165 -0.0126  0.0145 -0.0828
  564ERGO    C1 8217   8.172  14.391   9.853 -0.1984  0.0352 -0.2146
  564ERGO    C2 8218   8.355  14.301   9.600  0.0715 -0.1338  0.1033
  565ERGO   ROH 8219   7.069  16.868  10.782 -0.0369 -0.0554 -0.0385
  565ERGO    R1 8220   7.016  17.063  10.584  0.0819  0.0158 -0.0029
  565ERGO    R2 8221   7.216  17.204  10.456  0.1745 -0.1196 -0.0187
  565ERGO    R3 8222   7.093  17.111  10.232  0.0625  0.0016 -0.0079
  565ERGO    R4 8223   7.243  17.346  10.142  0.0684  0.0052  0.0286
  565ERGO    R5 8224   7.031  17.308  10.111  0.0513  0.0618  0.1010
  565ERGO    C1 8225   7.144  17.341   9.749 -0.0985  0.1915  0.0661
  565ERGO    C2 8226   7.102  17.520   9.502 -0.0045  0.1480 -0.0688
  566ERGO   ROH 8227   0.998  10.077  11.139  0.1161  0.1883  0.0728
  566ERGO    R1 8228   0.952   9.935  10.898  0.1375  0.0944  0.1241
  566ERGO    R2 8229   0.737   9.990  10.732  0.1063 -0.0290  0.1294
  566ERGO    R3 8230   0.931  10.016  10.544  0.0765 -0.0308  0.0971
  566ERGO    R4 8231   0.685   9.976  10.391  0.0450 -0.0509  0.1391
  566ERGO    R5 8232   0.869   9.861  10.372  0.0510 -0.0467  0.1159
  566ERGO    C1 8233   0.836   9.992  10.016 -0.0186 -0.0653  0.1145
  566ERGO    C2 8234   0.818  10.008   9.620 -0.0730  0.0143 -0.2559
  567ERGO   ROH 8235   0.637   0.039  10.981 -0.1805  0.0133 -0.1443
  567ERGO    R1 8236   0.638   0.118  10.709 -0.2666  0.0319 -0.1401
  567ERGO    R2 8237   0.783  -0.015  10.515 -0.0704  0.2292 -0.1418
  567ERGO    R3 8238   0.542  -0.028  10.391 -0.0524 -0.0831 -0.1515
  567ERGO    R4 8239   0.736  -0.003  10.173 -0.0911  0.1800 -0.1405
  567ERGO    R5 8240   0.562   0.123  10.206 -0.2544 -0.0532 -0.1432
  567ERGO    C1 8241   0.482  -0.008   9.857 -0.0862 -0.1421 -0.1489
  567ERGO    C2 8242   0.603  -0.061   9.595  0.0183  0.2861 -0.0095
  568ERGO   ROH 8243   7.444  12.110  11.026  0.1648  0.1135 -0.0277
  568ERGO    R1 8244   7.512  11.924  10.825  0.2519  0.1293 -0.0138
  568ERGO    R2 8245   7.340  11.855  10.620  0.1535 -0.2110  0.1704
  568ERGO    R3 8246   7.549  11.927  10.462 -0.0933  0.0408 -0.0516
  568ERGO    R4 8247   7.418  11.708  10.318  0.0690 -0.1662  0.1267
  568ERGO    R5 8248   7.629  11.720  10.372  0.1059  0.1334 -0.0816
  568ERGO    C1 8249   7.661  11.690   9.993 -0.2118  0.0961 -0.1072
  568ERGO    C2 8250   7.603  11.701   9.588 -0.0649 -0.1435 -0.0110
  569ERGO   ROH 8251   0.865  12.423  10.795 -0.1089  0.1239 -0.0450
  569ERGO    R1 8252   0.927  12.398  10.520 -0.0323 -0.0129 -0.0165
  569ERGO    R2 8253   0.819  12.199  10.361 -0.1896  0.0593 -0.0075
  569ERGO    R3 8254   0.744  12.409  10.206  0.0944  0.1061 -0.0857
  569ERGO    R4 8255   0.752  12.181  10.023 -0.1684  0.0405 -0.0103
  569ERGO    R5 8256   0.855  12.371   9.997  0.0740 -0.0966 -0.0586
  569ERGO    C1 8257   0.643  12.367   9.680  0.1106  0.0735 -0.0855
  569ERGO    C2 8258   0.555  12.251   9.365 -0.0002  0.2941  0.0762
  570ERGO   ROH 8259  15.055   1.090  10.874  0.0248  0.0464  0.0226
  570ERGO    R1 8260  14.990   1.179  10.614  0.0531  0.1856  0.0625
  570ERGO    R2 8261  15.169   1.314  10.454  0.1417  0.0827  0.0734
  570ERGO    R3 8262  15.109   1.118  10.276 -0.0608  0.1883  0.0216
  570ERGO    R4 8263  15.193   1.344  10.110  0.1736  0.1445  0.0804
  570ERGO    R5 8264  15.007   1.232  10.092  0.0574  0.3403  0.0495
  570ERGO    C1 8265  15.150   1.177   9.743  0.0021  0.2795  0.0360
  570ERGO    C2 8266  15.132   1.065   9.366 -0.3026 -0.0849 -0.1942
  571ERGO   ROH 8267   2.883   1.573  11.074  0.0272 -0.0716  0.1109
  571ERGO    R1 8268   2.748   1.660  10.841 -0.1094 -0.1734  0.1508
  571ERGO    R2 8269   2.867   1.822  10.651 -0.3460  0.0768  0.2060
  571ERGO    R3 8270   2.791   1.624  10.482 -0.0685  0.0264  0.1349
  571ERGO    R4 8271   2.895   1.833  10.307 -0.1224  0.1223  0.2241
  571ERGO    R5 8272   2.700   1.738  10.292 -0.0338 -0.0362  0.0830
  571ERGO    C1 8273   2.839   1.653   9.948  0.2684  0.1016  0.1677
  571ERGO    C2 8274   2.807   1.551   9.563  0.0391 -0.3661 -0.2843
  572ERGO   ROH 8275   2.445  10.692  11.011 -0.1604 -0.0887  0.0868
  572ERGO    R1 8276   2.500  10.821  10.765 -0.1423 -0.0084  0.1331
  572ERGO    R2 8277   2.642  10.699  10.561 -0.0883  0.0753  0.1224
  572ERGO    R3 8278   2.423  10.764  10.414 -0.0745  0.0801  0.1031
  572ERGO    R4 8279   2.634  10.718  10.216 -0.0608  0.0586  0.1204
  572ERGO    R5 8280   2.510  10.895  10.233 -0.0530  0.0672  0.1028
  572ERGO    C1 8281   2.424  10.790   9.877 -0.0319  0.0533  0.1012
  572ERGO    C2 8282   2.424  10.818   9.529  0.2098  0.0526 -0.1596
  573ERGO   ROH 8283   3.542   0.150  10.842  0.0774 -0.1487  0.1267
  573ERGO    R1 8284   3.503   0.301  10.605 -0.2537 -0.1090  0.2012
  573ERGO    R2 8285   3.680   0.291  10.393 -0.1942  0.4221  0.2170
  573ERGO    R3 8286   3.456   0.230  10.252 -0.0408 -0.0428  0.1569
  573ERGO    R4 8287   3.664   0.265  10.048 -0.0263  0.2854  0.2176
  573ERGO    R5 8288   3.470   0.365  10.055 -0.2247 -0.0692  0.1207
  573ERGO    C1 8289   3.444   0.192   9.715  0.2156 -0.2305  0.1616
  573ERGO    C2 8290   3.431   0.106   9.368  0.0591  0.0072 -0.1465
  574ERGO   ROH 8291   3.149   2.884  11.103 -0.3228 -0.2025  0.0586
  574ERGO    R1 8292   3.067   2.965  10.844 -0.0297 -0.0751  0.0028
  574ERGO    R2 8293   3.242   3.074  10.660  0.2421 -0.2622  0.1520
  574ERGO    R3 8294   3.149   2.874  10.501  0.1246 -0.1319  0.0517
  574ERGO    R4 8295   3.252   3.075  10.314  0.3147 -0.1204  0.1526
  574ERGO    R5 8296   3.053   2.987  10.313  0.2434  0.0238  0.0768
  574ERGO    C1 8297   3.171   2.887   9.964  0.2468  0.0845  0.0587
  574ERGO    C2 8298   3.230   2.935   9.574  0.0740  0.0115  0.1646
  575ERGO   ROH 8299  13.790  13.815  11.182 -0.1392  0.1780 -0.0695
  575ERGO    R1 8300  13.844  13.690  10.934  0.1644  0.2945 -0.0668
  575ERGO    R2 8301  13.648  13.563  10.786  0.4614 -0.1938 -0.0596
  575ERGO    R3 8302  13.733  13.729  10.589  0.0569  0.0195 -0.0665
  575ERGO    R4 8303  13.637  13.492  10.448  0.3816 -0.1124 -0.0751
  575ERGO    R5 8304  13.833  13.584  10.427  0.2155  0.2365 -0.1687
  575ERGO    C1 8305  13.712  13.607  10.066 -0.0445  0.1354 -0.0905
  575ERGO    C2 8306  13.694  13.592   9.744 -0.1102 -0.1154 -0.1541
  576ERGO   ROH 8307   6.226   8.905  11.055  0.2387  0.0496 -0.0074
  576ERGO    R1 8308   6.202   9.025  10.800  0.1498  0.0826  0.0163
  576ERGO    R2 8309   6.422   9.102  10.650  0.1030 -0.0645 -0.1279
  576ERGO    R3 8310   6.305   8.946  10.460 -0.1377  0.0304 -0.0620
  576ERGO    R4 8311   6.484   9.125  10.311  0.1112 -0.2711 -0.1418
  576ERGO    R5 8312   6.271   9.094  10.275  0.0586  0.0192 -0.1114
  576ERGO    C1 8313   6.411   8.992   9.935 -0.1100 -0.3024 -0.0880
  576ERGO    C2 8314   6.453   9.159   9.571  0.2046  0.1324 -0.2383
  577ERGO   ROH 8315   8.245   3.579  10.789 -0.0247 -0.2179  0.0363
  577ERGO    R1 8316   8.170   3.459  10.544 -0.0987 -0.0889 -0.0052
  577ERGO    R2 8317   7.958   3.550  10.392 -0.0423  0.0932  0.0260
  577ERGO    R3 8318   8.146   3.561  10.196 -0.0361  0.0443  0.0284
  577ERGO    R4 8319   7.893   3.520  10.054 -0.0325 -0.0270  0.0342
  577ERGO    R5 8320   8.074   3.400  10.034 -0.0188 -0.0187  0.0806
  577ERGO    C1 8321   8.031   3.513   9.673 -0.0210 -0.1429  0.0411
  577ERGO    C2 8322   7.998   3.684   9.378  0.1228 -0.0910  0.1585
  578ERGO   ROH 8323  13.852   2.725  10.634 -0.2687 -0.0725  0.0478
  578ERGO    R1 8324  13.813   2.630  10.371 -0.2028 -0.0906  0.0440
  578ERGO    R2 8325  13.566   2.633  10.247 -0.1646 -0.0560 -0.0357
  578ERGO    R3 8326  13.701   2.768  10.053 -0.0759 -0.0990 -0.0045
  578ERGO    R4 8327  13.471   2.648   9.915  0.1035 -0.2971 -0.1272
  578ERGO    R5 8328  13.682   2.629   9.859  0.1589 -0.2205  0.0582
  578ERGO    C1 8329  13.543   2.784   9.540  0.3428 -0.4779 -0.1512
  578ERGO    C2 8330  13.415   2.825   9.186 -0.1250  0.0956 -0.3532
  579ERGO   ROH 8331   9.097   8.316  11.308 -0.1743  0.0776 -0.1519
  579ERGO    R1 8332   9.080   8.294  11.026 -0.1692  0.1367 -0.1569
  579ERGO    R2 8333   8.985   8.498  10.866 -0.0070  0.2335 -0.1303
  579ERGO    R3 8334   9.223   8.464  10.739 -0.0209  0.0800 -0.1180
  579ERGO    R4 8335   9.026   8.489  10.523 -0.0008  0.1688 -0.1281
  579ERGO    R5 8336   9.170   8.328  10.549 -0.0943  0.0872 -0.1036
  579ERGO    C1 8337   9.273   8.452  10.204 -0.0100 -0.0129 -0.1152
  579ERGO    C2 8338   9.287   8.442   9.919 -0.2837  0.1969  0.0257
  580ERGO   ROH 8339  15.228   7.090  10.940 -0.0945  0.1434 -0.0420
  580ERGO    R1 8340  15.352   7.109  10.686 -0.0688 -0.0512 -0.0429
  580ERGO    R2 8341  15.369   6.896  10.512 -0.2354 -0.1234  0.0475
  580ERGO    R3 8342  15.252   7.069  10.339 -0.0813 -0.0964 -0.0376
  580ERGO    R4 8343  15.410   6.892  10.169 -0.0367 -0.1869  0.0681
  580ERGO    R5 8344  15.418   7.109  10.172  0.0397 -0.1772  0.0494
  580ERGO    C1 8345  15.324   7.052   9.807  0.2237 -0.1986  0.0002
  580ERGO    C2 8346  15.439   6.938   9.586 -0.1107  0.0330 -0.3594
  581ERGO   ROH 8347  15.936   1.756  10.990 -0.1537  0.0966 -0.0653
  581ERGO    R1 8348  15.937   1.848  10.722 -0.2247 -0.0150 -0.1048
  581ERGO    R2 8349  16.170   1.901  10.584 -0.2644  0.1617 -0.1078
  581ERGO    R3 8350  16.064   1.729  10.402 -0.0784 -0.0250 -0.0435
  581ERGO    R4 8351  16.225   1.916  10.243 -0.2939  0.1024 -0.1151
  581ERGO    R5 8352  16.015   1.867  10.212 -0.2416 -0.1468 -0.0913
  581ERGO    C1 8353  16.158   1.763   9.874 -0.1364 -0.1074 -0.0588
  581ERGO    C2 8354  16.379   1.789   9.609  0.0414  0.0350 -0.1500
  582ERGO   ROH 8355   0.950   3.643  11.244  0.2498 -0.0729  0.0798
  582ERGO    R1 8356   0.877   3.502  11.010 -0.0055  0.0397  0.0876
  582ERGO    R2 8357   0.707   3.608  10.820  0.1371  0.3156  0.1045
  582ERGO    R3 8358   0.912   3.550  10.651  0.0319 -0.0154  0.0846
  582ERGO    R4 8359   0.680   3.589  10.475  0.0227  0.0871  0.1242
  582ERGO    R5 8360   0.812   3.415  10.479 -0.1509 -0.0426  0.2123
  582ERGO    C1 8361   0.857   3.524  10.117 -0.1426 -0.3566  0.1170
  582ERGO    C2 8362   0.769   3.613   9.741  0.1320 -0.2801  0.2493
  583ERGO   ROH 8363  13.731   4.233  10.758  0.3735 -0.0352  0.1110
  583ERGO    R1 8364  13.842   4.351  10.526  0.1631 -0.1186 -0.0348
  583ERGO    R2 8365  13.838   4.228  10.280 -0.1349 -0.1703 -0.0015
  583ERGO    R3 8366  13.721   4.460  10.201 -0.1491 -0.1540  0.0641
  583ERGO    R4 8367  13.835   4.347   9.955 -0.0474 -0.0379  0.0448
  583ERGO    R5 8368  13.869   4.547  10.034 -0.1037 -0.0602  0.1457
  583ERGO    C1 8369  13.724   4.634   9.692 -0.0098  0.0547  0.1334
  583ERGO    C2 8370  13.732   4.636   9.235 -0.0195  0.1186 -0.1725
  584ERGO   ROH 8371   5.472   3.959  11.189  0.1081 -0.2903  0.0927
  584ERGO    R1 8372   5.497   3.802  10.955  0.1370 -0.1860  0.0254
  584ERGO    R2 8373   5.280   3.732  10.799  0.1496 -0.1723  0.0062
  584ERGO    R3 8374   5.428   3.843  10.600  0.1137 -0.0548  0.0438
  584ERGO    R4 8375   5.229   3.678  10.461  0.0308  0.0868 -0.0201
  584ERGO    R5 8376   5.446   3.670  10.435  0.0249  0.0590 -0.0913
  584ERGO    C1 8377   5.339   3.751  10.078 -0.0722  0.3480 -0.0001
  584ERGO    C2 8378   5.310   3.666   9.748  0.0940 -0.1055  0.5040
  585ERGO   ROH 8379  14.876  16.254  11.044  0.0076 -0.1591  0.0593
  585ERGO    R1 8380  14.868  16.379  10.790 -0.2429 -0.1316  0.0793
  585ERGO    R2 8381  15.072  16.354  10.605 -0.2157  0.2514  0.0539
  585ERGO    R3 8382  14.870  16.273  10.442 -0.0984 -0.0791  0.0623
  585ERGO    R4 8383  15.101  16.305  10.264 -0.1423  0.2616  0.0572
  585ERGO    R5 8384  14.904  16.396  10.240 -0.2893 -0.0414  0.0493
  585ERGO    C1 8385  14.928  16.201   9.913  0.0105 -0.0427  0.0670
  585ERGO    C2 8386  14.900  16.189   9.573 -0.4164  0.0223  0.0594
  586ERGO   ROH 8387   5.653  16.550  10.739  0.1019  0.0142  0.0658
  586ERGO    R1 8388   5.492  16.622  10.518  0.1499  0.1811  0.0839
  586ERGO    R2 8389   5.585  16.782  10.312  0.3665 -0.0865 -0.0312
  586ERGO    R3 8390   5.503  16.574  10.157 -0.0538 -0.0311  0.1026
  586ERGO    R4 8391   5.488  16.808   9.982  0.4516 -0.1013 -0.0577
  586ERGO    R5 8392   5.328  16.666  10.022  0.1424  0.2504  0.0276
  586ERGO    C1 8393   5.355  16.629   9.643  0.1066 -0.0580  0.0525
  586ERGO    C2 8394   5.348  16.605   9.338 -0.0822  0.4024  0.3740
  587ERGO   ROH 8395   4.353  16.527  10.834  0.3399 -0.2234 -0.1016
  587ERGO    R1 8396   4.420  16.647  10.587  0.2440 -0.1842 -0.1083
  587ERGO    R2 8397   4.451  16.503  10.354  0.1548 -0.1454 -0.1403
  587ERGO    R3 8398   4.268  16.679  10.258  0.1186 -0.1307 -0.0475
  587ERGO    R4 8399   4.396  16.565  10.019  0.1590  0.0233 -0.1109
  587ERGO    R5 8400   4.376  16.777  10.067  0.1103 -0.0023  0.0082
  587ERGO    C1 8401   4.192  16.767   9.733  0.1276  0.1352 -0.0067
  587ERGO    C2 8402   4.195  16.831   9.440 -0.0427  0.2902 -0.1210
  588ERGO   ROH 8403   2.262  13.674  10.742  0.2774 -0.3307  0.0294
  588ERGO    R1 8404   2.261  13.761  10.472  0.0686 -0.2611  0.0510
  588ERGO    R2 8405   2.382  13.618  10.269  0.0840 -0.1092 -0.0466
  588ERGO    R3 8406   2.136  13.635  10.155  0.0098 -0.2815  0.0816
  588ERGO    R4 8407   2.322  13.629   9.929 -0.0803  0.0811 -0.0134
  588ERGO    R5 8408   2.168  13.778   9.966 -0.2244 -0.1038  0.1696
  588ERGO    C1 8409   2.057  13.652   9.623 -0.2455  0.0302  0.1263
  588ERGO    C2 8410   2.034  13.552   9.311 -0.1906 -0.0601 -0.2040
  589ERGO   ROH 8411  11.508   6.002  11.048  0.0293 -0.1625 -0.1133
  589ERGO    R1 8412  11.518   5.950  10.770 -0.0917 -0.0958 -0.1302
  589ERGO    R2 8413  11.312   5.824  10.635 -0.2504  0.1439 -0.1139
  589ERGO    R3 8414  11.324   6.045  10.477 -0.0733  0.1763 -0.0579
  589ERGO    R4 8415  11.316   5.820  10.289 -0.2045  0.2236 -0.1151
  589ERGO    R5 8416  11.464   5.979  10.294 -0.0912  0.1212 -0.0541
  589ERGO    C1 8417  11.330   6.024   9.939 -0.0116  0.3005 -0.0632
  589ERGO    C2 8418  11.313   6.131   9.585 -0.1124 -0.0737 -0.2498
  590ERGO   ROH 8419   2.343   5.694  10.980  0.0978  0.0331 -0.1411
  590ERGO    R1 8420   2.255   5.793  10.730 -0.0995 -0.1601 -0.1511
  590ERGO    R2 8421   2.430   5.860  10.527 -0.2323  0.0961 -0.1790
  590ERGO    R3 8422   2.277   5.689  10.382  0.0354 -0.1920 -0.1351
  590ERGO    R4 8423   2.459   5.811  10.186 -0.1804  0.0956 -0.1753
  590ERGO    R5 8424   2.241   5.804  10.174 -0.1807 -0.2752 -0.1505
  590ERGO    C1 8425   2.332   5.622   9.851  0.1012 -0.1752 -0.1320
  590ERGO    C2 8426   2.473   5.682   9.570 -0.1517  0.0609  0.0742
  591ERGO   ROH 8427  13.148   9.074  11.306  0.0341 -0.0592  0.0370
  591ERGO    R1 8428  12.991   9.024  11.076  0.0237 -0.0510  0.0421
  591ERGO    R2 8429  12.941   9.218  10.885  0.0967 -0.0710  0.0006
  591ERGO    R3 8430  13.041   9.031  10.716  0.0380 -0.1405  0.0427
  591ERGO    R4 8431  12.914   9.227  10.540  0.0568 -0.1690  0.0011
  591ERGO    R5 8432  12.878   9.012  10.542  0.0144 -0.1599  0.0683
  591ERGO    C1 8433  12.992   9.056  10.181 -0.0216 -0.2915  0.0409
  591ERGO    C2 8434  12.969   9.027   9.815 -0.0786 -0.0599 -0.0924
  592ERGO   ROH 8435  14.725   8.945   7.037 -0.0541 -0.0066 -0.0840
  592ERGO    R1 8436  14.839   8.759   7.216  0.0025  0.0120 -0.0997
  592ERGO    R2 8437  15.040   8.827   7.394 -0.0780  0.0800 -0.0297
  592ERGO    R3 8438  14.868   8.723   7.577 -0.0719 -0.0574 -0.1012
  592ERGO    R4 8439  15.111   8.785   7.729 -0.1260 -0.0337 -0.0335
  592ERGO    R5 8440  15.008   8.593   7.722 -0.0542 -0.0659 -0.1298
  592ERGO    C1 8441  14.992   8.663   8.097 -0.1482 -0.2288 -0.1030
  592ERGO    C2 8442  15.122   8.576   8.337 -0.0528 -0.1950 -0.1773
  593ERGO   ROH 8443   7.025   3.431  10.960 -0.0757  0.1504  0.0488
  593ERGO    R1 8444   6.916   3.549  10.727  0.1134  0.1413 -0.0487
  593ERGO    R2 8445   7.074   3.651  10.524  0.2846 -0.1601 -0.0849
  593ERGO    R3 8446   6.925   3.485  10.369  0.1239 -0.0882 -0.0059
  593ERGO    R4 8447   7.056   3.663  10.179  0.0495 -0.1251 -0.0713
  593ERGO    R5 8448   6.842   3.624  10.193  0.0531 -0.0504  0.0656
  593ERGO    C1 8449   6.905   3.514   9.833 -0.2381 -0.0371  0.0109
  593ERGO    C2 8450   6.920   3.566   9.465 -0.1924 -0.0297  0.1529
  594ERGO   ROH 8451   2.207  12.664  10.768 -0.1030  0.1036 -0.0344
  594ERGO    R1 8452   2.076  12.643  10.517 -0.0821  0.1390 -0.0481
  594ERGO    R2 8453   2.091  12.842  10.325  0.1192  0.0687 -0.1070
  594ERGO    R3 8454   2.176  12.638  10.167 -0.0318 -0.0545 -0.0320
  594ERGO    R4 8455   2.018  12.809   9.989  0.3147  0.1455 -0.1585
  594ERGO    R5 8456   1.992  12.595  10.021  0.0124  0.1779 -0.1615
  594ERGO    C1 8457   2.056  12.598   9.645  0.2869  0.0745 -0.1179
  594ERGO    C2 8458   1.956  12.589   9.216  0.2320  0.1563 -0.2207
  595ERGO   ROH 8459  15.618   3.616  10.864 -0.1025 -0.2160  0.0155
  595ERGO    R1 8460  15.651   3.757  10.621  0.0100 -0.0931  0.1008
  595ERGO    R2 8461  15.831   3.679  10.427 -0.0370 -0.1061  0.0653
  595ERGO    R3 8462  15.612   3.685  10.266 -0.0244  0.1475  0.0534
  595ERGO    R4 8463  15.840   3.671  10.082 -0.0249 -0.2435  0.0677
  595ERGO    R5 8464  15.679   3.819  10.080  0.1804 -0.0114  0.0071
  595ERGO    C1 8465  15.639   3.673   9.730 -0.0060 -0.0855  0.0579
  595ERGO    C2 8466  15.784   3.716   9.490  0.1693 -0.1396  0.2339
  596ERGO   ROH 8467  15.347  11.699  11.046  0.0206 -0.3072  0.0444
  596ERGO    R1 8468  15.235  11.790  10.802 -0.0180 -0.1647  0.1137
  596ERGO    R2 8469  15.390  11.863  10.585 -0.0498 -0.0241  0.1333
  596ERGO    R3 8470  15.235  11.681  10.455 -0.0582  0.0438  0.0487
  596ERGO    R4 8471  15.367  11.834  10.241  0.2130 -0.1013  0.1193
  596ERGO    R5 8472  15.152  11.801  10.264  0.1753  0.0436 -0.0515
  596ERGO    C1 8473  15.207  11.648   9.919  0.3582 -0.0826  0.0318
  596ERGO    C2 8474  15.128  11.618   9.541 -0.2685 -0.0045 -0.3496
  597ERGO   ROH 8475   5.253   9.166  10.909 -0.0252 -0.1145 -0.0852
  597ERGO    R1 8476   5.185   9.188  10.635 -0.0908 -0.1171 -0.0684
  597ERGO    R2 8477   5.322   9.353  10.461 -0.1225 -0.1328 -0.1045
  597ERGO    R3 8478   5.348   9.124  10.316 -0.1750 -0.1378 -0.1077
  597ERGO    R4 8479   5.367   9.341  10.118 -0.1033 -0.1401 -0.1026
  597ERGO    R5 8480   5.231   9.171  10.111 -0.1496 -0.1031 -0.1149
  597ERGO    C1 8481   5.418   9.119   9.783 -0.1413 -0.1491 -0.1047
  597ERGO    C2 8482   5.521   9.121   9.425  0.1927 -0.0937  0.0695
  598ERGO   ROH 8483   7.136  15.045  10.594  0.1792  0.0721  0.0087
  598ERGO    R1 8484   7.293  15.075  10.360  0.0952  0.0983 -0.0432
  598ERGO    R2 8485   7.233  14.948  10.122  0.0566  0.0635 -0.0071
  598ERGO    R3 8486   7.243  15.200  10.022 -0.0448  0.0563 -0.0404
  598ERGO    R4 8487   7.200  15.029   9.788  0.1955 -0.0209 -0.0434
  598ERGO    R5 8488   7.358  15.177   9.813  0.0941  0.0875  0.0256
  598ERGO    C1 8489   7.190  15.313   9.499  0.1811 -0.0768 -0.0958
  598ERGO    C2 8490   7.082  15.305   9.172 -0.3942  0.0393 -0.0606
  599ERGO   ROH 8491   0.437   5.115  11.093 -0.0111  0.0166 -0.1345
  599ERGO    R1 8492   0.520   5.150  10.825 -0.0881 -0.0240 -0.1671
  599ERGO    R2 8493   0.674   4.963  10.691 -0.0342 -0.0082 -0.1605
  599ERGO    R3 8494   0.473   4.976  10.509 -0.0960 -0.1393 -0.0974
  599ERGO    R4 8495   0.717   4.960  10.349 -0.1659  0.0513 -0.1757
  599ERGO    R5 8496   0.561   5.110  10.332 -0.2679 -0.0721 -0.1158
  599ERGO    C1 8497   0.553   4.969   9.978 -0.3005 -0.0371 -0.1253
  599ERGO    C2 8498   0.655   4.912   9.672 -0.1961  0.2176 -0.1755
  600ERGO   ROH 8499   3.727  12.502  10.464 -0.0481  0.1192 -0.1213
  600ERGO    R1 8500   3.663  12.620  10.216  0.0518  0.1033 -0.1550
  600ERGO    R2 8501   3.826  12.597   9.994  0.0619 -0.0486 -0.1333
  600ERGO    R3 8502   3.599  12.505   9.876  0.0157  0.0658 -0.1354
  600ERGO    R4 8503   3.773  12.586   9.653  0.1144 -0.1528 -0.1384
  600ERGO    R5 8504   3.567  12.651   9.688  0.1544  0.0109 -0.2023
  600ERGO    C1 8505   3.528  12.492   9.343  0.1016 -0.1062 -0.1433
  600ERGO    C2 8506   3.536  12.550   8.995  0.0516 -0.0323  0.1378
  601ERGO   ROH 8507   5.398  11.889  10.941  0.2665  0.0778  0.1634
  601ERGO    R1 8508   5.412  11.980  10.674  0.1745  0.1588  0.1862
  601ERGO    R2 8509   5.640  11.954  10.519  0.0708  0.0661  0.0514
  601ERGO    R3 8510   5.469  11.832  10.346 -0.1028  0.2331  0.1011
  601ERGO    R4 8511   5.661  11.975  10.175  0.0543 -0.0303  0.0441
  601ERGO    R5 8512   5.443  11.991  10.168  0.0663  0.2322  0.0709
  601ERGO    C1 8513   5.512  11.873   9.812 -0.1183  0.0703  0.0864
  601ERGO    C2 8514   5.480  11.829   9.485  0.2050  0.1049 -0.0286
  602ERGO   ROH 8515   5.044   7.102  11.004 -0.0248 -0.0122  0.0383
  602ERGO    R1 8516   4.879   7.062  10.777  0.0271  0.1410 -0.0285
  602ERGO    R2 8517   4.908   7.207  10.544  0.3412  0.0285 -0.0662
  602ERGO    R3 8518   4.925   6.960  10.431  0.0594 -0.0368  0.0282
  602ERGO    R4 8519   4.903   7.144  10.204  0.0365 -0.1284 -0.0357
  602ERGO    R5 8520   4.777   6.971  10.243 -0.0721 -0.0091  0.1353
  602ERGO    C1 8521   4.915   6.876   9.900 -0.4054 -0.2810  0.0708
  602ERGO    C2 8522   4.905   6.827   9.574  0.2208  0.1497  0.0633
  603ERGO   ROH 8523  17.030   3.508   6.806 -0.2574 -0.2339  0.0027
  603ERGO    R1 8524  17.000   3.566   7.081 -0.1846 -0.1913  0.0026
  603ERGO    R2 8525  16.988   3.824   7.178 -0.1016 -0.1732 -0.0256
  603ERGO    R3 8526  16.756   3.737   7.290 -0.0993 -0.1052  0.0309
  603ERGO    R4 8527  16.890   3.885   7.504 -0.1500  0.1124 -0.0910
  603ERGO    R5 8528  16.815   3.681   7.515 -0.1185  0.1123  0.0905
  603ERGO    C1 8529  16.615   3.838   7.798 -0.1759  0.3425 -0.0760
  603ERGO    C2 8530  16.476   3.815   8.048  0.0318  0.0564 -0.0387
  604ERGO   ROH 8531  12.886  12.404  10.860 -0.1366  0.0001  0.1795
  604ERGO    R1 8532  12.969  12.308  10.608 -0.0794  0.0819  0.1668
  604ERGO    R2 8533  12.800  12.174  10.436 -0.0154  0.0569  0.1246
  604ERGO    R3 8534  12.879  12.365  10.260 -0.0680  0.1207  0.1695
  604ERGO    R4 8535  12.802  12.138  10.092  0.0391  0.1149  0.1190
  604ERGO    R5 8536  12.992  12.244  10.087  0.0011  0.1917  0.1617
  604ERGO    C1 8537  12.879  12.297   9.727  0.0215  0.2083  0.1581
  604ERGO    C2 8538  12.894  12.302   9.412 -0.3438 -0.0046  0.2762
  605ERGO   ROH 8539   8.650  15.128  10.891  0.1684  0.3154 -0.0089
  605ERGO    R1 8540   8.646  15.256  10.639  0.2347  0.1356 -0.1029
  605ERGO    R2 8541   8.854  15.234  10.458  0.1483 -0.2499 -0.1655
  605ERGO    R3 8542   8.656  15.153  10.290 -0.0131 -0.1376 -0.0329
  605ERGO    R4 8543   8.882  15.214  10.114 -0.0338 -0.4461 -0.1713
  605ERGO    R5 8544   8.680  15.293  10.097  0.0351 -0.2540 -0.1122
  605ERGO    C1 8545   8.713  15.126   9.756 -0.2914 -0.4548 -0.0500
  605ERGO    C2 8546   8.909  15.100   9.613  0.1648 -0.0026  0.1500
  606ERGO   ROH 8547   9.170  12.778  10.971  0.3673 -0.1946  0.1405
  606ERGO    R1 8548   9.269  12.623  10.756  0.0313 -0.2274  0.0038
  606ERGO    R2 8549   9.102  12.495  10.577 -0.2545  0.0711  0.0404
  606ERGO    R3 8550   9.247  12.632  10.393 -0.1872 -0.0287  0.0197
  606ERGO    R4 8551   9.124  12.412  10.242 -0.1008 -0.1245  0.0974
  606ERGO    R5 8552   9.336  12.462  10.249 -0.1111 -0.1043  0.1585
  606ERGO    C1 8553   9.273  12.492   9.874  0.0518 -0.3321  0.1111
  606ERGO    C2 8554   9.219  12.369   9.510 -0.2077  0.1014  0.3063
  607ERGO   ROH 8555  15.116   0.166  10.922 -0.0033  0.0095 -0.1436
  607ERGO    R1 8556  15.052   0.077  10.661  0.0723 -0.0492 -0.1422
  607ERGO    R2 8557  14.880   0.215  10.495  0.0855 -0.1113 -0.2055
  607ERGO    R3 8558  15.089   0.205  10.322  0.1255 -0.1042 -0.1578
  607ERGO    R4 8559  14.855   0.247  10.152  0.1412 -0.2502 -0.2230
  607ERGO    R5 8560  15.003   0.089  10.131  0.2025 -0.2083 -0.1321
  607ERGO    C1 8561  15.037   0.255   9.790  0.2114 -0.3244 -0.1885
  607ERGO    C2 8562  14.924   0.250   9.380 -0.4925  0.3893  0.1068
  608ERGO   ROH 8563   0.714  14.887  10.821 -0.3573  0.0375 -0.0217
  608ERGO    R1 8564   0.748  14.758  10.571 -0.2719  0.0017  0.0090
  608ERGO    R2 8565   0.535  14.672  10.418 -0.2230  0.0849 -0.1037
  608ERGO    R3 8566   0.654  14.823  10.226 -0.0455  0.0150 -0.0519
  608ERGO    R4 8567   0.468  14.649  10.080 -0.1578  0.1965 -0.1257
  608ERGO    R5 8568   0.681  14.672  10.041 -0.1267  0.0206 -0.0688
  608ERGO    C1 8569   0.540  14.777   9.702  0.0468  0.1959 -0.0899
  608ERGO    C2 8570   0.504  14.735   9.480 -0.1613 -0.0542 -0.1366
  609ERGO   ROH 8571   9.490   3.787  10.725  0.1246 -0.1409 -0.2662
  609ERGO    R1 8572   9.481   3.729  10.448  0.0587  0.0010 -0.2946
  609ERGO    R2 8573   9.251   3.757  10.298 -0.0004 -0.0081 -0.2062
  609ERGO    R3 8574   9.411   3.912  10.142 -0.1102  0.1357 -0.1773
  609ERGO    R4 8575   9.272   3.735   9.953  0.1044 -0.0115 -0.1997
  609ERGO    R5 8576   9.488   3.764   9.970  0.0741  0.1966 -0.1492
  609ERGO    C1 8577   9.434   3.867   9.606  0.0623  0.1215 -0.1690
  609ERGO    C2 8578   9.424   3.891   9.298 -0.0752  0.2595  0.2608
  610ERGO   ROH 8579   1.141   9.600  11.274  0.2300  0.1011 -0.0204
  610ERGO    R1 8580   1.215   9.579  11.002  0.1270 -0.1688 -0.0301
  610ERGO    R2 8581   1.135   9.367  10.842 -0.3637 -0.0751  0.0714
  610ERGO    R3 8582   1.042   9.566  10.682  0.0206  0.0678  0.0170
  610ERGO    R4 8583   1.156   9.370  10.497 -0.1685 -0.0989  0.0827
  610ERGO    R5 8584   1.204   9.582  10.506  0.1426 -0.1690  0.1075
  610ERGO    C1 8585   1.082   9.558  10.146  0.3059  0.0214  0.0382
  610ERGO    C2 8586   0.996   9.518   9.857  0.0182 -0.0688  0.2339
  611ERGO   ROH 8587  16.419   9.212  11.055  0.3062  0.3738 -0.0635
  611ERGO    R1 8588  16.269   9.234  10.815  0.2165  0.4126 -0.0044
  611ERGO    R2 8589  16.358   9.379  10.597  0.2711  0.2092 -0.1193
  611ERGO    R3 8590  16.316   9.145  10.465 -0.0418  0.1851  0.0159
  611ERGO    R4 8591  16.298   9.351  10.258  0.3497  0.0879 -0.1237
  611ERGO    R5 8592  16.149   9.198  10.302  0.0947  0.3403 -0.0762
  611ERGO    C1 8593  16.224   9.115   9.937  0.1018 -0.0054  0.0006
  611ERGO    C2 8594  16.310   9.064   9.710  0.1695 -0.0339  0.2326
  612ERGO   ROH 8595  14.800   9.880  11.276 -0.3898  0.0569  0.1706
  612ERGO    R1 8596  14.597   9.878  11.078 -0.2439 -0.0388  0.0192
  612ERGO    R2 8597  14.581  10.071  10.879 -0.2583  0.0254  0.0780
  612ERGO    R3 8598  14.584   9.855  10.715  0.0473  0.0860 -0.0017
  612ERGO    R4 8599  14.518  10.079  10.540 -0.2072  0.0619  0.0697
  612ERGO    R5 8600  14.405   9.894  10.561  0.0251 -0.0889 -0.0186
  612ERGO    C1 8601  14.484   9.881  10.188  0.1094  0.1400 -0.0101
  612ERGO    C2 8602  14.459   9.929   9.836  0.0136  0.0224 -0.2441
  613ERGO   ROH 8603   8.457   8.913  11.167 -0.0769 -0.0787 -0.1005
  613ERGO    R1 8604   8.583   8.966  10.919  0.0161 -0.1844 -0.0761
  613ERGO    R2 8605   8.600   8.777  10.718 -0.2841 -0.1373 -0.1467
  613ERGO    R3 8606   8.484   8.973  10.569  0.0338  0.1114 -0.0789
  613ERGO    R4 8607   8.612   8.796  10.373 -0.4303 -0.1682 -0.1542
  613ERGO    R5 8608   8.640   9.011  10.390  0.0278 -0.2119 -0.1639
  613ERGO    C1 8609   8.511   8.990  10.032 -0.2170  0.0472 -0.0949
  613ERGO    C2 8610   8.454   8.940   9.622  0.1930 -0.0020  0.0424
  614ERGO   ROH 8611  13.407   7.133  11.039 -0.1043  0.1693  0.1639
  614ERGO    R1 8612  13.248   7.119  10.805 -0.0748  0.2144  0.1417
  614ERGO    R2 8613  13.229   7.328  10.625  0.1766  0.1433  0.0326
  614ERGO    R3 8614  13.304   7.138  10.446  0.0135 -0.0271  0.1398
  614ERGO    R4 8615  13.225   7.369  10.282  0.2469 -0.0295  0.0099
  614ERGO    R5 8616  13.151   7.165  10.264  0.0514  0.0267  0.1119
  614ERGO    C1 8617  13.294   7.214   9.914  0.1346 -0.2900  0.0974
  614ERGO    C2 8618  13.349   7.201   9.638  0.0243  0.1855 -0.2348
  615ERGO   ROH 8619   8.852   5.864  10.876 -0.1526  0.3439  0.1481
  615ERGO    R1 8620   8.751   5.997  10.647  0.0847  0.3343  0.0339
  615ERGO    R2 8621   8.916   6.110  10.456  0.2909  0.0343  0.0210
  615ERGO    R3 8622   8.771   5.954  10.286  0.1674  0.1009  0.0663
  615ERGO    R4 8623   8.879   6.167  10.117  0.2483  0.0158  0.0234
  615ERGO    R5 8624   8.670   6.109  10.135  0.2234  0.1374  0.0722
  615ERGO    C1 8625   8.722   6.054   9.761  0.1075  0.0675  0.0672
  615ERGO    C2 8626   8.703   6.182   9.467  0.1652 -0.3383  0.0190
  616ERGO   ROH 8627   2.531  16.094  10.952  0.3145  0.0588  0.0814
  616ERGO    R1 8628   2.647  16.110  10.694  0.2200 -0.0101  0.0347
  616ERGO    R2 8629   2.732  15.887  10.555  0.0320 -0.0589  0.0016
  616ERGO    R3 8630   2.569  15.985  10.361  0.0133  0.0353  0.0632
  616ERGO    R4 8631   2.771  15.828  10.217 -0.1562 -0.1341 -0.0088
  616ERGO    R5 8632   2.717  16.036  10.180 -0.0241 -0.0945 -0.0099
  616ERGO    C1 8633   2.641  15.887   9.838 -0.2833 -0.0895  0.0430
  616ERGO    C2 8634   2.564  15.912   9.596  0.1300  0.1942 -0.3455
  617ERGO   ROH 8635  13.054   1.454  10.524  0.2020 -0.2750  0.2100
  617ERGO    R1 8636  13.193   1.609  10.332  0.0955 -0.1051  0.2680
  617ERGO    R2 8637  13.266   1.509  10.085  0.3225 -0.0199  0.2992
  617ERGO    R3 8638  13.131   1.726   9.993  0.0929 -0.1814  0.2420
  617ERGO    R4 8639  13.292   1.636   9.765  0.1693 -0.0848  0.2592
  617ERGO    R5 8640  13.288   1.837   9.849 -0.0293 -0.0616  0.1990
  617ERGO    C1 8641  13.181   1.915   9.492 -0.1355 -0.2741  0.1822
  617ERGO    C2 8642  13.093   1.723   9.232 -0.1276 -0.1126  0.2242
  618ERGO   ROH 8643   6.693   5.478  11.131 -0.0402  0.1182 -0.0581
  618ERGO    R1 8644   6.629   5.340  10.892 -0.0020  0.0445 -0.0254
  618ERGO    R2 8645   6.447   5.438  10.708  0.0141 -0.0226 -0.0734
  618ERGO    R3 8646   6.654   5.405  10.535  0.0350 -0.0587 -0.0423
  618ERGO    R4 8647   6.420   5.436  10.364  0.0238 -0.2716 -0.0754
  618ERGO    R5 8648   6.563   5.273  10.357  0.0919 -0.2207  0.0435
  618ERGO    C1 8649   6.598   5.404  10.001  0.0492 -0.4504 -0.0475
  618ERGO    C2 8650   6.608   5.395   9.666 -0.2855  0.3220  0.1250
  619ERGO   ROH 8651   5.992   7.173  11.029  0.0309 -0.1602  0.1523
  619ERGO    R1 8652   5.960   7.278  10.769 -0.0916 -0.0487  0.2111
  619ERGO    R2 8653   6.120   7.202  10.557 -0.1043  0.1393  0.1308
  619ERGO    R3 8654   5.882   7.146  10.438 -0.1063  0.0708  0.1671
  619ERGO    R4 8655   6.054   7.238  10.219 -0.2124  0.2545  0.1633
  619ERGO    R5 8656   5.857   7.316  10.271 -0.2378  0.1311  0.2482
  619ERGO    C1 8657   5.792   7.206   9.912 -0.2773  0.2573  0.2162
  619ERGO    C2 8658   5.706   7.163   9.580 -0.0897  0.1559 -0.2019
  620ERGO   ROH 8659  10.112   5.658  10.982 -0.1337  0.1138 -0.0894
  620ERGO    R1 8660  10.236   5.742  10.741  0.0888 -0.0126 -0.0229
  620ERGO    R2 8661  10.315   5.564  10.545 -0.0452 -0.0945 -0.0088
  620ERGO    R3 8662  10.161   5.722  10.386  0.2263  0.1254 -0.0594
  620ERGO    R4 8663  10.281   5.526  10.203 -0.0557 -0.0912 -0.0078
  620ERGO    R5 8664  10.288   5.742  10.183  0.2899 -0.1040 -0.0426
  620ERGO    C1 8665  10.117   5.651   9.855  0.1930  0.1171 -0.0548
  620ERGO    C2 8666   9.968   5.696   9.479 -0.0252  0.3069 -0.1369
  621ERGO   ROH 8667  11.615   4.949  10.920  0.1893 -0.0271  0.0415
  621ERGO    R1 8668  11.709   5.037  10.668  0.2141 -0.0726  0.0349
  621ERGO    R2 8669  11.903   4.900  10.527  0.0717 -0.2194 -0.0221
  621ERGO    R3 8670  11.717   4.905  10.329  0.0355 -0.0345  0.0146
  621ERGO    R4 8671  11.974   4.938  10.191  0.0114  0.1173  0.0000
  621ERGO    R5 8672  11.799   5.068  10.174 -0.0007  0.1257  0.1597
  621ERGO    C1 8673  11.840   4.965   9.809 -0.0577  0.4869  0.0474
  621ERGO    C2 8674  11.811   5.035   9.445 -0.1120 -0.1163  0.1215
  622ERGO   ROH 8675  14.595  12.835  11.161 -0.0486 -0.0833 -0.0715
  622ERGO    R1 8676  14.506  12.694  10.932  0.0618  0.0206 -0.1802
  622ERGO    R2 8677  14.275  12.760  10.796  0.0557 -0.0014 -0.1812
  622ERGO    R3 8678  14.442  12.770  10.582  0.0927  0.2154 -0.1443
  622ERGO    R4 8679  14.176  12.729  10.466  0.1450  0.0704 -0.2150
  622ERGO    R5 8680  14.353  12.609  10.430  0.2418  0.2162 -0.2335
  622ERGO    C1 8681  14.275  12.721  10.074  0.2315  0.3159 -0.2000
  622ERGO    C2 8682  14.193  12.766   9.744  0.1293 -0.0996  0.0239
  623ERGO   ROH 8683  16.055   4.511  11.099 -0.2288  0.1010 -0.0237
  623ERGO    R1 8684  16.209   4.617  10.886 -0.1478  0.0913  0.0295
  623ERGO    R2 8685  16.342   4.457  10.705  0.0203  0.0819  0.1558
  623ERGO    R3 8686  16.203   4.603  10.523  0.0649 -0.0311  0.0294
  623ERGO    R4 8687  16.420   4.479  10.368  0.2275  0.0473  0.1997
  623ERGO    R5 8688  16.371   4.691  10.376  0.1135  0.0223  0.1196
  623ERGO    C1 8689  16.334   4.629  10.002  0.3900 -0.0789  0.1067
  623ERGO    C2 8690  16.418   4.511   9.707  0.2138  0.1275 -0.0904
  624ERGO   ROH 8691   1.860   6.501  11.142  0.0194  0.1048  0.1275
  624ERGO    R1 8692   1.796   6.649  10.909  0.0384  0.0279  0.0746
  624ERGO    R2 8693   1.987   6.726  10.725  0.0463 -0.0635  0.0499
  624ERGO    R3 8694   1.823   6.600  10.549  0.0316 -0.1037  0.0906
  624ERGO    R4 8695   2.025   6.730  10.381 -0.0163 -0.0820  0.0418
  624ERGO    R5 8696   1.809   6.749  10.362 -0.0262 -0.1168  0.0812
  624ERGO    C1 8697   1.893   6.613  10.016 -0.0666 -0.1305  0.0752
  624ERGO    C2 8698   1.967   6.649   9.675  0.0324  0.2390 -0.1029
  625ERGO   ROH 8699  12.370   8.842   6.930 -0.1994 -0.0893 -0.0540
  625ERGO    R1 8700  12.310   8.886   7.203 -0.1771 -0.0805 -0.0518
  625ERGO    R2 8701  12.073   8.804   7.318 -0.0981 -0.2154  0.0038
  625ERGO    R3 8702  12.239   8.681   7.495  0.0131 -0.0745  0.0014
  625ERGO    R4 8703  12.012   8.773   7.657  0.0699 -0.0094  0.0564
  625ERGO    R5 8704  12.223   8.814   7.694  0.0856  0.0537 -0.0733
  625ERGO    C1 8705  12.132   8.639   8.020  0.2722  0.2427  0.0847
  625ERGO    C2 8706  12.073   8.755   8.337  0.0217  0.0064  0.2586
  626ERGO   ROH 8707  16.144  12.222  10.949 -0.0185  0.1421  0.1003
  626ERGO    R1 8708  16.062  12.077  10.720 -0.1358  0.0392  0.2039
  626ERGO    R2 8709  15.831  12.139  10.580 -0.0686  0.1562  0.1303
  626ERGO    R3 8710  16.002  12.151  10.368 -0.0263 -0.1723  0.1413
  626ERGO    R4 8711  15.744  12.079  10.250 -0.1077  0.1485  0.1428
  626ERGO    R5 8712  15.933  11.973  10.225 -0.2584 -0.1287  0.2043
  626ERGO    C1 8713  15.854  12.056   9.861 -0.0908 -0.1644  0.1603
  626ERGO    C2 8714  15.939  12.132   9.485 -0.2554  0.0342 -0.2359
  627ERGO   ROH 8715  11.397   3.823  10.837  0.2733 -0.0309  0.1239
  627ERGO    R1 8716  11.496   3.900  10.584  0.2741 -0.2276  0.0607
  627ERGO    R2 8717  11.461   3.747  10.357 -0.1346 -0.1913  0.0824
  627ERGO    R3 8718  11.356   3.977  10.257  0.2166  0.0006  0.1395
  627ERGO    R4 8719  11.503   3.860  10.033 -0.0216 -0.1918  0.0976
  627ERGO    R5 8720  11.526   4.062  10.111  0.3199 -0.2428  0.1240
  627ERGO    C1 8721  11.429   4.141   9.751  0.3740 -0.0120  0.1600
  627ERGO    C2 8722  11.194   4.201   9.413 -0.1659 -0.0346 -0.1100
  628ERGO   ROH 8723   6.848   3.844  11.087  0.1774 -0.1269  0.0990
  628ERGO    R1 8724   6.758   3.982  10.858 -0.1364 -0.2180  0.1635
  628ERGO    R2 8725   6.928   4.064  10.657 -0.3218  0.2164  0.1775
  628ERGO    R3 8726   6.757   3.925  10.498 -0.0580 -0.0793  0.1392
  628ERGO    R4 8727   6.924   4.079  10.312 -0.3955  0.3807  0.1842
  628ERGO    R5 8728   6.706   4.077  10.320 -0.4060 -0.0872  0.2196
  628ERGO    C1 8729   6.760   3.957   9.961 -0.1908  0.1987  0.1519
  628ERGO    C2 8730   6.735   4.015   9.688  0.0717 -0.1077 -0.0855
  629ERGO   ROH 8731  10.196   2.201  11.031 -0.1395  0.2534  0.0746
  629ERGO    R1 8732  10.238   2.194  10.751  0.0598  0.1043  0.1052
  629ERGO    R2 8733  10.042   2.267  10.570  0.0804 -0.2837 -0.0847
  629ERGO    R3 8734  10.236   2.434  10.478 -0.0749 -0.0917 -0.0687
  629ERGO    R4 8735  10.070   2.375  10.243  0.0700 -0.3520 -0.1083
  629ERGO    R5 8736  10.286   2.351  10.258  0.0941 -0.1032 -0.0264
  629ERGO    C1 8737  10.267   2.595   9.966 -0.0819 -0.2115 -0.1070
  629ERGO    C2 8738  10.275   2.657   9.583  0.3960 -0.2184 -0.1006
  630ERGO   ROH 8739   7.746   6.048  11.151  0.0261  0.0265 -0.0492
  630ERGO    R1 8740   7.640   6.044  10.888 -0.0235 -0.0902 -0.0294
  630ERGO    R2 8741   7.645   6.265  10.723 -0.1637 -0.1254 -0.0890
  630ERGO    R3 8742   7.768   6.094  10.551 -0.1107 -0.1099 -0.0647
  630ERGO    R4 8743   7.604   6.265  10.380  0.0087 -0.0460 -0.1099
  630ERGO    R5 8744   7.603   6.047  10.385 -0.0337 -0.0441 -0.1574
  630ERGO    C1 8745   7.695   6.105  10.019  0.1588  0.0148 -0.0992
  630ERGO    C2 8746   7.650   6.195   9.646  0.1995 -0.2065  0.1517
  631ERGO   ROH 8747   5.146   8.748  10.817 -0.1046 -0.1340  0.0061
  631ERGO    R1 8748   5.063   8.660  10.561 -0.1476  0.0772 -0.0561
  631ERGO    R2 8749   4.947   8.829  10.376  0.0672  0.2972 -0.0057
  631ERGO    R3 8750   5.146   8.738  10.215  0.0097  0.1615  0.0014
  631ERGO    R4 8751   4.941   8.838  10.031 -0.0516 -0.0146 -0.0140
  631ERGO    R5 8752   5.032   8.640  10.029 -0.0483 -0.0084  0.1298
  631ERGO    C1 8753   5.125   8.758   9.679 -0.1749 -0.3236 -0.0121
  631ERGO    C2 8754   5.053   8.710   9.361  0.0817  0.0620  0.1042
  632ERGO   ROH 8755   0.352  11.093  11.228 -0.1656  0.0659  0.0920
  632ERGO    R1 8756   0.484  10.998  10.997 -0.0860 -0.0338  0.1783
  632ERGO    R2 8757   0.363  10.828  10.816 -0.0609 -0.0264  0.1543
  632ERGO    R3 8758   0.436  11.019  10.637  0.1019 -0.0912  0.1493
  632ERGO    R4 8759   0.338  10.797  10.473 -0.2804  0.0678  0.1597
  632ERGO    R5 8760   0.531  10.896  10.455 -0.1552 -0.1867  0.0774
  632ERGO    C1 8761   0.392  10.958  10.105 -0.2555  0.0618  0.1582
  632ERGO    C2 8762   0.352  10.940   9.761  0.1323 -0.1839 -0.1862
  633ERGO   ROH 8763   2.033  16.224  10.804  0.0367  0.2798 -0.0471
  633ERGO    R1 8764   2.170  16.180  10.561  0.1009 -0.1513  0.0597
  633ERGO    R2 8765   2.131  15.953  10.407 -0.4957 -0.0462  0.0341
  633ERGO    R3 8766   2.081  16.135  10.211  0.2234  0.1355 -0.0118
  633ERGO    R4 8767   2.111  15.879  10.070 -0.5419 -0.0019  0.0268
  633ERGO    R5 8768   2.218  16.064  10.028  0.1152 -0.3411  0.0765
  633ERGO    C1 8769   2.051  16.005   9.690  0.1063  0.1944 -0.0205
  633ERGO    C2 8770   1.965  15.919   9.309  0.0629  0.2957 -0.1019
  634ERGO   ROH 8771   9.165   5.508  10.732  0.0425 -0.1189  0.0763
  634ERGO    R1 8772   9.026   5.589  10.499 -0.0632 -0.2055  0.1083
  634ERGO    R2 8773   9.140   5.750  10.306 -0.2760  0.0487  0.1836
  634ERGO    R3 8774   9.065   5.548  10.140  0.0137  0.0126  0.0909
  634ERGO    R4 8775   9.076   5.785   9.968 -0.0842  0.0502  0.1459
  634ERGO    R5 8776   8.907   5.649   9.991  0.0224 -0.1037  0.0053
  634ERGO    C1 8777   8.967   5.616   9.616  0.2994  0.0173  0.0370
  634ERGO    C2 8778   8.934   5.774   9.305 -0.0685  0.0657 -0.1152
  635ERGO   ROH 8779   4.481   1.035  11.019 -0.2502 -0.1783  0.0511
  635ERGO    R1 8780   4.567   1.109  10.760 -0.2373 -0.0696  0.0871
  635ERGO    R2 8781   4.722   0.943  10.601 -0.1261  0.0506  0.0779
  635ERGO    R3 8782   4.523   0.984  10.421 -0.1077 -0.0039  0.0437
  635ERGO    R4 8783   4.768   0.980  10.261 -0.0860 -0.1330  0.0617
  635ERGO    R5 8784   4.617   1.137  10.262 -0.0610 -0.0990 -0.0278
  635ERGO    C1 8785   4.608   1.040   9.893 -0.0453 -0.2912  0.0202
  635ERGO    C2 8786   4.592   0.973   9.550 -0.1334 -0.0391  0.0239
  636ERGO   ROH 8787   7.906   7.848  11.036  0.0578 -0.0924 -0.2113
  636ERGO    R1 8788   7.873   7.955  10.776 -0.1656 -0.2095 -0.2331
  636ERGO    R2 8789   8.084   8.057  10.630 -0.3727  0.2099 -0.2487
  636ERGO    R3 8790   7.998   7.880  10.442  0.0002 -0.0165 -0.2166
  636ERGO    R4 8791   8.028   8.133  10.297 -0.3772 -0.0115 -0.3004
  636ERGO    R5 8792   7.850   8.007  10.303 -0.1707 -0.3188 -0.3232
  636ERGO    C1 8793   7.915   8.011   9.927 -0.0298 -0.3528 -0.3001
  636ERGO    C2 8794   7.970   8.078   9.636 -0.0212  0.1180 -0.0495
  637ERGO   ROH 8795   7.543  13.562  10.807 -0.2620  0.0782 -0.1241
  637ERGO    R1 8796   7.527  13.424  10.560  0.1450 -0.1158 -0.0509
  637ERGO    R2 8797   7.416  13.538  10.334 -0.1733 -0.5484 -0.1209
  637ERGO    R3 8798   7.655  13.470  10.223  0.0430  0.0674 -0.0670
  637ERGO    R4 8799   7.486  13.545   9.995 -0.1821 -0.5339 -0.1227
  637ERGO    R5 8800   7.597  13.359  10.019  0.3599 -0.2224 -0.0104
  637ERGO    C1 8801   7.752  13.486   9.695  0.0158  0.0527 -0.0730
  637ERGO    C2 8802   7.848  13.516   9.400  0.0369  0.1616  0.2366
  638ERGO   ROH 8803   6.460  13.171  10.808  0.0596  0.0412 -0.0439
  638ERGO    R1 8804   6.601  13.196  10.564  0.1050  0.1468 -0.0069
  638ERGO    R2 8805   6.643  12.983  10.394  0.3178  0.1749  0.0097
  638ERGO    R3 8806   6.529  13.148  10.210  0.2360  0.0816 -0.0255
  638ERGO    R4 8807   6.645  12.930  10.052  0.0909 -0.0450  0.0386
  638ERGO    R5 8808   6.681  13.143  10.025  0.1189 -0.0681 -0.1204
  638ERGO    C1 8809   6.540  13.054   9.681 -0.1181 -0.2607  0.0223
  638ERGO    C2 8810   6.453  12.960   9.319 -0.1337 -0.0012 -0.1223
  639ERGO   ROH 8811  15.843  10.217  11.021 -0.0951 -0.2759  0.1125
  639ERGO    R1 8812  15.865  10.290  10.749 -0.1420 -0.0464  0.1683
  639ERGO    R2 8813  16.033  10.159  10.572 -0.0292  0.2221  0.0701
  639ERGO    R3 8814  15.805  10.132  10.427 -0.0031  0.1529  0.0417
  639ERGO    R4 8815  16.021  10.117  10.229  0.0409 -0.1193  0.1052
  639ERGO    R5 8816  15.849  10.251  10.224  0.0867 -0.0647 -0.0703
  639ERGO    C1 8817  15.799  10.068   9.893  0.1065 -0.3829  0.0990
  639ERGO    C2 8818  15.919   9.996   9.507 -0.0581  0.0188  0.0190
  640ERGO   ROH 8819   3.722   5.465  11.124 -0.1323  0.2194  0.0227
  640ERGO    R1 8820   3.732   5.298  10.895  0.0277  0.1730  0.0629
  640ERGO    R2 8821   3.516   5.266  10.725  0.0651 -0.0610  0.0620
  640ERGO    R3 8822   3.696   5.341  10.536  0.0056  0.0537  0.0492
  640ERGO    R4 8823   3.470   5.234  10.384  0.1008 -0.2033  0.0697
  640ERGO    R5 8824   3.678   5.173  10.366  0.1641 -0.0173  0.0960
  640ERGO    C1 8825   3.612   5.286  10.008  0.0658 -0.1786  0.0620
  640ERGO    C2 8826   3.586   5.392   9.678 -0.0082  0.2135 -0.0607
  641ERGO   ROH 8827   5.214  10.106  10.908 -0.0413 -0.0499 -0.0151
  641ERGO    R1 8828   5.380  10.084  10.680  0.0233  0.0178  0.0248
  641ERGO    R2 8829   5.331   9.904  10.476  0.0902  0.0645 -0.0365
  641ERGO    R3 8830   5.344  10.127  10.321  0.1180  0.1065  0.0262
  641ERGO    R4 8831   5.367   9.904  10.132 -0.0392  0.1614 -0.0510
  641ERGO    R5 8832   5.504  10.072  10.151  0.0314  0.0999 -0.0509
  641ERGO    C1 8833   5.401  10.113   9.786 -0.0883  0.2572 -0.0006
  641ERGO    C2 8834   5.518  10.041   9.457  0.1471  0.1680  0.0229
  642ERGO   ROH 8835   3.616  11.611  10.673 -0.1601  0.1019 -0.0028
  642ERGO    R1 8836   3.748  11.640  10.424 -0.1333  0.0808  0.0089
  642ERGO    R2 8837   3.706  11.468  10.212 -0.0866  0.0440  0.0294
  642ERGO    R3 8838   3.650  11.697  10.078 -0.0982  0.0176 -0.0113
  642ERGO    R4 8839   3.598  11.483   9.885 -0.1880 -0.0222  0.0593
  642ERGO    R5 8840   3.727  11.656   9.855 -0.1746 -0.0476 -0.0253
  642ERGO    C1 8841   3.482  11.707   9.568 -0.2580 -0.0855  0.0385
  642ERGO    C2 8842   3.351  11.697   9.178 -0.1628 -0.1209 -0.4042
  643ERGO   ROH 8843   6.224   2.305  11.224  0.0841 -0.2051 -0.0128
  643ERGO    R1 8844   6.238   2.249  10.947  0.1112 -0.1128 -0.0313
  643ERGO    R2 8845   6.031   2.129  10.808  0.1873 -0.2280 -0.0580
  643ERGO    R3 8846   6.056   2.347  10.647  0.0194 -0.1566  0.0116
  643ERGO    R4 8847   5.986   2.129  10.465  0.2699 -0.1602 -0.0687
  643ERGO    R5 8848   6.157   2.263  10.447  0.1445  0.0039  0.0101
  643ERGO    C1 8849   5.984   2.333  10.115  0.1604 -0.0537 -0.0095
  643ERGO    C2 8850   5.897   2.290   9.682  0.1120  0.1436 -0.1981
  644ERGO   ROH 8851  13.460   5.604  11.057  0.0348  0.1404  0.0970
  644ERGO    R1 8852  13.444   5.767  10.827  0.0562  0.1523  0.1011
  644ERGO    R2 8853  13.649   5.784  10.642  0.1319  0.2574  0.1754
  644ERGO    R3 8854  13.453   5.717  10.466  0.2259  0.1746  0.1049
  644ERGO    R4 8855  13.660   5.847  10.302  0.2102  0.2457  0.1774
  644ERGO    R5 8856  13.448   5.900  10.311  0.1976  0.1554  0.0982
  644ERGO    C1 8857  13.483   5.820   9.939  0.3438  0.1611  0.1124
  644ERGO    C2 8858  13.438   5.892   9.625 -0.1439  0.2370  0.1766
  645ERGO   ROH 8859   8.479  14.184  10.942 -0.2572 -0.0029  0.1239
  645ERGO    R1 8860   8.353  14.151  10.690 -0.1432 -0.0855  0.0769
  645ERGO    R2 8861   8.449  14.267  10.459 -0.1660  0.0271  0.1254
  645ERGO    R3 8862   8.441  14.012  10.366  0.0906  0.0292  0.0886
  645ERGO    R4 8863   8.492  14.176  10.128 -0.1926  0.1338  0.0918
  645ERGO    R5 8864   8.332  14.029  10.154 -0.0180 -0.0575  0.1341
  645ERGO    C1 8865   8.509  13.883   9.849  0.0328  0.1979  0.0379
  645ERGO    C2 8866   8.627  13.879   9.582 -0.0194  0.0613  0.0663
  646ERGO   ROH 8867  12.028  13.078  10.874 -0.1558  0.1727  0.1548
  646ERGO    R1 8868  12.098  13.241  10.653 -0.1341  0.0569  0.0736
  646ERGO    R2 8869  12.352  13.245  10.545 -0.1052  0.0384  0.1277
  646ERGO    R3 8870  12.219  13.190  10.314 -0.0467 -0.1243  0.1325
  646ERGO    R4 8871  12.493  13.250  10.229 -0.0946  0.0562  0.1333
  646ERGO    R5 8872  12.311  13.343  10.154 -0.1552 -0.1032  0.0958
  646ERGO    C1 8873  12.451  13.201   9.829 -0.0334 -0.0862  0.1411
  646ERGO    C2 8874  12.474  13.182   9.491 -0.2096  0.2102  0.0774
  647ERGO   ROH 8875   8.455   6.966  10.964 -0.0874  0.0337  0.1005
  647ERGO    R1 8876   8.289   7.027  10.743 -0.0984  0.1695  0.1444
  647ERGO    R2 8877   8.363   7.205  10.547 -0.0392  0.1728  0.1644
  647ERGO    R3 8878   8.309   6.996  10.381 -0.1823  0.2328  0.1353
  647ERGO    R4 8879   8.329   7.229  10.203  0.2001  0.2027  0.1417
  647ERGO    R5 8880   8.162   7.089  10.215  0.0282  0.3989  0.0415
  647ERGO    C1 8881   8.258   7.047   9.848  0.2051  0.2764  0.1010
  647ERGO    C2 8882   8.385   7.139   9.517  0.3347  0.0489 -0.1566
  648ERGO   ROH 8883   7.499  16.739  10.540  0.0192  0.1433 -0.0767
  648ERGO    R1 8884   7.342  16.768  10.307 -0.0077  0.2171 -0.0502
  648ERGO    R2 8885   7.434  16.898  10.081  0.0747  0.0397 -0.1209
  648ERGO    R3 8886   7.366  16.665   9.958 -0.1939  0.0610 -0.0186
  648ERGO    R4 8887   7.439  16.846   9.739 -0.0589 -0.0927 -0.1039
  648ERGO    R5 8888   7.253  16.734   9.758 -0.1717  0.1036 -0.0168
  648ERGO    C1 8889   7.379  16.597   9.425 -0.3888 -0.1498  0.0022
  648ERGO    C2 8890   7.563  16.571   9.055 -0.0924 -0.0226 -0.1935
  649ERGO   ROH 8891  11.023  12.973  11.281 -0.0980 -0.0595 -0.0683
  649ERGO    R1 8892  10.990  13.047  11.009 -0.0416  0.0022 -0.0591
  649ERGO    R2 8893  11.203  13.091  10.840 -0.0045 -0.0603 -0.0334
  649ERGO    R3 8894  11.077  12.907  10.685 -0.0715  0.0192 -0.0734
  649ERGO    R4 8895  11.223  13.077  10.495  0.1468 -0.1184 -0.0232
  649ERGO    R5 8896  11.010  13.029  10.490  0.1149  0.0451 -0.1202
  649ERGO    C1 8897  11.115  12.896  10.149  0.1722 -0.0775 -0.0548
  649ERGO    C2 8898  11.065  12.851   9.756  0.0752 -0.0260 -0.1448
  650ERGO   ROH 8899   6.795  14.146  10.469 -0.1404  0.0122 -0.1869
  650ERGO    R1 8900   6.698  14.060  10.217 -0.0012  0.0133 -0.2430
  650ERGO    R2 8901   6.697  14.224   9.994  0.0844  0.0316 -0.2395
  650ERGO    R3 8902   6.835  14.018   9.882  0.1777  0.0601 -0.1751
  650ERGO    R4 8903   6.732  14.172   9.654  0.0994 -0.0789 -0.2204
  650ERGO    R5 8904   6.706  13.958   9.689  0.2054 -0.0731 -0.1467
  650ERGO    C1 8905   6.882  13.949   9.351  0.1957 -0.1165 -0.1489
  650ERGO    C2 8906   7.147  13.951   9.113 -0.2613  0.0197  0.3535
  651ERGO   ROH 8907   3.175  15.142  10.819  0.2182 -0.1040  0.0591
  651ERGO    R1 8908   3.282  15.103  10.559  0.0854 -0.2297  0.0219
  651ERGO    R2 8909   3.205  14.893  10.397 -0.1720 -0.1796  0.0692
  651ERGO    R3 8910   3.152  15.092  10.220 -0.0566 -0.1447  0.0737
  651ERGO    R4 8911   3.140  14.845  10.061 -0.2084 -0.1274  0.0689
  651ERGO    R5 8912   3.260  15.022  10.018 -0.1054 -0.2016  0.0704
  651ERGO    C1 8913   3.053  15.004   9.699 -0.1212 -0.0641  0.0730
  651ERGO    C2 8914   2.973  14.968   9.399 -0.2540 -0.2065 -0.1203
  652ERGO   ROH 8915   6.040   0.927  11.101 -0.0188 -0.0110  0.0257
  652ERGO    R1 8916   5.977   1.069  10.864 -0.0009  0.0438  0.0529
  652ERGO    R2 8917   6.104   1.021  10.624  0.1327  0.2097  0.0834
  652ERGO    R3 8918   5.850   0.988  10.533  0.1885  0.0925 -0.0310
  652ERGO    R4 8919   6.009   1.042  10.292  0.2775  0.0561  0.0309
  652ERGO    R5 8920   5.829   1.148  10.356  0.2151  0.0165 -0.0975
  652ERGO    C1 8921   5.715   1.023  10.014  0.4142 -0.1433 -0.1070
  652ERGO    C2 8922   5.650   1.053   9.675  0.0203 -0.0464 -0.1445
  653ERGO   ROH 8923   6.209   5.443  11.138  0.2883 -0.1538 -0.0338
  653ERGO    R1 8924   6.020   5.448  10.928  0.2415 -0.1045  0.0097
  653ERGO    R2 8925   6.032   5.630  10.720  0.1512 -0.0066  0.0910
  653ERGO    R3 8926   6.025   5.407  10.566  0.1728  0.0622 -0.0114
  653ERGO    R4 8927   6.011   5.629  10.376  0.1029  0.1489  0.0920
  653ERGO    R5 8928   5.873   5.461  10.389  0.1367  0.1150  0.0346
  653ERGO    C1 8929   5.993   5.418  10.030  0.0951  0.3040 -0.0036
  653ERGO    C2 8930   6.121   5.443   9.749  0.0070  0.2010 -0.0878
  654ERGO   ROH 8931   0.339   9.076  11.075  0.0759 -0.1778  0.1033
  654ERGO    R1 8932   0.220   9.039  10.821  0.0222  0.0482  0.0937
  654ERGO    R2 8933   0.186   9.247  10.641  0.3272  0.1404  0.1337
  654ERGO    R3 8934   0.320   9.080  10.474  0.0889 -0.0269  0.1045
  654ERGO    R4 8935   0.190   9.274  10.297  0.3028  0.1412  0.1337
  654ERGO    R5 8936   0.175   9.057  10.284  0.0266  0.1585  0.1297
  654ERGO    C1 8937   0.318   9.134   9.939  0.0649 -0.0155  0.1063
  654ERGO    C2 8938   0.228   9.068   9.601 -0.0022 -0.1898  0.0561
  655ERGO   ROH 8939   8.607   0.487  10.811 -0.2618 -0.2145  0.0755
  655ERGO    R1 8940   8.498   0.501  10.550 -0.1668 -0.2704  0.0307
  655ERGO    R2 8941   8.412   0.738  10.437 -0.3199 -0.3194  0.0234
  655ERGO    R3 8942   8.582   0.666  10.237 -0.1712 -0.1563  0.0917
  655ERGO    R4 8943   8.375   0.827  10.105 -0.2153 -0.2887  0.0216
  655ERGO    R5 8944   8.439   0.626  10.049 -0.0426 -0.2254  0.0144
  655ERGO    C1 8945   8.514   0.812   9.724 -0.0147 -0.1177  0.0844
  655ERGO    C2 8946   8.583   0.715   9.364  0.0290 -0.1028  0.0134
  656ERGO   ROH 8947   7.618  10.397   6.936 -0.1393 -0.1682  0.0912
  656ERGO    R1 8948   7.571  10.482   7.202 -0.0422 -0.0759  0.0791
  656ERGO    R2 8949   7.411  10.340   7.377 -0.0727  0.0461  0.1498
  656ERGO    R3 8950   7.631  10.350   7.536 -0.0334 -0.0174  0.1005
  656ERGO    R4 8951   7.409  10.309   7.721  0.0076 -0.0150  0.1456
  656ERGO    R5 8952   7.559  10.466   7.732  0.0338 -0.0415  0.1389
  656ERGO    C1 8953   7.615  10.300   8.070  0.0912 -0.1100  0.0969
  656ERGO    C2 8954   7.629  10.138   8.497  0.2759 -0.2428  0.1410
  657ERGO   ROH 8955   2.176  11.370  11.331  0.1970 -0.2359  0.0649
  657ERGO    R1 8956   2.304  11.334  11.081  0.1540 -0.1244  0.0247
  657ERGO    R2 8957   2.220  11.144  10.898  0.2428 -0.1804  0.0324
  657ERGO    R3 8958   2.209  11.357  10.730  0.0308 -0.1730  0.0559
  657ERGO    R4 8959   2.255  11.127  10.554  0.1444 -0.1112  0.0198
  657ERGO    R5 8960   2.373  11.310  10.562  0.0083 -0.0285 -0.0015
  657ERGO    C1 8961   2.265  11.318  10.197 -0.1119 -0.0641  0.0346
  657ERGO    C2 8962   2.224  11.258   9.827  0.1690  0.1571 -0.2852
  658ERGO   ROH 8963  12.181  14.377  11.274  0.2112 -0.3499 -0.0386
  658ERGO    R1 8964  12.078  14.216  11.065  0.3059 -0.3406 -0.0928
  658ERGO    R2 8965  11.872  14.300  10.900  0.0283 -0.5295  0.1469
  658ERGO    R3 8966  12.049  14.240  10.703 -0.0238 -0.0678 -0.0537
  658ERGO    R4 8967  11.805  14.322  10.562 -0.2118 -0.1673  0.2120
  658ERGO    R5 8968  11.915  14.136  10.533 -0.0095 -0.0056 -0.1022
  658ERGO    C1 8969  11.931  14.278  10.180 -0.4006  0.4769  0.0615
  658ERGO    C2 8970  11.980  14.179   9.795  0.0418 -0.0905 -0.2376
  659ERGO   ROH 8971  12.680   4.130  10.747  0.0385 -0.0198  0.0069
  659ERGO    R1 8972  12.563   4.246  10.516 -0.1530 -0.2707 -0.0246
  659ERGO    R2 8973  12.688   4.445  10.370 -0.5540  0.0265  0.0329
  659ERGO    R3 8974  12.647   4.273  10.163 -0.0952 -0.0601  0.0021
  659ERGO    R4 8975  12.688   4.533  10.036 -0.2369 -0.0183  0.0166
  659ERGO    R5 8976  12.519   4.399  10.005 -0.0514 -0.2264 -0.1768
  659ERGO    C1 8977  12.649   4.423   9.647  0.3785 -0.1256 -0.0217
  659ERGO    C2 8978  12.645   4.590   9.170 -0.0229 -0.0227  0.2395
  660ERGO   ROH 8979   1.178  15.981  10.653  0.1146  0.0258 -0.0744
  660ERGO    R1 8980   1.034  16.076  10.428 -0.0075 -0.1394 -0.0660
  660ERGO    R2 8981   1.156  16.203  10.214 -0.1658  0.0137 -0.0597
  660ERGO    R3 8982   1.029  16.011  10.070  0.0567 -0.1323 -0.0702
  660ERGO    R4 8983   1.112  16.209   9.872 -0.1856 -0.0005 -0.0588
  660ERGO    R5 8984   0.911  16.132   9.901 -0.1000 -0.2497 -0.0543
  660ERGO    C1 8985   0.967  16.033   9.537  0.0117 -0.1458 -0.0680
  660ERGO    C2 8986   0.850  16.070   9.232  0.2405 -0.0377  0.0710
  661ERGO   ROH 8987  10.530   3.554  10.731  0.3752 -0.0515 -0.0174
  661ERGO    R1 8988  10.520   3.474  10.459  0.3614 -0.0812 -0.0072
  661ERGO    R2 8989  10.359   3.602  10.273  0.2584 -0.1834  0.0175
  661ERGO    R3 8990  10.593   3.626  10.136  0.2164 -0.0732 -0.0385
  661ERGO    R4 8991  10.385   3.682   9.938  0.1368 -0.1109  0.0241
  661ERGO    R5 8992  10.545   3.536   9.920  0.1888 -0.0530 -0.0446
  661ERGO    C1 8993  10.619   3.752   9.614  0.0263  0.0346 -0.0247
  661ERGO    C2 8994  10.761   3.855   9.360  0.2448 -0.0198  0.2290
  662ERGO   ROH 8995   5.202   4.334  11.069  0.0034  0.0777 -0.0671
  662ERGO    R1 8996   5.236   4.203  10.820 -0.0669 -0.0618 -0.0050
  662ERGO    R2 8997   5.024   4.134  10.658 -0.1037  0.0226  0.0038
  662ERGO    R3 8998   5.162   4.275  10.471  0.0233 -0.1625 -0.0449
  662ERGO    R4 8999   5.001   4.084  10.317 -0.2886  0.0517  0.0110
  662ERGO    R5 9000   5.217   4.113  10.303 -0.2518 -0.2387 -0.0646
  662ERGO    C1 9001   5.117   4.187   9.943 -0.2770 -0.1052 -0.0305
  662ERGO    C2 9002   5.111   4.114   9.579 -0.2870  0.1769 -0.0938
  663ERGO   ROH 9003  13.352  15.397  10.870 -0.0074 -0.0864 -0.0591
  663ERGO    R1 9004  13.256  15.375  10.604  0.0652 -0.0627 -0.0906
  663ERGO    R2 9005  13.232  15.593  10.436  0.0045 -0.0198 -0.0512
  663ERGO    R3 9006  13.385  15.442  10.271  0.1227  0.0857 -0.0346
  663ERGO    R4 9007  13.200  15.583  10.092 -0.0987 -0.2439 -0.0341
  663ERGO    R5 9008  13.234  15.368  10.101  0.1640 -0.1865  0.0592
  663ERGO    C1 9009  13.326  15.434   9.737 -0.0477 -0.2754 -0.0086
  663ERGO    C2 9010  13.329  15.397   9.490 -0.1272  0.1724  0.3441
  664ERGO   ROH 9011   0.750  13.888  10.740  0.1631  0.2430  0.0567
  664ERGO    R1 9012   0.778  13.863  10.459  0.0587  0.0080  0.0649
  664ERGO    R2 9013   0.669  13.652  10.317 -0.1490 -0.0206  0.2555
  664ERGO    R3 9014   0.556  13.852  10.171 -0.0395 -0.0401  0.1432
  664ERGO    R4 9015   0.602  13.637   9.978  0.1527 -0.0350  0.1935
  664ERGO    R5 9016   0.669  13.843   9.960  0.1464 -0.0338  0.2441
  664ERGO    C1 9017   0.457  13.816   9.644  0.4312 -0.0614  0.0521
  664ERGO    C2 9018   0.365  13.678   9.311  0.1680 -0.2172  0.0473
  665ERGO   ROH 9019   0.754   6.335  11.445  0.3323  0.1921  0.1478
  665ERGO    R1 9020   0.924   6.329  11.219  0.1976 -0.0528  0.0489
  665ERGO    R2 9021   0.933   6.114  11.044 -0.1850 -0.0850  0.0608
  665ERGO    R3 9022   0.883   6.306  10.858 -0.0426 -0.0337  0.0732
  665ERGO    R4 9023   0.973   6.074  10.704 -0.2693 -0.1109  0.0534
  665ERGO    R5 9024   1.055   6.276  10.694 -0.0912 -0.1812  0.0479
  665ERGO    C1 9025   0.950   6.230  10.330 -0.1846 -0.0779  0.0609
  665ERGO    C2 9026   0.949   6.274   9.959  0.0133 -0.1910  0.0111
  666ERGO   ROH 9027   2.171  10.213  11.055 -0.2201  0.0751 -0.1197
  666ERGO    R1 9028   2.125  10.366  10.821 -0.3021 -0.0113 -0.1597
  666ERGO    R2 9029   2.314  10.391  10.620 -0.2842  0.1059 -0.1214
  666ERGO    R3 9030   2.110  10.303  10.463 -0.1776 -0.0951 -0.1527
  666ERGO    R4 9031   2.326  10.370  10.276 -0.2638  0.3062 -0.1346
  666ERGO    R5 9032   2.121  10.444  10.269 -0.3760  0.0306 -0.0818
  666ERGO    C1 9033   2.142  10.276   9.927 -0.1518  0.2342 -0.1716
  666ERGO    C2 9034   2.212  10.346   9.634  0.0440  0.1636 -0.1660
  667ERGO   ROH 9035   9.387   6.865  11.060 -0.1794 -0.0512 -0.0147
  667ERGO    R1 9036   9.332   7.018  10.828 -0.1006 -0.0110 -0.0070
  667ERGO    R2 9037   9.516   7.051  10.625 -0.0979 -0.1288 -0.0227
  667ERGO    R3 9038   9.313   6.957  10.470 -0.1741  0.0079 -0.0069
  667ERGO    R4 9039   9.482   7.111  10.286 -0.0211 -0.1890 -0.0415
  667ERGO    R5 9040   9.268   7.136  10.318 -0.0049  0.0108 -0.0588
  667ERGO    C1 9041   9.272   7.059   9.944 -0.0479 -0.0957 -0.0376
  667ERGO    C2 9042   9.225   6.973   9.612  0.1146 -0.0831 -0.1967
  668ERGO   ROH 9043  15.649   2.587  10.866 -0.1285  0.1827  0.1065
  668ERGO    R1 9044  15.591   2.690  10.608 -0.2396  0.0291  0.0687
  668ERGO    R2 9045  15.789   2.749  10.424 -0.2960  0.2433  0.0764
  668ERGO    R3 9046  15.644   2.584  10.264 -0.0557 -0.0046  0.1054
  668ERGO    R4 9047  15.798   2.752  10.079 -0.3810  0.2756  0.0741
  668ERGO    R5 9048  15.582   2.722  10.078 -0.3383 -0.0969  0.1249
  668ERGO    C1 9049  15.667   2.599   9.727 -0.2049  0.0617  0.0998
  668ERGO    C2 9050  15.556   2.434   9.483  0.0160 -0.1165 -0.2104
  669ERGO   ROH 9051   5.944  10.935  11.104 -0.2397  0.0713  0.0660
  669ERGO    R1 9052   5.884  11.018  10.840 -0.0736  0.0042  0.0065
  669ERGO    R2 9053   6.056  11.176  10.691 -0.0096  0.0141  0.1017
  669ERGO    R3 9054   6.029  10.975  10.509  0.1697 -0.0230  0.1128
  669ERGO    R4 9055   6.048  11.218  10.348 -0.2360  0.0256  0.1057
  669ERGO    R5 9056   5.892  11.068  10.337 -0.0478 -0.1934  0.1825
  669ERGO    C1 9057   6.019  11.054   9.978 -0.1995 -0.0027  0.1184
  669ERGO    C2 9058   5.916  10.970   9.629 -0.3098  0.1905 -0.0279
  670ERGO   ROH 9059   3.850  15.742  10.660  0.0368  0.0577  0.0146
  670ERGO    R1 9060   3.703  15.777  10.420  0.0998  0.0828 -0.0209
  670ERGO    R2 9061   3.757  15.979  10.240  0.1820  0.0695 -0.0119
  670ERGO    R3 9062   3.775  15.773  10.064  0.1834  0.0634 -0.0041
  670ERGO    R4 9063   3.675  15.998   9.905 -0.0326 -0.0006  0.0355
  670ERGO    R5 9064   3.586  15.800   9.921  0.0803 -0.0478  0.1085
  670ERGO    C1 9065   3.645  15.815   9.544 -0.1562 -0.0472  0.0704
  670ERGO    C2 9066   3.541  15.810   9.181 -0.1105 -0.1163  0.0260
  671ERGO   ROH 9067   5.651  15.083  10.461 -0.1306 -0.1586  0.0064
  671ERGO    R1 9068   5.758  15.045  10.202 -0.0428 -0.1913  0.0481
  671ERGO    R2 9069   5.798  14.794  10.093 -0.2773 -0.2003 -0.0146
  671ERGO    R3 9070   5.648  14.893   9.890 -0.0605  0.0434 -0.0636
  671ERGO    R4 9071   5.863  14.744   9.757 -0.1503 -0.1635  0.0033
  671ERGO    R5 9072   5.807  14.952   9.721  0.1042 -0.0798  0.0411
  671ERGO    C1 9073   5.759  14.809   9.371  0.1271  0.0868 -0.0322
  671ERGO    C2 9074   5.636  14.643   9.096 -0.0869 -0.0744  0.0108
  672ERGO   ROH 9075   5.256   5.289  10.939 -0.0975 -0.2727  0.2224
  672ERGO    R1 9076   5.259   5.120  10.711 -0.0833 -0.1297  0.1147
  672ERGO    R2 9077   5.077   5.144  10.505 -0.0713  0.0010  0.1156
  672ERGO    R3 9078   5.301   5.162  10.352 -0.0607  0.0988  0.1429
  672ERGO    R4 9079   5.086   5.106  10.161 -0.0094 -0.0115  0.1191
  672ERGO    R5 9080   5.272   4.994  10.184  0.0395  0.0774  0.1475
  672ERGO    C1 9081   5.302   5.100   9.818  0.0364  0.0730  0.1468
  672ERGO    C2 9082   5.313   5.067   9.514 -0.0143  0.2267 -0.0741
  673ERGO   ROH 9083   1.303  12.349  10.876 -0.1693 -0.0424  0.1424
  673ERGO    R1 9084   1.402  12.328  10.612 -0.0390 -0.0027  0.1876
  673ERGO    R2 9085   1.299  12.148  10.428  0.1173 -0.0446  0.1419
  673ERGO    R3 9086   1.269  12.370  10.275  0.0971 -0.0562  0.1256
  673ERGO    R4 9087   1.259  12.148  10.085  0.0451 -0.0763  0.1496
  673ERGO    R5 9088   1.390  12.322  10.075  0.0538 -0.0829  0.1044
  673ERGO    C1 9089   1.207  12.357   9.742 -0.0158 -0.1055  0.1386
  673ERGO    C2 9090   1.259  12.163   9.421  0.0535  0.4307 -0.5112
  674ERGO   ROH 9091  16.954  12.981  11.027  0.3256 -0.1058 -0.1714
  674ERGO    R1 9092  16.821  12.868  10.805  0.2285 -0.0542 -0.1406
  674ERGO    R2 9093  16.603  12.989  10.685  0.0671 -0.1070  0.0850
  674ERGO    R3 9094  16.754  12.964  10.460 -0.0760  0.1101 -0.0384
  674ERGO    R4 9095  16.479  12.983  10.362 -0.1427  0.0935  0.1596
  674ERGO    R5 9096  16.622  12.827  10.315 -0.1245  0.1776 -0.0539
  674ERGO    C1 9097  16.549  12.957   9.964 -0.3991  0.4139  0.0873
  674ERGO    C2 9098  16.482  12.953   9.673 -0.1369 -0.0626  0.0908
  675loPI    C1 9099  10.226  14.965   6.062 -0.0548 -0.0219 -0.1820
  675loPI    C2 9100  10.413  15.260   5.867  0.1441 -0.0769 -0.0774
  675loPI    C3 9101  10.524  14.880   5.809  0.0699 -0.1095 -0.0084
  675loPI   PO4 9102  10.175  14.990   6.322 -0.2209  0.0368  0.0563
  675loPI   GL1 9103  10.392  15.026   6.776 -0.1180  0.1169 -0.0952
  675loPI   GL2 9104  10.399  14.570   6.714  0.4593  0.3664 -0.1870
  675loPI   C1A 9105  10.260  14.977   7.185  0.1872  0.1438  0.0689
  675loPI   C2A 9106  10.312  15.077   7.530  0.0707  0.0250 -0.0064
  675loPI   C3A 9107  10.523  15.028   7.980 -0.0586  0.1924 -0.3343
  675loPI   C4A 9108  10.513  14.981   8.432  0.0259  0.0543  0.2857
  675loPI   C5A 9109  10.609  14.818   8.817 -0.2661 -0.0455 -0.2023
  675loPI   C6A 9110  10.919  14.919   9.273  0.0954  0.3479 -0.3411
  675loPI   C1B 9111  10.367  14.535   7.069 -0.1829  0.1324  0.0083
  675loPI   C2B 9112  10.349  14.569   7.460  0.0316  0.1540  0.0924
  675loPI   C3B 9113  10.464  14.544   7.875  0.1629 -0.4378  0.0697
  675loPI   C4B 9114  10.437  14.418   8.303 -0.0076  0.1037 -0.2282
  676loPI    C1 9115   1.432   7.511   6.137  0.0084 -0.2879 -0.0325
  676loPI    C2 9116   1.566   7.741   5.838  0.0789 -0.0310  0.1931
  676loPI    C3 9117   1.370   7.402   5.757 -0.2017  0.2057 -0.1480
  676loPI   PO4 9118   1.324   7.734   6.326 -0.0101 -0.0892  0.0967
  676loPI   GL1 9119   1.295   7.802   6.743  0.5022  0.1672 -0.0388
  676loPI   GL2 9120   1.176   8.072   6.880  0.0465 -0.0145  0.0462
  676loPI   C1A 9121   1.577   7.690   7.030 -0.1040  0.2354 -0.1108
  676loPI   C2A 9122   1.653   7.705   7.528  0.1676 -0.3888  0.2413
  676loPI   C3A 9123   1.589   7.754   7.987  0.4050 -0.4412 -0.1633
  676loPI   C4A 9124   1.700   7.626   8.419  0.0409 -0.2033  0.2287
  676loPI   C5A 9125   1.600   7.848   8.878 -0.2354 -0.2374  0.1478
  676loPI   C6A 9126   2.020   7.942   9.049  0.0399  0.2041  0.1485
  676loPI   C1B 9127   1.118   7.891   7.366  0.0207  0.1865 -0.0097
  676loPI   C2B 9128   1.168   7.958   7.762 -0.1998  0.3567 -0.0284
  676loPI   C3B 9129   1.098   7.818   8.201 -0.0295 -0.1756  0.2705
  676loPI   C4B 9130   1.165   7.761   8.556  0.2651  0.0179 -0.0650
  677loPI    C1 9131   0.563   2.384   6.179  0.1156  0.2856 -0.0156
  677loPI    C2 9132   0.714   2.725   6.036 -0.0334  0.3231 -0.0854
  677loPI    C3 9133   0.920   2.384   5.999  0.1472  0.4162  0.0458
  677loPI   PO4 9134   0.566   2.367   6.461  0.1861 -0.0150  0.0160
  677loPI   GL1 9135   0.790   2.436   6.763 -0.1275  0.0190  0.1288
  677loPI   GL2 9136   1.055   2.181   6.965  0.0240 -0.0450  0.1565
  677loPI   C1A 9137   0.586   2.377   7.131  0.1963  0.0743 -0.0739
  677loPI   C2A 9138   0.551   2.326   7.611  0.0103 -0.1203 -0.0459
  677loPI   C3A 9139   0.726   2.357   8.025  0.0003  0.3266 -0.2140
  677loPI   C4A 9140   1.135   2.383   8.245 -0.2113 -0.0627 -0.0826
  677loPI   C5A 9141   1.491   2.665   8.428 -0.1703  0.2588  0.0972
  677loPI   C6A 9142   1.736   2.948   8.653  0.0262 -0.0704 -0.1743
  677loPI   C1B 9143   0.969   2.096   7.397  0.1125 -0.1654 -0.0665
  677loPI   C2B 9144   1.016   1.977   7.838  0.0372  0.0073 -0.0345
  677loPI   C3B 9145   0.974   1.933   8.193 -0.0694 -0.0458 -0.0831
  677loPI   C4B 9146   0.821   2.104   8.539 -0.1072 -0.0795  0.2915
  678loPI    C1 9147   9.293   6.273   6.165  0.3126 -0.0562  0.0417
  678loPI    C2 9148   9.171   5.948   6.364 -0.1051  0.0242 -0.0730
  678loPI    C3 9149   8.940   6.105   6.077  0.1662  0.3287 -0.1303
  678loPI   PO4 9150   9.363   6.409   6.330  0.0176  0.1657 -0.0888
  678loPI   GL1 9151   9.253   6.412   6.743  0.2060  0.1540  0.0355
  678loPI   GL2 9152   9.361   6.076   6.806  0.0369  0.0161  0.0065
  678loPI   C1A 9153   8.987   6.447   7.135  0.0475  0.0934 -0.0962
  678loPI   C2A 9154   9.098   6.538   7.471 -0.1609  0.1520  0.1574
  678loPI   C3A 9155   9.119   6.539   7.854 -0.0102 -0.1497  0.0125
  678loPI   C4A 9156   9.065   6.395   8.198 -0.0729 -0.0741  0.2443
  678loPI   C5A 9157   8.988   6.373   8.569 -0.0713 -0.1203 -0.2458
  678loPI   C6A 9158   8.942   6.173   9.010 -0.0886 -0.1982  0.0223
  678loPI   C1B 9159   9.532   6.237   7.203  0.0924  0.1830  0.0645
  678loPI   C2B 9160   9.477   6.268   7.613 -0.0471  0.0125 -0.0567
  678loPI   C3B 9161   9.538   6.165   8.034  0.0098 -0.1611 -0.2161
  678loPI   C4B 9162   9.436   6.243   8.490 -0.1356 -0.0827  0.0664
  679loPI    C1 9163   1.147  14.701   6.046  0.2781 -0.0903 -0.0713
  679loPI    C2 9164   1.420  14.861   5.800  0.2623 -0.0126 -0.0388
  679loPI    C3 9165   1.124  14.636   5.652  0.2356  0.0586 -0.0943
  679loPI   PO4 9166   1.331  14.636   6.266 -0.0795  0.1248 -0.0148
  679loPI   GL1 9167   1.505  14.858   6.691 -0.3090  0.3461  0.2812
  679loPI   GL2 9168   1.654  14.885   6.965  0.0045  0.0401  0.2726
  679loPI   C1A 9169   1.205  14.636   7.088  0.1324  0.2872 -0.0918
  679loPI   C2A 9170   0.977  14.634   7.342 -0.0038 -0.2844 -0.0935
  679loPI   C3A 9171   1.032  14.664   7.739 -0.1941  0.2017 -0.4775
  679loPI   C4A 9172   0.955  14.802   8.131  0.1044  0.2855 -0.0037
  679loPI   C5A 9173   0.950  14.601   8.513 -0.0720  0.0393  0.1268
  679loPI   C6A 9174   1.273  14.590   8.916 -0.0578 -0.0358 -0.3932
  679loPI   C1B 9175   1.566  14.889   7.325 -0.2184 -0.0549 -0.1150
  679loPI   C2B 9176   1.471  14.872   7.781 -0.0534 -0.0549  0.1129
  679loPI   C3B 9177   1.440  14.849   8.173  0.1641 -0.1034 -0.0804
  679loPI   C4B 9178   1.327  14.947   8.545  0.0542 -0.0499 -0.0803
  680loPI    C1 9179  16.725   6.221   6.391  0.2249  0.2767 -0.3282
  680loPI    C2 9180  16.717   6.496   6.682 -0.0333 -0.1594  0.0933
  680loPI    C3 9181  16.483   6.538   6.360 -0.0829  0.1022  0.1610
  680loPI   PO4 9182  16.718   6.000   6.560 -0.2750  0.0154 -0.1223
  680loPI   GL1 9183  16.686   5.984   6.990  0.3143  0.1424 -0.0789
  680loPI   GL2 9184  16.724   5.740   7.181  0.1184 -0.1349 -0.0168
  680loPI   C1A 9185  16.546   6.164   7.340  0.2673  0.0898 -0.0129
  680loPI   C2A 9186  16.575   6.100   7.796 -0.0383 -0.0697  0.2617
  680loPI   C3A 9187  16.584   6.166   8.263 -0.1825  0.0595 -0.1611
  680loPI   C4A 9188  16.383   6.234   8.630 -0.0461  0.0146  0.0347
  680loPI   C5A 9189  16.206   6.173   8.991  0.2235  0.0288 -0.2153
  680loPI   C6A 9190  16.408   6.025   9.376 -0.1356 -0.1290 -0.0643
  680loPI   C1B 9191  16.693   5.655   7.681  0.0369 -0.2310 -0.1308
  680loPI   C2B 9192  16.582   5.672   8.124 -0.0452 -0.2134 -0.1698
  680loPI   C3B 9193  16.559   5.719   8.602 -0.0132 -0.1169  0.1261
  680loPI   C4B 9194  16.741   5.984   8.915  0.0394 -0.1145  0.1482
  681loPI    C1 9195  10.058   0.372   6.141  0.0867 -0.2180  0.0949
  681loPI    C2 9196  10.111   0.293   5.752 -0.1307  0.0131  0.0157
  681loPI    C3 9197  10.080   0.672   5.877  0.0167 -0.0566  0.2705
  681loPI   PO4 9198  10.288   0.188   6.227  0.1117 -0.2123  0.0403
  681loPI   GL1 9199  10.357   0.100   6.613  0.3718  0.2496  0.0581
  681loPI   GL2 9200  10.289   0.403   6.726 -0.0355  0.0528  0.2123
  681loPI   C1A 9201  10.569  -0.029   6.936  0.2532  0.1048  0.2739
  681loPI   C2A 9202  10.629   0.001   7.414  0.2474 -0.2329  0.5058
  681loPI   C3A 9203  10.674  -0.011   7.819  0.1051 -0.1603  0.0187
  681loPI   C4A 9204  10.683  -0.111   8.128  0.5674  0.0229  0.0944
  681loPI   C5A 9205  10.469  -0.204   8.511 -0.1313 -0.1414  0.3759
  681loPI   C6A 9206  10.439  -0.303   8.978  0.0078 -0.3548  0.0339
  681loPI   C1B 9207  10.184   0.247   7.137  0.0247 -0.1306  0.0769
  681loPI   C2B 9208  10.180   0.237   7.504 -0.1435  0.2695 -0.3285
  681loPI   C3B 9209  10.170   0.362   7.910  0.0915  0.0455 -0.0102
  681loPI   C4B 9210  10.105   0.346   8.356  0.1224 -0.3295 -0.0914
  682loPI    C1 9211  13.651  13.371   6.307 -0.0605  0.2087 -0.1467
  682loPI    C2 9212  13.429  13.143   6.550  0.3125  0.0719  0.0740
  682loPI    C3 9213  13.463  13.049   6.162  0.0461  0.0549  0.0527
  682loPI   PO4 9214  13.881  13.419   6.528  0.1636 -0.1847  0.2330
  682loPI   GL1 9215  13.619  13.564   6.809 -0.0983 -0.1535 -0.1853
  682loPI   GL2 9216  13.898  13.706   6.958 -0.1776 -0.0531  0.1723
  682loPI   C1A 9217  13.456  13.431   7.203  0.1207 -0.0938 -0.1591
  682loPI   C2A 9218  13.464  13.476   7.706  0.2617  0.1285 -0.3357
  682loPI   C3A 9219  13.462  13.376   8.082 -0.0977  0.2376  0.1280
  682loPI   C4A 9220  13.497  13.327   8.562 -0.1965 -0.1717 -0.1390
  682loPI   C5A 9221  13.654  13.306   8.905  0.0016  0.0877 -0.2226
  682loPI   C6A 9222  13.796  13.697   9.178  0.1815 -0.1245 -0.1440
  682loPI   C1B 9223  13.857  13.682   7.411  0.4767  0.2291 -0.2709
  682loPI   C2B 9224  13.874  13.682   7.812 -0.1996  0.0338  0.0586
  682loPI   C3B 9225  13.968  13.684   8.166 -0.1140  0.0783 -0.0138
  682loPI   C4B 9226  13.922  13.877   8.591 -0.0486  0.1565  0.2180
  683loPI    C1 9227   1.402   9.325   6.107  0.0904 -0.1967  0.1155
  683loPI    C2 9228   1.083   9.094   6.042 -0.1206  0.1637 -0.1704
  683loPI    C3 9229   1.384   9.098   5.778  0.0353 -0.0299  0.0016
  683loPI   PO4 9230   1.514   9.311   6.301 -0.1113 -0.0514  0.0975
  683loPI   GL1 9231   1.661   9.402   6.772 -0.1603 -0.0126  0.0789
  683loPI   GL2 9232   1.775   9.663   6.626  0.2140  0.2233 -0.2446
  683loPI   C1A 9233   1.623   9.268   7.158  0.0365  0.1798 -0.0499
  683loPI   C2A 9234   1.632   9.310   7.595  0.1152 -0.1868 -0.2243
  683loPI   C3A 9235   1.529   9.267   8.031  0.1046 -0.1780  0.0261
  683loPI   C4A 9236   1.498   9.108   8.453 -0.1262 -0.3207 -0.2264
  683loPI   C5A 9237   1.223   9.122   8.811 -0.1123 -0.0528  0.1874
  683loPI   C6A 9238   1.324   8.892   9.143 -0.2270 -0.2768 -0.0930
  683loPI   C1B 9239   1.985   9.552   7.115 -0.2514  0.1099  0.2290
  683loPI   C2B 9240   2.076   9.607   7.499  0.1026  0.1524 -0.3338
  683loPI   C3B 9241   1.994   9.622   7.904  0.1142  0.2333 -0.3417
  683loPI   C4B 9242   1.984   9.964   8.196 -0.0606 -0.0685 -0.2789
  684loPI    C1 9243  15.525   8.171   6.339 -0.3303 -0.0062 -0.0839
  684loPI    C2 9244  15.792   8.426   6.492 -0.2415 -0.1594  0.0201
  684loPI    C3 9245  15.573   8.531   6.174 -0.2465  0.0667  0.0967
  684loPI   PO4 9246  15.408   8.087   6.524  0.1303 -0.0744  0.0046
  684loPI   GL1 9247  15.757   8.064   6.889 -0.0915 -0.0069 -0.0984
  684loPI   GL2 9248  15.423   8.296   6.931  0.2076  0.0487 -0.0727
  684loPI   C1A 9249  15.795   8.078   7.323 -0.0208 -0.1191  0.1110
  684loPI   C2A 9250  15.935   8.056   7.735 -0.2843 -0.0625  0.0147
  684loPI   C3A 9251  15.982   7.986   8.213 -0.0840  0.0774  0.1687
  684loPI   C4A 9252  15.963   7.963   8.684 -0.3020 -0.1202  0.1466
  684loPI   C5A 9253  16.052   8.174   9.072 -0.0181 -0.0927 -0.0825
  684loPI   C6A 9254  15.742   8.471   8.966 -0.1533  0.0678 -0.1247
  684loPI   C1B 9255  15.339   8.338   7.388  0.1077 -0.0444  0.2167
  684loPI   C2B 9256  15.461   8.324   7.705 -0.1406  0.0518  0.2999
  684loPI   C3B 9257  15.477   8.271   8.179 -0.1433 -0.2758  0.0093
  684loPI   C4B 9258  15.402   8.145   8.544  0.1071  0.0997 -0.1749
  685loPI    C1 9259  15.806  11.185   6.520  0.0346 -0.3117 -0.1031
  685loPI    C2 9260  15.960  11.271   6.160 -0.0868 -0.1196 -0.1109
  685loPI    C3 9261  15.571  11.182   6.196 -0.0943 -0.0495 -0.0151
  685loPI   PO4 9262  15.833  11.362   6.702  0.2458 -0.1865 -0.2727
  685loPI   GL1 9263  15.534  11.506   6.981 -0.1533 -0.1787 -0.3502
  685loPI   GL2 9264  15.709  11.245   7.149 -0.0256 -0.2745  0.3071
  685loPI   C1A 9265  15.425  11.457   7.476  0.0971 -0.3386  0.1073
  685loPI   C2A 9266  15.699  11.293   7.792 -0.1526 -0.2276  0.0674
  685loPI   C3A 9267  15.801  11.245   8.189  0.0311  0.1912 -0.0135
  685loPI   C4A 9268  15.714  11.310   8.575 -0.2694 -0.1575  0.0592
  685loPI   C5A 9269  15.843  11.505   9.015  0.0520 -0.1784  0.0023
  685loPI   C6A 9270  16.154  11.756   9.207 -0.0275 -0.0037 -0.1772
  685loPI   C1B 9271  15.511  10.936   7.486  0.1684 -0.1611  0.1255
  685loPI   C2B 9272  15.289  10.886   7.929  0.1786 -0.0254  0.3798
  685loPI   C3B 9273  15.373  10.900   8.409 -0.1251  0.1113  0.4120
  685loPI   C4B 9274  15.401  11.020   8.885 -0.1442  0.0788  0.1096
  686loPI    C1 9275  12.767  15.745   6.067 -0.1460 -0.1334 -0.0930
  686loPI    C2 9276  12.829  16.111   5.920  0.0498 -0.0193  0.2603
  686loPI    C3 9277  12.925  15.789   5.703  0.0749  0.1391  0.0320
  686loPI   PO4 9278  12.515  15.867   6.226  0.1673 -0.1409 -0.0034
  686loPI   GL1 9279  12.483  16.145   6.574 -0.0571  0.2042  0.0807
  686loPI   GL2 9280  12.659  16.341   6.574  0.1735 -0.1061  0.0090
  686loPI   C1A 9281  12.757  16.186   7.075  0.0393 -0.0727  0.0881
  686loPI   C2A 9282  12.775  16.303   7.459 -0.0490  0.0735 -0.0990
  686loPI   C3A 9283  12.776  16.082   7.910 -0.0611  0.1453 -0.1940
  686loPI   C4A 9284  12.821  16.118   8.316  0.0620 -0.2075  0.0510
  686loPI   C5A 9285  12.614  16.179   8.670 -0.2396  0.0040  0.5689
  686loPI   C6A 9286  12.360  16.473   8.863 -0.0346  0.0198 -0.1503
  686loPI   C1B 9287  12.689  16.652   6.879 -0.0753  0.1872  0.1644
  686loPI   C2B 9288  12.809  16.754   7.270 -0.1751 -0.0209 -0.1380
  686loPI   C3B 9289  12.873  16.732   7.753  0.0027  0.0408 -0.0991
  686loPI   C4B 9290  12.743  16.573   8.125  0.1716  0.1034  0.0736
  687loPI    C1 9291  10.293   5.785   6.008 -0.0581  0.1639  0.1343
  687loPI    C2 9292  10.209   6.048   5.719 -0.0344  0.1009  0.0696
  687loPI    C3 9293  10.590   5.976   5.819 -0.0327 -0.0405 -0.0366
  687loPI   PO4 9294  10.116   5.889   6.204  0.0001 -0.2097 -0.2177
  687loPI   GL1 9295  10.278   6.234   6.614  0.0881 -0.1001 -0.2458
  687loPI   GL2 9296  10.501   6.304   6.809 -0.1760  0.2527  0.1072
  687loPI   C1A 9297  10.067   6.413   7.002  0.0197  0.4580 -0.3336
  687loPI   C2A 9298  10.006   6.333   7.464  0.3081 -0.0838 -0.0979
  687loPI   C3A 9299   9.937   6.414   7.835  0.1098  0.2210  0.4773
  687loPI   C4A 9300   9.956   6.405   8.300  0.1812 -0.1874 -0.3202
  687loPI   C5A 9301   9.957   6.206   8.787  0.3041  0.0170 -0.0586
  687loPI   C6A 9302  10.038   5.886   8.987 -0.0962  0.0019  0.2755
  687loPI   C1B 9303  10.387   6.122   7.213 -0.1738  0.1428 -0.3393
  687loPI   C2B 9304  10.333   6.036   7.678  0.2645 -0.0084  0.0347
  687loPI   C3B 9305  10.253   6.023   8.072 -0.0386  0.0664 -0.1329
  687loPI   C4B 9306  10.386   6.030   8.519 -0.2230 -0.0729  0.0423
  688loPI    C1 9307   6.841  10.709   6.254  0.0678 -0.1216 -0.2314
  688loPI    C2 9308   6.502  10.824   6.076 -0.0667 -0.0791  0.0473
  688loPI    C3 9309   6.666  10.471   5.984 -0.2571 -0.1579  0.0050
  688loPI   PO4 9310   6.781  10.763   6.598 -0.2227  0.4121 -0.1009
  688loPI   GL1 9311   6.541  10.687   7.004 -0.3294  0.6139  0.1185
  688loPI   GL2 9312   6.290  10.725   7.038 -0.0408 -0.1745  0.0882
  688loPI   C1A 9313   6.741  10.885   7.326  0.0941  0.4053 -0.0045
  688loPI   C2A 9314   6.791  10.945   7.739 -0.1917 -0.2532  0.2610
  688loPI   C3A 9315   6.959  11.129   8.137  0.1218 -0.0033 -0.0137
  688loPI   C4A 9316   6.899  11.365   8.329  0.0077  0.1876  0.0938
  688loPI   C5A 9317   6.936  11.406   8.715  0.0914 -0.3276  0.1970
  688loPI   C6A 9318   6.694  11.578   9.084  0.3709 -0.1335 -0.1143
  688loPI   C1B 9319   6.294  10.843   7.500  0.0858 -0.0549  0.1615
  688loPI   C2B 9320   6.378  11.055   7.984  0.0799 -0.0946  0.0122
  688loPI   C3B 9321   6.065  11.305   8.062 -0.2523  0.0411 -0.0322
  688loPI   C4B 9322   6.006  11.423   8.370  0.2035 -0.0158  0.2302
  689loPI    C1 9323   8.598   5.679   6.185  0.2174 -0.1779  0.2774
  689loPI    C2 9324   8.825   5.682   5.856 -0.0695  0.2669  0.0741
  689loPI    C3 9325   8.630   5.349   5.961  0.1676  0.0686 -0.1010
  689loPI   PO4 9326   8.730   5.753   6.358 -0.3192 -0.1722 -0.0911
  689loPI   GL1 9327   8.912   5.630   6.685  0.0663 -0.0466 -0.0300
  689loPI   GL2 9328   8.803   5.362   6.669 -0.2547  0.1569 -0.1297
  689loPI   C1A 9329   8.965   5.872   7.055  0.2968 -0.0735  0.0998
  689loPI   C2A 9330   9.033   5.980   7.497 -0.1131 -0.1845  0.1298
  689loPI   C3A 9331   8.975   5.950   7.937 -0.1163 -0.1361 -0.0380
  689loPI   C4A 9332   9.061   5.860   8.386 -0.1594  0.0278  0.0431
  689loPI   C5A 9333   8.794   5.714   8.725 -0.0887  0.0533  0.0410
  689loPI   C6A 9334   8.907   5.360   9.003  0.4226  0.2500 -0.2348
  689loPI   C1B 9335   8.971   5.286   7.145  0.1782 -0.0268  0.0276
  689loPI   C2B 9336   8.997   5.363   7.611  0.1660 -0.0410 -0.0855
  689loPI   C3B 9337   8.915   5.380   8.069  0.3028  0.1002 -0.0708
  689loPI   C4B 9338   9.007   5.344   8.415  0.1849  0.3155 -0.3463
  690loPI    C1 9339   1.849   7.173   6.295 -0.0442 -0.1457 -0.0520
  690loPI    C2 9340   1.885   6.865   6.042 -0.2498 -0.2319  0.0210
  690loPI    C3 9341   1.853   7.238   5.900 -0.2036 -0.2639 -0.0744
  690loPI   PO4 9342   1.991   7.037   6.499  0.1349  0.1469 -0.4065
  690loPI   GL1 9343   2.059   6.816   6.887  0.0201  0.0347  0.0776
  690loPI   GL2 9344   1.807   6.579   6.908 -0.2725 -0.1448 -0.0458
  690loPI   C1A 9345   2.043   6.886   7.309  0.0421 -0.0347 -0.0114
  690loPI   C2A 9346   2.115   6.923   7.795 -0.1589  0.4208 -0.0549
  690loPI   C3A 9347   2.177   6.924   8.268 -0.0030 -0.0070 -0.1579
  690loPI   C4A 9348   2.167   7.021   8.654 -0.2185  0.0558  0.2514
  690loPI   C5A 9349   2.380   6.744   8.964  0.0889 -0.2834 -0.1599
  690loPI   C6A 9350   2.173   6.487   9.220  0.4575 -0.0228  0.0156
  690loPI   C1B 9351   1.644   6.608   7.200 -0.1003 -0.2187  0.0782
  690loPI   C2B 9352   1.638   6.738   7.572  0.0931 -0.2296  0.0140
  690loPI   C3B 9353   1.696   6.670   7.998 -0.2925 -0.0814  0.2672
  690loPI   C4B 9354   1.762   6.636   8.452  0.0795 -0.0694  0.0005
  691loPI    C1 9355   0.924   6.887   6.410  0.0694 -0.0271 -0.0760
  691loPI    C2 9356   1.088   7.156   6.163 -0.1155  0.0992 -0.0636
  691loPI    C3 9357   0.920   6.824   6.015  0.0371  0.0305 -0.0850
  691loPI   PO4 9358   1.092   6.839   6.633  0.1174  0.0694  0.3370
  691loPI   GL1 9359   1.358   6.749   6.863 -0.0042 -0.2884 -0.1064
  691loPI   GL2 9360   1.596   7.014   6.905 -0.0154 -0.0004 -0.3374
  691loPI   C1A 9361   1.227   6.880   7.245  0.2058 -0.3335  0.0187
  691loPI   C2A 9362   1.176   6.910   7.672 -0.0418 -0.2086  0.1932
  691loPI   C3A 9363   1.259   6.885   8.104  0.0343  0.0514  0.0397
  691loPI   C4A 9364   1.184   6.792   8.542 -0.0335 -0.3494 -0.2048
  691loPI   C5A 9365   1.369   6.688   8.823  0.0722 -0.1986  0.1656
  691loPI   C6A 9366   1.797   6.713   8.940  0.4043 -0.1988 -0.0073
  691loPI   C1B 9367   1.594   7.199   7.279 -0.0564 -0.1093 -0.0863
  691loPI   C2B 9368   1.608   7.216   7.737  0.1937 -0.0804  0.1065
  691loPI   C3B 9369   1.734   7.168   8.215 -0.1387 -0.3951  0.1032
  691loPI   C4B 9370   1.576   7.108   8.616  0.5569 -0.1115  0.0196
  692loPI    C1 9371  10.836   0.397   6.159  0.0883 -0.1544 -0.0992
  692loPI    C2 9372  10.563   0.558   5.914  0.0048 -0.1106  0.0218
  692loPI    C3 9373  10.750   0.219   5.810  0.0353 -0.0444 -0.1426
  692loPI   PO4 9374  10.720   0.379   6.389 -0.0203 -0.2447 -0.0263
  692loPI   GL1 9375  10.931   0.355   6.717 -0.2067 -0.1187 -0.1354
  692loPI   GL2 9376  11.090   0.614   6.842  0.2339 -0.0732  0.1165
  692loPI   C1A 9377  11.010   0.180   7.114  0.0235  0.0575 -0.2134
  692loPI   C2A 9378  11.141   0.162   7.603 -0.1270  0.3072 -0.0129
  692loPI   C3A 9379  11.013   0.261   7.975  0.0295 -0.0533  0.0848
  692loPI   C4A 9380  11.127   0.249   8.452  0.1391  0.0656  0.0837
  692loPI   C5A 9381  11.091   0.506   8.780  0.2208 -0.1249  0.1213
  692loPI   C6A 9382  10.853   0.876   8.902 -0.0577 -0.1143 -0.0076
  692loPI   C1B 9383  11.109   0.679   7.271 -0.2280 -0.0414 -0.0495
  692loPI   C2B 9384  11.036   0.669   7.646 -0.0024  0.0972 -0.1354
  692loPI   C3B 9385  11.128   0.810   8.002 -0.1127 -0.1228  0.0515
  692loPI   C4B 9386  10.956   0.830   8.396 -0.2485 -0.0400  0.1519
  693loPI    C1 9387  12.918   5.817   5.934  0.0053 -0.1275  0.0917
  693loPI    C2 9388  12.958   5.444   5.795  0.1032 -0.0835  0.0001
  693loPI    C3 9389  12.995   5.755   5.547 -0.1721 -0.0177  0.0377
  693loPI   PO4 9390  12.653   5.819   6.068 -0.0813 -0.3598 -0.1204
  693loPI   GL1 9391  12.750   5.876   6.456  0.1178 -0.1797  0.4397
  693loPI   GL2 9392  13.110   5.963   6.575  0.1180 -0.0226  0.1760
  693loPI   C1A 9393  12.792   5.687   6.863 -0.1697  0.2102 -0.0404
  693loPI   C2A 9394  12.737   5.620   7.332 -0.3008 -0.0280 -0.1074
  693loPI   C3A 9395  12.698   5.591   7.821  0.1322  0.0559  0.2459
  693loPI   C4A 9396  12.718   5.642   8.239  0.0019 -0.1151  0.0362
  693loPI   C5A 9397  12.785   5.590   8.702 -0.1140  0.1025  0.0877
  693loPI   C6A 9398  12.432   5.368   8.948 -0.0497 -0.0549  0.3074
  693loPI   C1B 9399  13.156   5.967   6.970 -0.2261  0.1936 -0.2036
  693loPI   C2B 9400  13.202   5.805   7.374 -0.0386  0.1396  0.1376
  693loPI   C3B 9401  13.168   5.797   7.935 -0.0112 -0.0826  0.1570
  693loPI   C4B 9402  13.173   5.841   8.454 -0.0568 -0.1608 -0.1651
  694loPI    C1 9403   4.633  10.023   6.384  0.0005  0.0099 -0.2386
  694loPI    C2 9404   4.454  10.343   6.225 -0.0459  0.0218 -0.1630
  694loPI    C3 9405   4.844  10.355   6.312 -0.1023  0.1482  0.0804
  694loPI   PO4 9406   4.474  10.012   6.658 -0.2138  0.2381 -0.4538
  694loPI   GL1 9407   4.376  10.115   7.032 -0.0543  0.1969 -0.0562
  694loPI   GL2 9408   4.293   9.880   7.136  0.0547  0.1042 -0.2960
  694loPI   C1A 9409   4.245  10.374   7.357  0.0947  0.0371 -0.1301
  694loPI   C2A 9410   4.188  10.539   7.747  0.0111  0.0999 -0.1122
  694loPI   C3A 9411   4.141  10.547   8.161  0.1920  0.0130  0.0025
  694loPI   C4A 9412   4.188  10.686   8.600 -0.0471  0.0423 -0.1058
  694loPI   C5A 9413   4.488  10.731   8.902 -0.1774 -0.3191  0.1373
  694loPI   C6A 9414   4.705  11.118   8.932  0.0503  0.1515 -0.1734
  694loPI   C1B 9415   4.155   9.976   7.602 -0.1741  0.0014 -0.1455
  694loPI   C2B 9416   4.117  10.081   8.031  0.0337 -0.2720 -0.0931
  694loPI   C3B 9417   4.254  10.162   8.416  0.0299  0.0309 -0.0173
  694loPI   C4B 9418   4.461  10.227   8.878  0.0072  0.0436  0.2317
  695loPI    C1 9419   8.215   2.059   6.131  0.0379 -0.1649  0.0658
  695loPI    C2 9420   8.067   2.431   6.127 -0.0242 -0.1885  0.1396
  695loPI    C3 9421   7.822   2.117   6.084  0.0172 -0.2242  0.1633
  695loPI   PO4 9422   8.301   2.006   6.416  0.1605 -0.2051 -0.2065
  695loPI   GL1 9423   8.317   1.998   6.801  0.1203  0.3367 -0.0820
  695loPI   GL2 9424   8.211   1.650   6.845  0.2272  0.1261  0.2708
  695loPI   C1A 9425   8.373   1.977   7.177 -0.1705  0.0339  0.1279
  695loPI   C2A 9426   8.477   2.038   7.555 -0.2275  0.0956 -0.1666
  695loPI   C3A 9427   8.495   1.944   7.907  0.2489 -0.1770 -0.0335
  695loPI   C4A 9428   8.494   1.838   8.326 -0.1000  0.0252 -0.1029
  695loPI   C5A 9429   8.531   1.744   8.699 -0.0321  0.2285 -0.3129
  695loPI   C6A 9430   8.305   1.463   9.034  0.0178 -0.0479  0.3362
  695loPI   C1B 9431   8.244   1.357   7.068 -0.2181 -0.1725 -0.0014
  695loPI   C2B 9432   8.344   1.389   7.492  0.1646 -0.1758 -0.1018
  695loPI   C3B 9433   8.417   1.331   7.959 -0.0268 -0.4306 -0.1296
  695loPI   C4B 9434   8.427   1.313   8.451  0.0925 -0.0986  0.1048
  696loPI    C1 9435   8.953   9.498   6.267 -0.0166  0.2851  0.1779
  696loPI    C2 9436   8.964   9.167   6.491 -0.0701  0.0937 -0.0967
  696loPI    C3 9437   8.615   9.348   6.420 -0.0848  0.0181 -0.2194
  696loPI   PO4 9438   9.148   9.650   6.397 -0.0403 -0.3045 -0.0172
  696loPI   GL1 9439   9.105   9.510   6.875  0.1271  0.1913 -0.0025
  696loPI   GL2 9440   8.808   9.442   6.956 -0.0048 -0.0477 -0.0218
  696loPI   C1A 9441   9.283   9.702   7.276  0.3381 -0.1795  0.2189
  696loPI   C2A 9442   9.315   9.658   7.716  0.2641  0.2912  0.1044
  696loPI   C3A 9443   9.405   9.644   8.121 -0.0933 -0.1672  0.1421
  696loPI   C4A 9444   9.399   9.597   8.545 -0.1695  0.1817  0.0482
  696loPI   C5A 9445   9.710   9.450   8.760  0.3375 -0.0444  0.0491
  696loPI   C6A 9446  10.143   9.405   8.787 -0.2059 -0.0101  0.2016
  696loPI   C1B 9447   8.917   9.445   7.436 -0.0674 -0.0611  0.2107
  696loPI   C2B 9448   8.968   9.359   7.825  0.0938 -0.1329 -0.0412
  696loPI   C3B 9449   8.961   9.326   8.198  0.0273 -0.1558 -0.1404
  696loPI   C4B 9450   8.938   9.392   8.649  0.1696  0.0460 -0.0859
  697loPI    C1 9451  13.446   5.764   6.238  0.0031 -0.2475 -0.0786
  697loPI    C2 9452  13.738   5.822   5.972  0.1669  0.0674  0.1638
  697loPI    C3 9453  13.398   5.646   5.859  0.2855  0.0746 -0.2200
  697loPI   PO4 9454  13.657   5.823   6.469 -0.0237 -0.1040 -0.2044
  697loPI   GL1 9455  13.481   5.668   6.776 -0.1744 -0.0425 -0.0926
  697loPI   GL2 9456  13.287   5.421   6.709  0.5042  0.0444  0.1930
  697loPI   C1A 9457  13.643   5.444   7.199 -0.2337 -0.0405 -0.2509
  697loPI   C2A 9458  13.594   5.416   7.619  0.1516 -0.0733  0.2756
  697loPI   C3A 9459  13.482   5.447   7.966 -0.0638 -0.0268 -0.0752
  697loPI   C4A 9460  13.639   5.584   8.273  0.1617  0.0442 -0.0825
  697loPI   C5A 9461  13.636   5.888   8.644  0.1402  0.1743 -0.2138
  697loPI   C6A 9462  13.862   6.239   8.803 -0.1977 -0.0553 -0.2914
  697loPI   C1B 9463  13.155   5.412   7.053  0.0220  0.0556 -0.1038
  697loPI   C2B 9464  13.105   5.311   7.511 -0.0333 -0.0566  0.1243
  697loPI   C3B 9465  13.024   5.295   7.992  0.1219 -0.0493  0.3355
  697loPI   C4B 9466  13.125   5.329   8.469 -0.3558  0.2352 -0.0314
  698loPI    C1 9467   4.573   8.958   6.205 -0.0306  0.4311  0.1718
  698loPI    C2 9468   4.857   9.103   5.963 -0.2028  0.2066 -0.1734
  698loPI    C3 9469   4.549   8.899   5.810 -0.2558 -0.0428  0.2492
  698loPI   PO4 9470   4.444   9.048   6.367 -0.3813 -0.2962  0.0139
  698loPI   GL1 9471   4.287   9.111   6.791  0.0310 -0.1073 -0.2210
  698loPI   GL2 9472   4.083   9.368   7.028 -0.1138  0.2150 -0.1604
  698loPI   C1A 9473   4.155   8.933   7.208 -0.2725  0.1146 -0.1093
  698loPI   C2A 9474   4.169   9.000   7.709 -0.2848 -0.0989  0.0206
  698loPI   C3A 9475   4.191   9.037   8.152  0.0306 -0.0325  0.2586
  698loPI   C4A 9476   4.319   9.120   8.525 -0.1417  0.2429 -0.0565
  698loPI   C5A 9477   4.420   8.899   8.876  0.4725  0.2102 -0.1104
  698loPI   C6A 9478   4.664   8.652   9.114 -0.1122  0.0980  0.3027
  698loPI   C1B 9479   4.182   9.469   7.406  0.0039  0.1407 -0.0820
  698loPI   C2B 9480   4.163   9.502   7.791  0.1147 -0.0470  0.1368
  698loPI   C3B 9481   4.248   9.628   8.192 -0.3311 -0.0774 -0.0427
  698loPI   C4B 9482   4.407   9.709   8.559 -0.1040 -0.0745  0.0419
  699loPI    C1 9483   9.734   8.229   6.151  0.2780  0.2393 -0.0967
  699loPI    C2 9484   9.389   8.214   5.950  0.1011 -0.1349  0.2213
  699loPI    C3 9485   9.652   8.505   5.873 -0.2705  0.1417 -0.0431
  699loPI   PO4 9486   9.591   8.140   6.405  0.0174  0.0371  0.0847
  699loPI   GL1 9487   9.452   8.373   6.785 -0.1211 -0.0811 -0.0354
  699loPI   GL2 9488   9.648   8.153   6.939 -0.2259 -0.1909 -0.1872
  699loPI   C1A 9489   9.311   8.546   7.128  0.2401  0.3470  0.0671
  699loPI   C2A 9490   9.359   8.576   7.543  0.0934  0.0562  0.1341
  699loPI   C3A 9491   9.305   8.558   7.987 -0.2209  0.1394 -0.1693
  699loPI   C4A 9492   9.315   8.593   8.523  0.3901  0.1384 -0.2708
  699loPI   C5A 9493   9.401   8.426   8.900  0.0004 -0.1244  0.0139
  699loPI   C6A 9494   9.377   8.486   9.352 -0.1047  0.0239 -0.3070
  699loPI   C1B 9495   9.717   8.188   7.305 -0.0475 -0.2209  0.0002
  699loPI   C2B 9496   9.754   8.277   7.754  0.1820  0.4282 -0.1962
  699loPI   C3B 9497   9.686   8.327   8.225  0.2599  0.0795  0.1158
  699loPI   C4B 9498   9.663   8.122   8.581  0.0550  0.1415  0.0177
  700loPI    C1 9499   0.690   1.935   6.027 -0.0347  0.0249 -0.0239
  700loPI    C2 9500   0.438   1.749   5.777  0.0131 -0.0322 -0.0298
  700loPI    C3 9501   0.518   2.138   5.728 -0.1639  0.0142  0.0423
  700loPI   PO4 9502   0.657   1.859   6.331  0.0333  0.2403 -0.1606
  700loPI   GL1 9503   0.614   1.939   6.798 -0.0992 -0.1846 -0.0528
  700loPI   GL2 9504   0.423   1.834   6.830  0.1748 -0.0244  0.0300
  700loPI   C1A 9505   0.908   1.715   7.099 -0.3454  0.0281 -0.1839
  700loPI   C2A 9506   0.910   1.527   7.485 -0.0577  0.2715  0.2964
  700loPI   C3A 9507   0.980   1.481   7.814 -0.0171 -0.1086  0.0270
  700loPI   C4A 9508   0.701   1.528   8.132 -0.3138 -0.1436 -0.3216
  700loPI   C5A 9509   0.543   1.701   8.512 -0.1135 -0.3198 -0.1915
  700loPI   C6A 9510   0.594   1.792   8.886  0.3337 -0.1176  0.1829
  700loPI   C1B 9511   0.497   1.870   7.326 -0.0257  0.0642  0.0442
  700loPI   C2B 9512   0.483   1.766   7.761  0.1691  0.0281  0.1138
  700loPI   C3B 9513   0.393   1.980   8.134 -0.2816 -0.0563 -0.0758
  700loPI   C4B 9514   0.334   2.154   8.479 -0.0800 -0.0323 -0.0162
  701loPI    C1 9515   8.469  14.427   6.202  0.0057  0.0382  0.0297
  701loPI    C2 9516   8.724  14.371   5.899  0.0456  0.1426  0.0437
  701loPI    C3 9517   8.369  14.543   5.833  0.0539  0.1645  0.0558
  701loPI   PO4 9518   8.624  14.419   6.372  0.2707  0.0644  0.1407
  701loPI   GL1 9519   8.556  14.496   6.778 -0.2731 -0.2109 -0.1794
  701loPI   GL2 9520   8.822  14.337   6.982  0.0659 -0.0303 -0.1229
  701loPI   C1A 9521   8.330  14.711   7.149 -0.0153 -0.2213 -0.3523
  701loPI   C2A 9522   8.251  14.709   7.586  0.2515 -0.1513  0.3801
  701loPI   C3A 9523   8.231  14.672   8.020 -0.0861 -0.3169  0.0282
  701loPI   C4A 9524   8.122  14.878   8.460 -0.0002  0.0136  0.1098
  701loPI   C5A 9525   8.095  14.853   8.791 -0.1526 -0.3090 -0.0538
  701loPI   C6A 9526   8.156  14.783   9.227 -0.1888  0.2459 -0.1900
  701loPI   C1B 9527   8.961  14.166   7.272 -0.0220  0.1040 -0.2009
  701loPI   C2B 9528   9.015  14.212   7.740  0.1735 -0.2482 -0.1811
  701loPI   C3B 9529   9.173  14.360   8.155 -0.1338 -0.0315 -0.3971
  701loPI   C4B 9530   9.548  14.519   8.509  0.0545 -0.0246  0.0272
  702loPI    C1 9531  12.940   7.754   6.208 -0.2454 -0.2160 -0.0610
  702loPI    C2 9532  13.014   8.146   6.177 -0.1701 -0.2134  0.1428
  702loPI    C3 9533  12.705   7.985   5.981 -0.0545 -0.0967 -0.1394
  702loPI   PO4 9534  12.958   7.701   6.496 -0.0430 -0.1560  0.1493
  702loPI   GL1 9535  13.074   7.726   6.910  0.0696  0.0317  0.3022
  702loPI   GL2 9536  12.981   7.387   6.908  0.1872 -0.1713 -0.0696
  702loPI   C1A 9537  13.115   7.906   7.290 -0.2565  0.0664 -0.0656
  702loPI   C2A 9538  13.245   7.862   7.690  0.1915  0.1869  0.1147
  702loPI   C3A 9539  13.222   7.974   8.067 -0.1366 -0.2636  0.0547
  702loPI   C4A 9540  13.377   8.124   8.489 -0.2306 -0.3051 -0.0648
  702loPI   C5A 9541  13.281   8.419   8.680  0.1014 -0.0946 -0.0256
  702loPI   C6A 9542  13.176   8.633   9.072 -0.0691  0.0134 -0.2180
  702loPI   C1B 9543  12.791   7.191   7.293  0.0477 -0.1979  0.5007
  702loPI   C2B 9544  12.780   7.125   7.720 -0.3278  0.2536 -0.1934
  702loPI   C3B 9545  12.698   7.221   8.093 -0.1001 -0.0246  0.1631
  702loPI   C4B 9546  12.706   7.017   8.489 -0.1860 -0.0278 -0.0942
  703loPI    C1 9547   5.994   8.559   6.519  0.2095 -0.0016  0.0267
  703loPI    C2 9548   6.225   8.374   6.249  0.2194  0.2050 -0.1082
  703loPI    C3 9549   5.966   8.655   6.132  0.0351  0.1102  0.0662
  703loPI   PO4 9550   6.105   8.637   6.718 -0.0255  0.1529 -0.0023
  703loPI   GL1 9551   6.439   8.553   6.938  0.1988  0.1588  0.2952
  703loPI   GL2 9552   6.524   8.968   6.869 -0.0276  0.1930 -0.2043
  703loPI   C1A 9553   6.508   8.607   7.276 -0.2260  0.3079  0.1192
  703loPI   C2A 9554   6.488   8.648   7.634 -0.0734 -0.3169 -0.2507
  703loPI   C3A 9555   6.599   8.664   8.094  0.0167  0.1279  0.2778
  703loPI   C4A 9556   6.715   8.630   8.512  0.1761 -0.3720 -0.0465
  703loPI   C5A 9557   6.713   8.637   8.925  0.2353 -0.1904 -0.0358
  703loPI   C6A 9558   6.340   8.919   9.053 -0.3184  0.1396  0.1464
  703loPI   C1B 9559   6.439   9.085   7.334 -0.3166 -0.2802 -0.0738
  703loPI   C2B 9560   6.523   9.123   7.770  0.0623 -0.1376 -0.2683
  703loPI   C3B 9561   6.645   9.129   8.262  0.0590 -0.1754 -0.0634
  703loPI   C4B 9562   6.705   9.097   8.720  0.2120  0.1654  0.3145
  704loPI    C1 9563  13.633  17.056   5.848  0.0649 -0.1053  0.0205
  704loPI    C2 9564  13.869  16.911   5.559 -0.2953 -0.1764 -0.2459
  704loPI    C3 9565  13.515  17.072   5.466 -0.2069  0.2458  0.1137
  704loPI   PO4 9566  13.767  17.128   6.059  0.1240 -0.0446 -0.0987
  704loPI   GL1 9567  13.876  17.357   6.392  0.0860 -0.0183  0.2199
  704loPI   GL2 9568  14.039  17.632   6.483  0.2933 -0.0260 -0.2131
  704loPI   C1A 9569  13.825  17.009   6.690  0.0116  0.3184 -0.1021
  704loPI   C2A 9570  13.847  16.978   7.162 -0.0225 -0.0613  0.2319
  704loPI   C3A 9571  13.807  17.081   7.575 -0.2053 -0.0522 -0.2807
  704loPI   C4A 9572  13.755  17.086   7.965  0.0543  0.1436  0.0651
  704loPI   C5A 9573  13.704  17.140   8.344  0.0488 -0.0937 -0.0019
  704loPI   C6A 9574  13.966  17.242   8.763 -0.4283  0.2723  0.2196
  704loPI   C1B 9575  14.275  17.912   6.801 -0.0335 -0.1105 -0.1907
  704loPI   C2B 9576  14.261  17.769   7.304 -0.1450 -0.0384 -0.1366
  704loPI   C3B 9577  14.335  17.887   7.680  0.1617 -0.1038 -0.3944
  704loPI   C4B 9578  14.346  17.865   8.123  0.0870 -0.3747  0.0629
  705loPI    C1 9579  16.638  14.246   5.887 -0.0269 -0.0941 -0.0880
  705loPI    C2 9580  16.611  14.458   5.549  0.1059  0.0295 -0.0223
  705loPI    C3 9581  16.654  14.060   5.533  0.1574  0.0395 -0.1514
  705loPI   PO4 9582  16.772  14.353   6.109  0.2687  0.0147 -0.0625
  705loPI   GL1 9583  16.578  14.270   6.604 -0.2238  0.0906  0.2481
  705loPI   GL2 9584  16.356  14.471   6.382 -0.0089 -0.2812 -0.1190
  705loPI   C1A 9585  16.856  14.359   6.938 -0.2587 -0.1131 -0.2960
  705loPI   C2A 9586  16.850  14.550   7.265 -0.0791  0.1892 -0.1697
  705loPI   C3A 9587  16.705  14.504   7.716 -0.1840 -0.0253  0.0555
  705loPI   C4A 9588  16.745  14.551   8.179 -0.3810 -0.0613 -0.1564
  705loPI   C5A 9589  16.700  14.636   8.605  0.2108  0.0755 -0.0846
  705loPI   C6A 9590  16.776  14.576   9.066  0.0672  0.1614 -0.1093
  705loPI   C1B 9591  16.410  14.716   6.833  0.2361  0.0294  0.1753
  705loPI   C2B 9592  16.393  14.684   7.336 -0.1545  0.1910  0.0607
  705loPI   C3B 9593  16.321  14.745   7.804 -0.0644  0.1141 -0.1337
  705loPI   C4B 9594  16.328  14.854   8.234  0.0228 -0.4284  0.1268
  706loPI    C1 9595  16.941  12.659   6.032 -0.0093 -0.2004 -0.0585
  706loPI    C2 9596  16.770  12.738   5.679 -0.1458  0.3509  0.1195
  706loPI    C3 9597  17.132  12.886   5.763 -0.0042  0.0131  0.1224
  706loPI   PO4 9598  16.728  12.628   6.158  0.2168 -0.2040 -0.0865
  706loPI   GL1 9599  16.824  12.568   6.520  0.0182 -0.2648 -0.3256
  706loPI   GL2 9600  17.128  12.481   6.583 -0.0805 -0.0740 -0.3006
  706loPI   C1A 9601  16.712  12.406   6.843 -0.1182 -0.1008 -0.2327
  706loPI   C2A 9602  17.012  12.537   7.180  0.1663  0.1770 -0.0993
  706loPI   C3A 9603  17.220  12.612   7.574 -0.3099  0.1200  0.2159
  706loPI   C4A 9604  17.185  12.653   7.991  0.0688  0.1504 -0.1195
  706loPI   C5A 9605  17.137  12.742   8.392 -0.0473  0.0577  0.0720
  706loPI   C6A 9606  17.447  12.900   8.638  0.3505 -0.1364  0.0480
  706loPI   C1B 9607  17.423  12.653   6.849 -0.0861 -0.1508  0.0093
  706loPI   C2B 9608  17.615  12.806   7.335 -0.1450 -0.0558 -0.1922
  706loPI   C3B 9609  17.710  12.835   7.789  0.2642 -0.3592 -0.2164
  706loPI   C4B 9610  17.570  12.915   8.183  0.0207 -0.1692 -0.2078
  707loPI    C1 9611   6.616   0.590   6.322 -0.2552 -0.1203  0.1042
  707loPI    C2 9612   6.563   0.756   5.962  0.0626  0.0589  0.1361
  707loPI    C3 9613   6.725   0.391   5.992  0.0971  0.0713  0.1007
  707loPI   PO4 9614   6.486   0.698   6.517  0.1893  0.2370  0.0297
  707loPI   GL1 9615   6.629   0.860   6.963  0.1135 -0.1089  0.1396
  707loPI   GL2 9616   6.279   0.815   7.145  0.0670 -0.1874  0.0815
  707loPI   C1A 9617   6.837   0.613   7.323  0.1492  0.3209  0.1229
  707loPI   C2A 9618   6.898   0.652   7.729 -0.4962 -0.1830 -0.1626
  707loPI   C3A 9619   7.007   0.612   8.120 -0.0059 -0.0678 -0.0477
  707loPI   C4A 9620   7.174   0.699   8.573 -0.2491  0.2119 -0.1953
  707loPI   C5A 9621   7.149   0.704   8.901 -0.2168  0.0860 -0.0308
  707loPI   C6A 9622   7.027   0.834   9.269  0.1506 -0.0656 -0.1959
  707loPI   C1B 9623   6.413   0.862   7.569  0.2866  0.2305 -0.3380
  707loPI   C2B 9624   6.459   0.810   8.042 -0.0310  0.1279  0.0957
  707loPI   C3B 9625   6.656   0.703   8.444 -0.1924  0.2525 -0.2387
  707loPI   C4B 9626   6.678   0.515   8.825  0.1676 -0.2659 -0.2865
  708loPI    C1 9627  15.543   1.353   5.848  0.1190  0.0975  0.0459
  708loPI    C2 9628  15.549   1.001   5.657 -0.0950  0.1321 -0.0278
  708loPI    C3 9629  15.575   1.342   5.449 -0.3067  0.1694  0.0047
  708loPI   PO4 9630  15.417   1.222   6.102  0.4344 -0.2165 -0.0669
  708loPI   GL1 9631  15.220   1.256   6.407 -0.1602 -0.1081 -0.0848
  708loPI   GL2 9632  15.106   1.021   6.510  0.0851 -0.1075  0.3350
  708loPI   C1A 9633  15.208   1.305   6.826 -0.0665  0.2301 -0.1097
  708loPI   C2A 9634  15.206   1.284   7.229  0.2183  0.2891  0.0989
  708loPI   C3A 9635  15.181   1.204   7.605  0.1309  0.0892 -0.0499
  708loPI   C4A 9636  15.145   1.317   7.979  0.0423  0.1233  0.2068
  708loPI   C5A 9637  15.199   1.264   8.364  0.2071  0.0084 -0.3408
  708loPI   C6A 9638  15.306   1.195   8.850 -0.1597 -0.0571  0.1988
  708loPI   C1B 9639  14.818   1.023   6.853 -0.3302  0.2893 -0.1559
  708loPI   C2B 9640  14.740   0.970   7.288 -0.0060  0.0040  0.0472
  708loPI   C3B 9641  14.765   0.977   7.626 -0.0460  0.1252  0.3232
  708loPI   C4B 9642  14.704   1.085   7.977  0.1569 -0.2422 -0.2440
  709loPI    C1 9643  13.763   1.913   5.878  0.0582 -0.2859 -0.0015
  709loPI    C2 9644  13.971   1.965   5.541 -0.3049  0.1892 -0.1631
  709loPI    C3 9645  13.782   1.619   5.607 -0.0578  0.0157 -0.3451
  709loPI   PO4 9646  13.951   1.985   6.050 -0.0879  0.2392 -0.1944
  709loPI   GL1 9647  13.837   1.825   6.398  0.0039 -0.0360 -0.1564
  709loPI   GL2 9648  13.718   1.647   6.522  0.2106 -0.2665 -0.1001
  709loPI   C1A 9649  14.190   1.809   6.701 -0.0311  0.0892 -0.0509
  709loPI   C2A 9650  14.185   1.812   7.253  0.1774  0.1200 -0.2587
  709loPI   C3A 9651  14.158   1.856   7.677  0.3267  0.0208 -0.0794
  709loPI   C4A 9652  14.227   1.814   8.032 -0.0508  0.0795 -0.1727
  709loPI   C5A 9653  14.329   1.755   8.491 -0.1228  0.1113  0.0081
  709loPI   C6A 9654  14.080   1.835   8.785 -0.1400  0.2325 -0.2698
  709loPI   C1B 9655  13.718   1.653   7.041 -0.1593  0.3098 -0.2622
  709loPI   C2B 9656  13.782   1.596   7.484 -0.0378  0.0356 -0.1783
  709loPI   C3B 9657  13.815   1.588   7.958 -0.0247  0.1965 -0.1229
  709loPI   C4B 9658  13.840   1.577   8.402 -0.2442  0.0685  0.1700
  710loPI    C1 9659  15.231   5.146   6.479 -0.0100 -0.0105 -0.0853
  710loPI    C2 9660  15.479   4.911   6.688 -0.0445 -0.1574 -0.2072
  710loPI    C3 9661  15.448   4.866   6.292 -0.0372  0.0676 -0.2345
  710loPI   PO4 9662  14.996   5.127   6.697 -0.0084  0.0420  0.4267
  710loPI   GL1 9663  14.708   5.132   7.007  0.2484  0.3769  0.1945
  710loPI   GL2 9664  14.712   4.776   6.970  0.0021  0.1701  0.0040
  710loPI   C1A 9665  14.925   5.427   7.287 -0.3280 -0.0178  0.0969
  710loPI   C2A 9666  14.961   5.425   7.749 -0.2912  0.4586 -0.3031
  710loPI   C3A 9667  14.821   5.354   8.084  0.1756 -0.0370 -0.0394
  710loPI   C4A 9668  14.498   5.477   8.377 -0.0148 -0.0031  0.1644
  710loPI   C5A 9669  14.351   5.389   8.844 -0.2347  0.0389  0.3439
  710loPI   C6A 9670  13.978   5.206   9.032  0.3909  0.0478 -0.2909
  710loPI   C1B 9671  14.417   4.791   7.196  0.0353 -0.0210 -0.2746
  710loPI   C2B 9672  14.362   4.671   7.578 -0.0968  0.0512 -0.0159
  710loPI   C3B 9673  14.388   4.471   7.924 -0.2263  0.0222  0.0643
  710loPI   C4B 9674  14.474   4.425   8.221 -0.1142 -0.1038  0.1204
  711loPI    C1 9675   2.798   0.605   6.407  0.1894 -0.0298  0.0190
  711loPI    C2 9676   2.937   0.747   6.060 -0.2631  0.2307 -0.0646
  711loPI    C3 9677   2.747   0.395   6.070  0.2029 -0.0277  0.0156
  711loPI   PO4 9678   2.688   0.777   6.543  0.2223  0.0054 -0.0294
  711loPI   GL1 9679   2.817   1.006   6.845  0.2016  0.1430 -0.1437
  711loPI   GL2 9680   2.771   0.911   7.086 -0.2091  0.3160  0.1765
  711loPI   C1A 9681   2.877   1.380   7.202 -0.3406  0.1217 -0.2496
  711loPI   C2A 9682   2.731   1.322   7.652  0.1775 -0.0228  0.1227
  711loPI   C3A 9683   2.827   1.329   8.113  0.0735 -0.2756 -0.0169
  711loPI   C4A 9684   2.956   1.422   8.516  0.2468  0.0434 -0.0062
  711loPI   C5A 9685   2.830   1.258   8.987 -0.0462  0.0742  0.3833
  711loPI   C6A 9686   2.568   1.159   9.336  0.2113  0.2924  0.0302
  711loPI   C1B 9687   2.717   0.869   7.449  0.0353  0.0796  0.1663
  711loPI   C2B 9688   2.662   0.888   7.913 -0.0760 -0.3183  0.1297
  711loPI   C3B 9689   2.674   0.561   8.313  0.1743 -0.3112  0.3313
  711loPI   C4B 9690   2.662   0.131   8.543  0.1245 -0.0922 -0.0407
  712loPI    C1 9691   5.263  12.822   6.387  0.0273 -0.1183  0.1604
  712loPI    C2 9692   5.039  12.913   6.068  0.2021  0.0316  0.0788
  712loPI    C3 9693   5.104  12.530   6.164  0.3465 -0.0186 -0.2080
  712loPI   PO4 9694   5.104  12.940   6.569 -0.1550 -0.0656 -0.1232
  712loPI   GL1 9695   5.261  13.055   6.919 -0.0008  0.3109 -0.2378
  712loPI   GL2 9696   5.089  12.837   7.075 -0.2667 -0.2900  0.0213
  712loPI   C1A 9697   5.097  13.390   7.211 -0.0065 -0.2622  0.0130
  712loPI   C2A 9698   4.999  13.415   7.609  0.1345 -0.0285  0.1742
  712loPI   C3A 9699   5.076  13.427   8.060 -0.2178  0.1421  0.1749
  712loPI   C4A 9700   5.220  13.657   8.363 -0.3121 -0.0275 -0.0619
  712loPI   C5A 9701   5.306  13.921   8.763  0.0923  0.2251  0.2023
  712loPI   C6A 9702   5.507  14.162   9.166  0.0314 -0.0557 -0.1571
  712loPI   C1B 9703   5.193  12.825   7.470 -0.2400 -0.0209  0.0803
  712loPI   C2B 9704   5.099  12.888   7.923  0.1070  0.0141 -0.0948
  712loPI   C3B 9705   4.964  13.087   8.376  0.0467  0.4746 -0.0176
  712loPI   C4B 9706   4.926  13.116   8.736  0.3686 -0.0115 -0.2319
  713loPI    C1 9707   9.969   4.279   6.044  0.0609  0.1797 -0.0470
  713loPI    C2 9708   9.969   4.005   5.753 -0.1273  0.1051  0.0223
  713loPI    C3 9709   9.797   4.361   5.692 -0.0090  0.1557 -0.0184
  713loPI   PO4 9710   9.959   4.123   6.243  0.1028  0.0067 -0.0801
  713loPI   GL1 9711  10.185   4.045   6.621 -0.0577  0.1933 -0.0704
  713loPI   GL2 9712   9.760   4.238   6.710 -0.3296 -0.2759  0.1325
  713loPI   C1A 9713  10.220   3.885   7.028 -0.0253  0.1592  0.0354
  713loPI   C2A 9714  10.334   3.897   7.522  0.2448  0.1621 -0.1902
  713loPI   C3A 9715  10.362   4.063   7.963 -0.1129  0.0606 -0.1314
  713loPI   C4A 9716  10.304   4.041   8.430  0.0884  0.3727  0.0220
  713loPI   C5A 9717  10.558   4.254   8.797  0.1441  0.0257  0.3906
  713loPI   C6A 9718  10.955   4.183   8.991  0.2470 -0.0701  0.0049
  713loPI   C1B 9719   9.835   4.188   7.183  0.0323 -0.0409  0.0381
  713loPI   C2B 9720   9.889   4.201   7.592  0.0637  0.1312 -0.2492
  713loPI   C3B 9721   9.876   4.326   8.021 -0.2925  0.0208 -0.0780
  713loPI   C4B 9722   9.848   4.324   8.466  0.2763 -0.4066 -0.0649
  714loPI    C1 9723  12.820   1.658   5.938  0.0925  0.0776  0.1222
  714loPI    C2 9724  12.861   1.983   5.709 -0.1707  0.1355  0.1544
  714loPI    C3 9725  12.824   1.622   5.540 -0.2726  0.1676  0.1075
  714loPI   PO4 9726  12.887   1.784   6.215  0.2030  0.1914  0.1414
  714loPI   GL1 9727  13.132   1.620   6.608 -0.1289  0.2217  0.1512
  714loPI   GL2 9728  13.223   1.909   6.659  0.1117 -0.1578 -0.1861
  714loPI   C1A 9729  12.917   1.598   6.990  0.0797 -0.1366  0.0812
  714loPI   C2A 9730  12.923   1.716   7.421  0.0388  0.0689  0.4062
  714loPI   C3A 9731  12.881   1.791   7.777  0.2515 -0.1447  0.0263
  714loPI   C4A 9732  12.784   1.651   8.162  0.1882  0.0594  0.2073
  714loPI   C5A 9733  12.739   1.902   8.554  0.0976  0.1809 -0.1049
  714loPI   C6A 9734  13.058   2.003   8.807 -0.1097 -0.1532 -0.0631
  714loPI   C1B 9735  13.323   1.930   7.106  0.3673  0.2830 -0.0644
  714loPI   C2B 9736  13.364   1.940   7.511 -0.2141 -0.2479  0.2156
  714loPI   C3B 9737  13.327   1.949   7.934 -0.0008 -0.0515 -0.1388
  714loPI   C4B 9738  13.283   1.947   8.332  0.1855 -0.0841  0.1094
  715loPI    C1 9739   4.665   3.827   6.340 -0.0564  0.1446 -0.0257
  715loPI    C2 9740   5.032   3.986   6.355 -0.0150  0.0446  0.0270
  715loPI    C3 9741   4.877   3.874   6.004  0.0105  0.0745  0.0062
  715loPI   PO4 9742   4.603   3.663   6.544 -0.1561  0.4978  0.3511
  715loPI   GL1 9743   4.453   3.523   6.897  0.2740  0.0996 -0.0966
  715loPI   GL2 9744   4.482   3.299   7.111 -0.3127 -0.1397 -0.1807
  715loPI   C1A 9745   4.549   3.745   7.271  0.0238  0.2178  0.4310
  715loPI   C2A 9746   4.559   3.701   7.771 -0.0223 -0.1297 -0.4334
  715loPI   C3A 9747   4.476   3.518   8.123  0.4700  0.2772  0.0132
  715loPI   C4A 9748   4.511   3.351   8.506 -0.1744  0.0151 -0.2764
  715loPI   C5A 9749   4.369   3.385   8.906 -0.0700 -0.1740 -0.1456
  715loPI   C6A 9750   4.498   3.454   9.263  0.0527 -0.1946  0.2076
  715loPI   C1B 9751   4.362   3.287   7.468 -0.0251 -0.1360  0.0205
  715loPI   C2B 9752   4.191   3.136   7.786 -0.0823 -0.0383  0.0869
  715loPI   C3B 9753   4.285   3.059   8.174  0.0349  0.1162 -0.0402
  715loPI   C4B 9754   4.028   2.868   8.544 -0.0206  0.0926  0.1010
  716loPI    C1 9755   1.949   9.060   6.247 -0.2754 -0.0106  0.0285
  716loPI    C2 9756   2.199   9.290   6.035 -0.0641 -0.1411  0.1329
  716loPI    C3 9757   1.827   9.225   5.903 -0.0651  0.1059  0.0079
  716loPI   PO4 9758   1.984   9.161   6.504  0.0612  0.1678  0.2387
  716loPI   GL1 9759   2.089   9.109   6.920 -0.2081  0.2241  0.1408
  716loPI   GL2 9760   2.381   9.279   6.895 -0.0846 -0.2163 -0.1708
  716loPI   C1A 9761   2.043   9.094   7.383  0.1875  0.2865  0.0208
  716loPI   C2A 9762   1.958   9.101   7.838  0.0353  0.0422  0.0213
  716loPI   C3A 9763   1.968   9.035   8.285 -0.0611 -0.0246 -0.0655
  716loPI   C4A 9764   1.923   8.869   8.673 -0.2373 -0.1396  0.1569
  716loPI   C5A 9765   1.849   8.753   9.072  0.1347 -0.2545  0.0794
  716loPI   C6A 9766   2.217   8.511   9.125  0.4780  0.1123 -0.2059
  716loPI   C1B 9767   2.474   9.364   7.346  0.1820  0.1149  0.0747
  716loPI   C2B 9768   2.472   9.301   7.747 -0.0498  0.1046  0.1428
  716loPI   C3B 9769   2.377   9.302   8.103 -0.0097 -0.0582 -0.0482
  716loPI   C4B 9770   2.157   9.544   8.379 -0.0491  0.0971 -0.0692
  717loPI    C1 9771   0.295   0.673   6.445  0.1102  0.0275  0.1208
  717loPI    C2 9772   0.533   0.839   6.170  0.0147  0.0265  0.0371
  717loPI    C3 9773   0.280   1.067   6.380  0.1619  0.0425  0.1990
  717loPI   PO4 9774   0.398   0.520   6.558 -0.2486 -0.2099 -0.4101
  717loPI   GL1 9775   0.325   0.268   6.955  0.0520 -0.0172 -0.2000
  717loPI   GL2 9776   0.010   0.478   6.908  0.3556  0.2881 -0.3226
  717loPI   C1A 9777   0.340   0.268   7.404  0.3186  0.0488 -0.0275
  717loPI   C2A 9778   0.277   0.340   7.891 -0.1407 -0.3190  0.2269
  717loPI   C3A 9779   0.354   0.444   8.298 -0.6000 -0.0096 -0.3917
  717loPI   C4A 9780   0.176   0.550   8.674  0.1108 -0.1139 -0.1956
  717loPI   C5A 9781  -0.119   0.818   8.841  0.0521 -0.2203  0.2079
  717loPI   C6A 9782  -0.457   0.752   8.965 -0.1700  0.3312  0.0200
  717loPI   C1B 9783  -0.015   0.569   7.386  0.2225  0.1118  0.1154
  717loPI   C2B 9784  -0.134   0.571   7.806  0.2362  0.2703 -0.3286
  717loPI   C3B 9785  -0.114   0.480   8.211 -0.1999 -0.3027 -0.1558
  717loPI   C4B 9786  -0.353   0.509   8.555  0.0230 -0.0384 -0.2662
  718loPI    C1 9787  11.361   2.972   6.051 -0.0345  0.0951  0.0056
  718loPI    C2 9788  11.266   2.753   5.731  0.0707 -0.0470  0.0707
  718loPI    C3 9789  11.483   3.086   5.688 -0.1507  0.0860 -0.0367
  718loPI   PO4 9790  11.461   2.761   6.346  0.1999  0.1394  0.1297
  718loPI   GL1 9791  11.352   2.843   6.711 -0.0533  0.1568  0.3936
  718loPI   GL2 9792  11.289   3.170   6.631 -0.1698 -0.3712  0.1358
  718loPI   C1A 9793  11.289   2.929   7.139 -0.0332  0.0734 -0.3933
  718loPI   C2A 9794  11.311   2.783   7.519  0.2435 -0.3842 -0.1427
  718loPI   C3A 9795  11.129   2.881   7.811 -0.0052 -0.2725  0.0719
  718loPI   C4A 9796  11.120   2.957   8.188  0.0154 -0.1667  0.0730
  718loPI   C5A 9797  11.001   2.882   8.597  0.1168 -0.3047 -0.0499
  718loPI   C6A 9798  10.832   2.775   8.957 -0.1498  0.1894 -0.1226
  718loPI   C1B 9799  11.368   3.325   6.990  0.2436 -0.0774  0.0251
  718loPI   C2B 9800  11.251   3.291   7.484 -0.1332 -0.1261  0.0179
  718loPI   C3B 9801  11.170   3.378   7.820  0.1998 -0.0320 -0.1284
  718loPI   C4B 9802  11.203   3.510   8.216 -0.0307  0.1328 -0.0044
  719loPI    C1 9803  12.850   7.209   6.267  0.3843  0.2223 -0.2085
  719loPI    C2 9804  12.543   7.059   6.058  0.0961  0.1309  0.2663
  719loPI    C3 9805  12.914   6.921   5.997 -0.0003  0.0213 -0.0919
  719loPI   PO4 9806  12.767   7.200   6.525  0.1748 -0.1958  0.0504
  719loPI   GL1 9807  12.550   6.949   6.849  0.3946 -0.1085 -0.0087
  719loPI   GL2 9808  12.819   6.830   6.867  0.1446  0.2039  0.1315
  719loPI   C1A 9809  12.378   6.928   7.319  0.0507 -0.0929  0.1108
  719loPI   C2A 9810  12.315   6.889   7.754 -0.0012 -0.0081 -0.1168
  719loPI   C3A 9811  12.220   6.845   8.119  0.1932  0.2048  0.1196
  719loPI   C4A 9812  12.214   7.049   8.497 -0.0200  0.0175  0.2558
  719loPI   C5A 9813  12.467   7.325   8.788  0.3253  0.2401 -0.0005
  719loPI   C6A 9814  12.447   7.405   9.116 -0.2941  0.2457  0.1217
  719loPI   C1B 9815  12.810   6.676   7.292  0.0233  0.2593 -0.3811
  719loPI   C2B 9816  12.757   6.567   7.672 -0.3191 -0.1768  0.2968
  719loPI   C3B 9817  12.719   6.720   8.039 -0.1483 -0.1262 -0.1754
  719loPI   C4B 9818  12.918   6.567   8.448  0.0961  0.2602  0.0478
  720loPI    C1 9819  12.199   6.546   6.035 -0.1366 -0.1583  0.1080
  720loPI    C2 9820  12.570   6.579   5.890 -0.1711  0.1394  0.0823
  720loPI    C3 9821  12.260   6.539   5.640 -0.1736  0.0674  0.0969
  720loPI   PO4 9822  12.242   6.725   6.266  0.3184  0.0759  0.3450
  720loPI   GL1 9823  12.048   6.551   6.536 -0.0034  0.2179 -0.0420
  720loPI   GL2 9824  12.342   6.521   6.723 -0.0626 -0.1129 -0.0484
  720loPI   C1A 9825  11.963   6.705   7.045  0.1203 -0.4242 -0.1286
  720loPI   C2A 9826  11.897   6.736   7.488 -0.0152 -0.0973  0.0846
  720loPI   C3A 9827  11.785   6.690   7.895 -0.1922  0.0370  0.0157
  720loPI   C4A 9828  11.688   6.770   8.213  0.2398  0.0501  0.0887
  720loPI   C5A 9829  11.796   6.733   8.655 -0.0229  0.0208 -0.1198
  720loPI   C6A 9830  11.707   6.686   9.111 -0.0282 -0.1523  0.4805
  720loPI   C1B 9831  12.303   6.348   7.158  0.1814  0.0808  0.3714
  720loPI   C2B 9832  12.307   6.420   7.520  0.2580  0.0942 -0.0905
  720loPI   C3B 9833  12.316   6.394   7.959 -0.2179  0.1398  0.2655
  720loPI   C4B 9834  12.089   6.442   8.327 -0.1124  0.3796 -0.1777
  721loPI    C1 9835   9.443  14.117   6.131 -0.0578 -0.0106  0.1304
  721loPI    C2 9836   9.633  14.117   5.779  0.0392 -0.2098  0.1814
  721loPI    C3 9837   9.241  14.195   5.794  0.0793  0.0255  0.0559
  721loPI   PO4 9838   9.617  14.181   6.303  0.1882  0.2479  0.1928
  721loPI   GL1 9839   9.596  14.283   6.738  0.3917  0.2206  0.0824
  721loPI   GL2 9840   9.894  14.382   6.852 -0.0673 -0.2062  0.0958
  721loPI   C1A 9841   9.499  14.073   7.225  0.0758 -0.3209 -0.2032
  721loPI   C2A 9842   9.508  14.074   7.633  0.2614  0.1769 -0.1953
  721loPI   C3A 9843   9.706  14.167   8.055 -0.3044  0.2339  0.1385
  721loPI   C4A 9844  10.008  14.241   8.394  0.2608 -0.0418  0.1406
  721loPI   C5A 9845  10.251  14.335   8.754  0.0029  0.0122 -0.3116
  721loPI   C6A 9846  10.377  14.164   9.172 -0.0419 -0.0201 -0.0775
  721loPI   C1B 9847   9.970  14.273   7.286 -0.0216 -0.1029 -0.0378
  721loPI   C2B 9848   9.959  14.346   7.653  0.4979  0.1264 -0.3172
  721loPI   C3B 9849   9.994  14.599   8.013  0.1877  0.0864  0.1214
  721loPI   C4B 9850  10.046  14.778   8.436 -0.2476 -0.0559  0.3218
  722loPI    C1 9851  11.727  12.414   6.451  0.1942 -0.0054  0.1073
  722loPI    C2 9852  11.339  12.323   6.480  0.2385 -0.2405 -0.0206
  722loPI    C3 9853  11.487  12.458   6.134  0.3331 -0.4620 -0.0686
  722loPI   PO4 9854  11.793  12.613   6.551  0.0136 -0.0294 -0.0596
  722loPI   GL1 9855  11.581  12.710   6.913  0.0419 -0.0285 -0.0446
  722loPI   GL2 9856  11.314  12.796   6.892  0.0645  0.0639 -0.2765
  722loPI   C1A 9857  11.601  12.528   7.337  0.1795 -0.2299  0.0598
  722loPI   C2A 9858  11.526  12.557   7.743  0.2079  0.2154 -0.2544
  722loPI   C3A 9859  11.524  12.608   8.118  0.0747  0.0172 -0.3095
  722loPI   C4A 9860  11.486  12.634   8.537 -0.0818  0.0868  0.3201
  722loPI   C5A 9861  11.612  12.646   8.863 -0.0122 -0.1895  0.0098
  722loPI   C6A 9862  11.979  12.757   8.892  0.2811  0.0730 -0.0231
  722loPI   C1B 9863  11.205  12.837   7.390  0.0256 -0.3433  0.2080
  722loPI   C2B 9864  11.187  12.865   7.850  0.1674  0.0852 -0.1127
  722loPI   C3B 9865  11.192  12.959   8.287  0.2608  0.1728 -0.2519
  722loPI   C4B 9866  11.154  12.871   8.768  0.0257 -0.0557 -0.1221
  723loPI    C1 9867   6.385   9.541   6.617  0.0726  0.0486 -0.0006
  723loPI    C2 9868   6.142   9.857   6.642  0.1419  0.1076 -0.0692
  723loPI    C3 9869   6.534   9.901   6.704  0.0927 -0.0489  0.3869
  723loPI   PO4 9870   6.313   9.351   6.751  0.2541  0.3040  0.1661
  723loPI   GL1 9871   6.038   9.132   7.042  0.2416 -0.0694  0.0890
  723loPI   GL2 9872   6.041   8.876   7.196 -0.0652 -0.0066 -0.0108
  723loPI   C1A 9873   6.053   9.391   7.426 -0.1446  0.0114  0.2753
  723loPI   C2A 9874   6.012   9.354   7.911  0.4930  0.2019 -0.0271
  723loPI   C3A 9875   6.209   9.570   8.292  0.1117  0.0521 -0.0346
  723loPI   C4A 9876   6.314   9.889   8.432  0.0089  0.0435 -0.2748
  723loPI   C5A 9877   6.418   9.995   8.883 -0.0117 -0.1082 -0.2993
  723loPI   C6A 9878   6.160  10.092   9.243 -0.0113 -0.1597 -0.1675
  723loPI   C1B 9879   6.087   8.904   7.664  0.1624  0.0359 -0.0610
  723loPI   C2B 9880   6.199   8.939   8.150 -0.2019  0.1240 -0.0954
  723loPI   C3B 9881   6.241   9.035   8.545  0.1689  0.1115 -0.0336
  723loPI   C4B 9882   6.332   9.400   8.872  0.0388 -0.1742 -0.0579
  724loPI    C1 9883   6.742  12.065   6.198  0.1281  0.0223  0.0413
  724loPI    C2 9884   6.756  12.419   6.012 -0.3087 -0.0327 -0.1075
  724loPI    C3 9885   6.934  12.100   5.848 -0.0712  0.0752 -0.0641
  724loPI   PO4 9886   6.516  12.099   6.329 -0.1505  0.0820 -0.2325
  724loPI   GL1 9887   6.483  11.949   6.754 -0.1257 -0.1182  0.0126
  724loPI   GL2 9888   6.205  11.798   6.970  0.0191 -0.2547 -0.0015
  724loPI   C1A 9889   6.647  12.200   7.118  0.1420  0.2109 -0.0622
  724loPI   C2A 9890   6.655  12.384   7.497 -0.0976 -0.0356 -0.0196
  724loPI   C3A 9891   6.882  12.385   7.795  0.0624 -0.0860 -0.0764
  724loPI   C4A 9892   6.928  12.337   8.210  0.0065 -0.2590 -0.0492
  724loPI   C5A 9893   6.785  12.341   8.609 -0.1831  0.0328 -0.3371
  724loPI   C6A 9894   6.837  12.537   9.020  0.2109 -0.2229  0.0968
  724loPI   C1B 9895   6.230  12.004   7.392 -0.2151  0.0460 -0.2376
  724loPI   C2B 9896   6.351  12.029   7.803  0.4514 -0.1666  0.2845
  724loPI   C3B 9897   6.415  12.142   8.201  0.0462  0.2752 -0.1618
  724loPI   C4B 9898   6.338  12.111   8.667 -0.1457  0.2110 -0.1261
  725loPI    C1 9899   7.754   8.468   6.138  0.1278 -0.1720 -0.0240
  725loPI    C2 9900   7.960   8.554   5.806 -0.0798 -0.2340 -0.1712
  725loPI    C3 9901   7.722   8.233   5.816 -0.1602 -0.1703  0.0012
  725loPI   PO4 9902   7.999   8.522   6.336  0.3111  0.0515 -0.2448
  725loPI   GL1 9903   8.175   8.552   6.586  0.0249  0.0247 -0.2783
  725loPI   GL2 9904   8.027   8.809   6.802 -0.2296  0.1080  0.2614
  725loPI   C1A 9905   8.380   8.607   7.028  0.0119 -0.2621 -0.2527
  725loPI   C2A 9906   8.475   8.766   7.480  0.1013  0.1409 -0.1259
  725loPI   C3A 9907   8.476   8.588   7.828  0.1445 -0.0305 -0.2095
  725loPI   C4A 9908   8.424   8.508   8.181  0.1413 -0.1517  0.1909
  725loPI   C5A 9909   8.543   8.582   8.584 -0.1293 -0.1282  0.2143
  725loPI   C6A 9910   8.926   8.858   8.779  0.0575  0.0473 -0.1613
  725loPI   C1B 9911   8.055   8.994   7.267 -0.3496  0.1663  0.0843
  725loPI   C2B 9912   8.074   9.014   7.697 -0.1096 -0.0998  0.1284
  725loPI   C3B 9913   7.978   8.859   8.037 -0.0557  0.0261  0.0120
  725loPI   C4B 9914   8.095   8.796   8.520  0.1445  0.0272  0.1227
  726loPI    C1 9915   9.716  15.046   6.074 -0.3577  0.0812 -0.1578
  726loPI    C2 9916   9.661  15.374   5.851  0.1012  0.1460 -0.1860
  726loPI    C3 9917   9.560  15.014   5.707 -0.1077  0.2405 -0.2804
  726loPI   PO4 9918   9.677  15.146   6.366  0.0786  0.2072 -0.3388
  726loPI   GL1 9919   9.818  14.907   6.710 -0.0261  0.2317 -0.0244
  726loPI   GL2 9920   9.480  15.078   6.851  0.0054  0.0587 -0.1113
  726loPI   C1A 9921   9.752  14.824   7.171  0.2257 -0.2435  0.0109
  726loPI   C2A 9922   9.878  14.850   7.560  0.0954 -0.1930 -0.0536
  726loPI   C3A 9923   9.994  15.120   7.922 -0.2138  0.2870  0.3295
  726loPI   C4A 9924  10.104  15.282   8.344 -0.4358  0.4710 -0.0147
  726loPI   C5A 9925  10.202  15.649   8.595  0.1060  0.3366 -0.1439
  726loPI   C6A 9926  10.309  15.980   8.842 -0.1228  0.1284  0.6332
  726loPI   C1B 9927   9.409  15.109   7.238  0.1673 -0.2198 -0.1201
  726loPI   C2B 9928   9.471  15.240   7.755  0.3423 -0.1525 -0.1097
  726loPI   C3B 9929   9.602  15.350   8.117 -0.0156 -0.2433  0.1805
  726loPI   C4B 9930   9.694  15.620   8.419  0.3557 -0.1285 -0.1325
  727loPI    C1 9931  16.832   8.354   5.886  0.3018  0.0291  0.3246
  727loPI    C2 9932  16.613   8.684   5.834  0.0073 -0.1877  0.1603
  727loPI    C3 9933  16.989   8.671   5.699 -0.1515 -0.1015 -0.3086
  727loPI   PO4 9934  16.640   8.250   6.203  0.0117 -0.0866 -0.0618
  727loPI   GL1 9935  16.665   8.282   6.614  0.0314  0.2529 -0.0024
  727loPI   GL2 9936  16.777   7.979   6.726  0.0370  0.0656  0.0811
  727loPI   C1A 9937  16.661   8.576   7.026 -0.1403 -0.0386  0.3107
  727loPI   C2A 9938  16.772   8.714   7.420  0.1176  0.3265  0.0543
  727loPI   C3A 9939  16.837   8.716   7.868  0.0632  0.1423 -0.0487
  727loPI   C4A 9940  16.865   8.743   8.284 -0.0216  0.0192  0.3663
  727loPI   C5A 9941  16.991   8.840   8.767  0.1300 -0.2255 -0.0458
  727loPI   C6A 9942  16.990   8.857   9.222  0.1235 -0.0191  0.3183
  727loPI   C1B 9943  16.785   8.028   7.073  0.0599  0.1397  0.0014
  727loPI   C2B 9944  16.731   8.145   7.458 -0.1586  0.2519  0.5384
  727loPI   C3B 9945  16.790   8.050   7.845  0.4027 -0.1543  0.0405
  727loPI   C4B 9946  16.807   8.173   8.249  0.4242 -0.2540  0.0775
  728loPI    C1 9947  15.720   2.730   6.257 -0.0545 -0.1925  0.0529
  728loPI    C2 9948  16.069   2.892   6.146 -0.1634  0.1551  0.2063
  728loPI    C3 9949  15.794   2.802   5.870 -0.0288  0.0581  0.1026
  728loPI   PO4 9950  15.587   2.931   6.519  0.0414  0.0175  0.1462
  728loPI   GL1 9951  15.320   2.997   6.816 -0.2303  0.0131 -0.1702
  728loPI   GL2 9952  15.054   2.920   6.882  0.1729  0.2233  0.1756
  728loPI   C1A 9953  15.347   3.276   7.173  0.1898 -0.1257  0.2896
  728loPI   C2A 9954  15.409   3.364   7.593  0.1120 -0.1156  0.0753
  728loPI   C3A 9955  15.216   3.333   7.986 -0.1499  0.3052 -0.0708
  728loPI   C4A 9956  15.173   3.288   8.480 -0.4167 -0.1951  0.0240
  728loPI   C5A 9957  15.361   3.215   8.911  0.2730 -0.0303 -0.0691
  728loPI   C6A 9958  15.431   2.889   9.200 -0.1212  0.0132  0.1760
  728loPI   C1B 9959  15.127   2.828   7.333  0.2738  0.1964 -0.0123
  728loPI   C2B 9960  15.242   2.885   7.701 -0.1365 -0.0611 -0.3914
  728loPI   C3B 9961  15.279   2.863   8.123 -0.0138 -0.0572  0.2307
  728loPI   C4B 9962  15.222   2.732   8.614 -0.2400 -0.1986 -0.1859
  729loPI    C1 9963  11.650   6.464   6.231 -0.1904 -0.0149  0.0069
  729loPI    C2 9964  11.418   6.286   5.959 -0.1685  0.0948 -0.0845
  729loPI    C3 9965  11.661   6.584   5.850 -0.1174  0.1013  0.0450
  729loPI   PO4 9966  11.708   6.194   6.432 -0.4662  0.2912  0.2207
  729loPI   GL1 9967  12.092   6.076   6.658 -0.0034 -0.1959  0.2497
  729loPI   GL2 9968  11.847   6.223   6.891 -0.0652  0.1059 -0.0205
  729loPI   C1A 9969  12.357   5.849   7.041 -0.0769 -0.0007  0.1312
  729loPI   C2A 9970  12.318   5.929   7.446 -0.0849  0.2112 -0.0454
  729loPI   C3A 9971  12.269   5.872   7.760 -0.0456 -0.4749 -0.1719
  729loPI   C4A 9972  12.231   6.002   8.204 -0.3074 -0.1707  0.0318
  729loPI   C5A 9973  12.315   5.746   8.696  0.3089 -0.1103 -0.0350
  729loPI   C6A 9974  12.578   5.916   9.019 -0.0198  0.2708 -0.1168
  729loPI   C1B 9975  11.898   6.138   7.311  0.0916 -0.0014  0.2445
  729loPI   C2B 9976  11.888   6.181   7.743  0.1719 -0.2193  0.1396
  729loPI   C3B 9977  11.677   6.226   8.055 -0.2340 -0.0601  0.0081
  729loPI   C4B 9978  11.597   6.258   8.552 -0.1790 -0.1556  0.1390
  730loPI    C1 9979  15.049   5.618   6.499 -0.0052 -0.0289 -0.1471
  730loPI    C2 9980  14.827   5.572   6.829  0.1678  0.1954  0.0035
  730loPI    C3 9981  14.686   5.785   6.522  0.0372  0.0494 -0.0393
  730loPI   PO4 9982  15.297   5.647   6.658  0.1451  0.3940  0.1686
  730loPI   GL1 9983  15.363   5.699   6.991 -0.0619  0.3505  0.0924
  730loPI   GL2 9984  15.385   5.362   7.011 -0.0549 -0.2607 -0.1089
  730loPI   C1A 9985  15.245   5.831   7.359 -0.4538 -0.0385  0.2792
  730loPI   C2A 9986  15.386   5.764   7.690  0.2076  0.0135  0.0698
  730loPI   C3A 9987  15.223   5.699   8.085 -0.0212  0.1015 -0.2183
  730loPI   C4A 9988  15.168   5.736   8.474 -0.0443 -0.0350  0.2574
  730loPI   C5A 9989  14.804   5.545   8.718 -0.0518  0.2141 -0.2606
  730loPI   C6A 9990  14.711   5.119   9.008  0.0733  0.2431  0.0624
  730loPI   C1B 9991  15.425   5.274   7.458  0.1431 -0.4629 -0.0192
  730loPI   C2B 9992  15.393   5.174   7.950 -0.3030  0.1077 -0.0900
  730loPI   C3B 9993  15.277   5.236   8.343 -0.0883  0.0196  0.0216
  730loPI   C4B 9994  14.890   5.101   8.523  0.0936  0.1177 -0.0226
  731loPI    C1 9995   2.737   7.137   6.220  0.1015 -0.2232 -0.2397
  731loPI    C2 9996   2.368   7.216   6.086  0.0603  0.0032 -0.0008
  731loPI    C3 9997   2.679   7.221   5.833 -0.0544  0.1427 -0.1410
  731loPI   PO4 9998   2.728   7.221   6.470  0.2275  0.2333 -0.2560
  731loPI   GL1 9999   2.673   6.990   6.771  0.1418 -0.1400  0.0135
  731loPI   GL210000   2.449   7.123   6.979 -0.3309  0.0813  0.0663
  731loPI   C1A10001   2.970   6.965   7.243  0.0209 -0.1160 -0.1451
  731loPI   C2A10002   3.037   7.032   7.698  0.0780 -0.1201  0.0775
  731loPI   C3A10003   3.041   7.049   8.171  0.1809  0.1365  0.1597
  731loPI   C4A10004   3.055   7.220   8.606  0.0794 -0.2389 -0.1139
  731loPI   C5A10005   2.869   7.601   8.823 -0.1221  0.1440  0.1017
  731loPI   C6A10006   2.641   7.862   8.493  0.0632  0.0340 -0.1147
  731loPI   C1B10007   2.535   7.172   7.384  0.1288 -0.1292 -0.0352
  731loPI   C2B10008   2.588   7.200   7.858 -0.1290  0.1704  0.1687
  731loPI   C3B10009   2.608   7.358   8.388 -0.2400  0.0096  0.0062
  731loPI   C4B10010   2.575   7.187   8.925 -0.1908  0.0271  0.0135
  732loPI    C110011   1.753   8.508   6.202  0.0427 -0.1531 -0.1389
  732loPI    C210012   1.474   8.791   6.159  0.0842 -0.0621  0.1649
  732loPI    C310013   1.745   8.732   5.871 -0.1152 -0.0059 -0.0372
  732loPI   PO410014   1.846   8.523   6.410 -0.1813 -0.1065  0.2519
  732loPI   GL110015   2.097   8.692   6.653 -0.0666 -0.2084  0.1288
  732loPI   GL210016   2.421   8.694   6.632 -0.0550 -0.1955  0.1441
  732loPI   C1A10017   1.933   8.613   7.094  0.1433  0.0511  0.0903
  732loPI   C2A10018   1.965   8.621   7.535 -0.1000 -0.2656 -0.2419
  732loPI   C3A10019   2.054   8.584   7.920 -0.0712 -0.3179  0.0414
  732loPI   C4A10020   2.011   8.492   8.350 -0.0623  0.0219 -0.3968
  732loPI   C5A10021   2.376   8.378   8.671  0.0033  0.1146  0.0618
  732loPI   C6A10022   2.697   8.299   8.990  0.1144  0.1556  0.2466
  732loPI   C1B10023   2.443   8.808   7.089 -0.2137  0.0857  0.0370
  732loPI   C2B10024   2.486   8.809   7.463 -0.1164  0.1300  0.0166
  732loPI   C3B10025   2.509   8.832   7.832 -0.2079  0.1318 -0.0927
  732loPI   C4B10026   2.465   8.769   8.335 -0.0646  0.2069 -0.0136
  733loPI    C110027   4.661   4.976   6.479 -0.1742  0.0491  0.1274
  733loPI    C210028   4.466   4.712   6.251  0.0356 -0.1130  0.1325
  733loPI    C310029   4.612   5.046   6.088  0.0193 -0.1374  0.0675
  733loPI   PO410030   4.570   4.776   6.732  0.2689 -0.0539 -0.1175
  733loPI   GL110031   4.388   4.839   7.118  0.0816  0.0928  0.2025
  733loPI   GL210032   4.138   5.024   7.001 -0.0387  0.2598 -0.0261
  733loPI   C1A10033   4.194   4.552   7.333 -0.2184  0.0707  0.4278
  733loPI   C2A10034   4.152   4.502   7.764 -0.0849 -0.0151  0.1676
  733loPI   C3A10035   4.226   4.528   8.209  0.1146  0.2995  0.1177
  733loPI   C4A10036   4.168   4.613   8.695  0.1386 -0.1091 -0.0587
  733loPI   C5A10037   4.130   4.823   9.054  0.2530  0.0287  0.3063
  733loPI   C6A10038   4.153   5.214   9.290  0.0566 -0.1175  0.0700
  733loPI   C1B10039   4.115   5.086   7.517  0.0720 -0.0883  0.1623
  733loPI   C2B10040   4.165   5.038   7.968 -0.1142  0.0328 -0.3553
  733loPI   C3B10041   4.278   5.015   8.313 -0.1508 -0.1749  0.2888
  733loPI   C4B10042   4.458   5.035   8.758  0.0793 -0.0216 -0.2933
  734loPI    C110043   7.405  10.418   6.424 -0.2638  0.0081 -0.0272
  734loPI    C210044   7.265  10.685   6.687 -0.0472  0.0251  0.0734
  734loPI    C310045   7.584  10.774   6.463  0.0269 -0.1493  0.1081
  734loPI   PO410046   7.380  10.184   6.564  0.2733 -0.1414 -0.0966
  734loPI   GL110047   7.199  10.052   6.896 -0.0860 -0.3074  0.0995
  734loPI   GL210048   7.369   9.958   7.088  0.0063 -0.1481 -0.3294
  734loPI   C1A10049   6.998  10.318   7.135 -0.0883 -0.0146  0.0412
  734loPI   C2A10050   6.963  10.434   7.522  0.2199  0.1102 -0.0015
  734loPI   C3A10051   7.029  10.473   7.925 -0.0704  0.1028  0.0761
  734loPI   C4A10052   7.189  10.401   8.319  0.1067 -0.2853 -0.3443
  734loPI   C5A10053   7.253  10.429   8.767 -0.1653  0.3456 -0.0751
  734loPI   C6A10054   7.464  10.344   9.118  0.1660 -0.1146  0.0650
  734loPI   C1B10055   7.578   9.802   7.399 -0.0854 -0.3440  0.2262
  734loPI   C2B10056   7.579   9.773   7.893 -0.0601 -0.1122  0.3123
  734loPI   C3B10057   7.651   9.691   8.324 -0.1462  0.0720 -0.3360
  734loPI   C4B10058   7.652   9.697   8.744  0.1986 -0.0080  0.0695
  735loPI    C110059   7.448  16.833   6.433  0.1043  0.1183 -0.1612
  735loPI    C210060   7.319  17.148   6.643 -0.1125 -0.0837  0.0145
  735loPI    C310061   7.711  17.073   6.617 -0.0513  0.2634 -0.1258
  735loPI   PO410062   7.328  16.626   6.480  0.1712  0.1669 -0.0677
  735loPI   GL110063   7.461  16.431   6.928 -0.0014  0.3175  0.1209
  735loPI   GL210064   7.404  16.682   6.998 -0.1434  0.0868  0.1856
  735loPI   C1A10065   7.487  16.149   7.219  0.3302  0.0090 -0.0088
  735loPI   C2A10066   7.424  16.178   7.631 -0.1243 -0.0798 -0.0849
  735loPI   C3A10067   7.599  16.112   8.069 -0.1022 -0.1167  0.0469
  735loPI   C4A10068   7.895  16.011   8.400 -0.1336 -0.0425  0.0933
  735loPI   C5A10069   7.991  15.678   8.588  0.0022 -0.0828 -0.0975
  735loPI   C6A10070   7.991  15.351   8.817 -0.1478 -0.1341 -0.0838
  735loPI   C1B10071   7.213  16.821   7.315 -0.1270 -0.0151  0.1522
  735loPI   C2B10072   7.266  16.819   7.722  0.1047  0.2829  0.0082
  735loPI   C3B10073   7.346  16.793   8.128  0.0315 -0.0375 -0.3744
  735loPI   C4B10074   7.418  16.901   8.510 -0.1706  0.0929 -0.2306
  736loPI    C110075  16.262  13.562   6.098 -0.1123  0.0967 -0.0325
  736loPI    C210076  16.323  13.813   5.793 -0.3243  0.0435 -0.1207
  736loPI    C310077  16.304  13.419   5.727 -0.0914  0.0094  0.0034
  736loPI   PO410078  16.104  13.681   6.247 -0.0600  0.0114  0.1025
  736loPI   GL110079  15.734  13.578   6.561 -0.0354  0.0729  0.0182
  736loPI   GL210080  15.520  13.378   6.800 -0.3258 -0.3103  0.0979
  736loPI   C1A10081  15.801  13.871   6.961 -0.3167 -0.0392  0.1347
  736loPI   C2A10082  15.850  13.985   7.377  0.2365  0.0386  0.1066
  736loPI   C3A10083  15.787  14.059   7.798  0.3357  0.1164 -0.1643
  736loPI   C4A10084  15.740  14.069   8.279  0.0933 -0.0313 -0.0028
  736loPI   C5A10085  15.952  14.298   8.578  0.0515  0.1025 -0.0181
  736loPI   C6A10086  16.097  14.765   8.628  0.1774 -0.1965  0.1010
  736loPI   C1B10087  15.627  13.453   7.209 -0.2972 -0.0027  0.3444
  736loPI   C2B10088  15.778  13.422   7.535 -0.2405 -0.1748 -0.2651
  736loPI   C3B10089  15.706  13.556   7.946 -0.2868 -0.2955  0.1548
  736loPI   C4B10090  15.709  13.576   8.250 -0.2992 -0.1757  0.0993
  737loPI    C110091   8.788   1.997   6.239 -0.2235 -0.0216 -0.2200
  737loPI    C210092   9.133   2.012   6.038 -0.0690 -0.0706  0.0365
  737loPI    C310093   8.948   1.662   6.091 -0.0420 -0.0768  0.0910
  737loPI   PO410094   8.743   2.217   6.498  0.0173 -0.0324  0.0276
  737loPI   GL110095   8.961   2.204   6.815 -0.2353 -0.2763 -0.2186
  737loPI   GL210096   9.211   2.423   6.916 -0.0597 -0.0625  0.1887
  737loPI   C1A10097   8.932   2.240   7.324  0.0552 -0.0679 -0.0222
  737loPI   C2A10098   8.933   2.192   7.771  0.0326  0.0429 -0.0139
  737loPI   C3A10099   8.891   2.130   8.213  0.0608 -0.2736 -0.3130
  737loPI   C4A10100   8.946   2.065   8.689 -0.0697  0.0218 -0.1723
  737loPI   C5A10101   9.265   2.011   9.001  0.1888 -0.1105  0.0900
  737loPI   C6A10102   9.185   1.863   9.379 -0.2659 -0.0965  0.1370
  737loPI   C1B10103   9.543   2.506   7.226 -0.1394  0.2479 -0.1789
  737loPI   C2B10104   9.363   2.339   7.597 -0.1832 -0.1093  0.0436
  737loPI   C3B10105   9.353   2.437   8.007  0.0738 -0.1143 -0.4056
  737loPI   C4B10106   9.299   2.516   8.465  0.2663 -0.1979 -0.1123
  738loPI    C110107   7.467   2.133   6.534  0.0547  0.1399 -0.0279
  738loPI    C210108   7.342   2.511   6.574 -0.1243  0.0816 -0.0292
  738loPI    C310109   7.442   2.370   6.213 -0.0802  0.1205 -0.0323
  738loPI   PO410110   7.331   1.960   6.667 -0.0396 -0.1583 -0.3954
  738loPI   GL110111   7.148   1.868   7.058 -0.1229  0.4192  0.0588
  738loPI   GL210112   7.123   2.255   7.138  0.1966  0.1601  0.2429
  738loPI   C1A10113   6.991   1.623   7.342  0.2443  0.0552 -0.0227
  738loPI   C2A10114   7.067   1.680   7.810 -0.0558 -0.2466 -0.0484
  738loPI   C3A10115   7.151   1.690   8.217 -0.3634 -0.1511 -0.0308
  738loPI   C4A10116   7.132   1.512   8.671 -0.0624 -0.3319 -0.1680
  738loPI   C5A10117   6.971   1.618   9.040  0.0584 -0.1168  0.0415
  738loPI   C6A10118   6.881   1.636   9.472 -0.0198  0.0639 -0.2897
  738loPI   C1B10119   7.028   2.091   7.486  0.0397  0.2608  0.0862
  738loPI   C2B10120   7.064   2.183   7.977  0.0748  0.0722  0.4261
  738loPI   C3B10121   7.244   2.147   8.403  0.1087  0.0395 -0.0150
  738loPI   C4B10122   7.165   2.084   8.792 -0.0067  0.0955  0.1904
  739loPI    C110123   5.819  12.743   6.231  0.0613 -0.1609  0.0659
  739loPI    C210124   5.542  12.566   6.003 -0.0492 -0.0520  0.1142
  739loPI    C310125   5.552  12.965   6.033  0.0816 -0.0575  0.1536
  739loPI   PO410126   5.836  12.589   6.521  0.1166  0.2610  0.0885
  739loPI   GL110127   5.475  12.650   6.801  0.1787 -0.2706 -0.0030
  739loPI   GL210128   5.661  12.743   7.092  0.2528 -0.2832 -0.1625
  739loPI   C1A10129   5.309  12.424   7.183 -0.1060 -0.0841 -0.1699
  739loPI   C2A10130   5.231  12.299   7.582  0.2011 -0.0543 -0.1949
  739loPI   C3A10131   5.167  12.464   8.085 -0.2989 -0.0614 -0.5748
  739loPI   C4A10132   5.157  12.605   8.404  0.1464 -0.0231  0.5104
  739loPI   C5A10133   5.130  12.609   8.814 -0.1990 -0.2050 -0.2625
  739loPI   C6A10134   4.751  12.769   9.075  0.2219 -0.2037  0.5813
  739loPI   C1B10135   5.640  12.656   7.505 -0.1129 -0.0337  0.0266
  739loPI   C2B10136   5.577  12.644   7.919 -0.2408  0.0613  0.3898
  739loPI   C3B10137   5.597  12.844   8.303 -0.2668 -0.1632  0.1743
  739loPI   C4B10138   5.591  12.943   8.701  0.1573 -0.0678  0.0537
  740loPI    C110139   1.376  12.737   6.056 -0.2400 -0.2390  0.1372
  740loPI    C210140   1.442  12.546   5.711  0.0329  0.0467  0.0260
  740loPI    C310141   1.429  12.946   5.719  0.0386  0.0430  0.3493
  740loPI   PO410142   1.330  12.552   6.274 -0.0419  0.1233  0.0697
  740loPI   GL110143   1.107  12.365   6.617  0.3543  0.3264 -0.0655
  740loPI   GL210144   0.699  12.362   6.732  0.1706  0.1393  0.1217
  740loPI   C1A10145   1.151  12.496   7.036  0.1758  0.1125 -0.1816
  740loPI   C2A10146   1.022  12.522   7.418  0.2922  0.0795  0.3244
  740loPI   C3A10147   1.026  12.449   7.843 -0.2102 -0.0612  0.1359
  740loPI   C4A10148   0.932  12.599   8.308  0.1126  0.0213  0.2070
  740loPI   C5A10149   0.789  12.550   8.694 -0.0675 -0.0418 -0.2158
  740loPI   C6A10150   1.007  12.336   8.989 -0.1626  0.2556  0.0146
  740loPI   C1B10151   0.608  12.361   7.172  0.0157  0.1293  0.3583
  740loPI   C2B10152   0.587  12.321   7.551 -0.4396 -0.0290 -0.2179
  740loPI   C3B10153   0.589  12.232   7.915  0.2029  0.0521 -0.1216
  740loPI   C4B10154   0.424  12.372   8.342  0.0096 -0.2831  0.2818
  741loPI    C110155  16.469   4.138   6.228  0.1754 -0.1743  0.1730
  741loPI    C210156  16.716   3.924   5.997  0.1534 -0.2651  0.2334
  741loPI    C310157  16.323   3.848   5.994  0.0517  0.2187 -0.2526
  741loPI   PO410158  16.576   4.157   6.391 -0.0430 -0.2036 -0.1434
  741loPI   GL110159  16.603   3.912   6.811  0.0120 -0.3307 -0.0148
  741loPI   GL210160  16.531   3.634   6.908 -0.2740 -0.0171  0.0812
  741loPI   C1A10161  16.608   4.237   7.099  0.0258 -0.1301  0.0171
  741loPI   C2A10162  16.539   4.266   7.563  0.0613  0.2537 -0.0242
  741loPI   C3A10163  16.463   4.311   7.889 -0.0749  0.1574 -0.0049
  741loPI   C4A10164  16.289   4.193   8.367  0.0092 -0.0226  0.0291
  741loPI   C5A10165  16.096   4.291   8.861  0.0480 -0.2384  0.1461
  741loPI   C6A10166  15.596   4.457   8.863 -0.1670  0.1419 -0.0022
  741loPI   C1B10167  16.345   3.499   7.283  0.0385  0.0615  0.1298
  741loPI   C2B10168  16.349   3.442   7.658  0.1645 -0.5003 -0.1607
  741loPI   C3B10169  16.202   3.390   8.044  0.3442 -0.0344 -0.0855
  741loPI   C4B10170  16.130   3.187   8.498  0.0446 -0.0936  0.1046
  742loPI    C110171  11.741   0.593   6.243  0.2948  0.0283 -0.0630
  742loPI    C210172  11.980   0.580   5.923 -0.0210  0.1046 -0.3078
  742loPI    C310173  11.584   0.559   5.877 -0.0798  0.3090  0.0654
  742loPI   PO410174  11.762   0.472   6.405  0.1065  0.4273 -0.2825
  742loPI   GL110175  12.122   0.422   6.724  0.1391  0.0681 -0.1032
  742loPI   GL210176  11.996   0.721   6.797  0.1281  0.0889  0.3704
  742loPI   C1A10177  12.338   0.327   7.026  0.0661 -0.1326  0.0074
  742loPI   C2A10178  12.459   0.468   7.395 -0.0329 -0.3878 -0.3164
  742loPI   C3A10179  12.474   0.459   7.831 -0.0103 -0.1066  0.3734
  742loPI   C4A10180  12.345   0.309   8.180 -0.0864 -0.0501 -0.0130
  742loPI   C5A10181  12.529   0.321   8.643 -0.1650  0.0278  0.2986
  742loPI   C6A10182  12.744   0.405   9.064 -0.0519  0.1077 -0.0388
  742loPI   C1B10183  11.926   0.632   7.175 -0.0281  0.2422  0.0080
  742loPI   C2B10184  11.991   0.717   7.644  0.3499  0.0643  0.1496
  742loPI   C3B10185  11.949   0.734   8.104  0.2173 -0.0888 -0.3448
  742loPI   C4B10186  11.985   0.552   8.496  0.3246 -0.0579  0.3378
  743loPI    C110187  13.524  10.307   6.782  0.0872 -0.0716 -0.0207
  743loPI    C210188  13.449  10.095   6.451  0.2204 -0.0170 -0.0866
  743loPI    C310189  13.811  10.256   6.508  0.1153  0.2082 -0.0460
  743loPI   PO410190  13.377  10.471   6.796  0.4162  0.1092  0.2916
  743loPI   GL110191  13.130  10.651   7.122  0.1409  0.1638  0.1288
  743loPI   GL210192  13.157  10.718   7.432  0.1522 -0.2196 -0.1169
  743loPI   C1A10193  13.027  10.238   7.313 -0.1755 -0.0603 -0.1848
  743loPI   C2A10194  12.791  10.066   7.592 -0.0682 -0.0187 -0.1310
  743loPI   C3A10195  12.647  10.049   7.959 -0.0665  0.1240 -0.0945
  743loPI   C4A10196  12.740   9.863   8.367 -0.1942 -0.2163 -0.1807
  743loPI   C5A10197  12.882   9.840   8.791  0.1939  0.1230 -0.0036
  743loPI   C6A10198  13.016   9.616   9.191 -0.3121 -0.1554  0.1308
  743loPI   C1B10199  13.120  10.453   7.813  0.0498  0.1223  0.2387
  743loPI   C2B10200  13.054  10.213   8.222 -0.1310 -0.0625  0.0084
  743loPI   C3B10201  13.158  10.325   8.658  0.0111  0.1948 -0.1267
  743loPI   C4B10202  13.211  10.606   9.100  0.0124  0.0596  0.1751
  744loPI    C110203   1.870   2.225   6.578  0.2762  0.0787  0.1192
  744loPI    C210204   1.975   2.407   6.238 -0.3015 -0.0621 -0.1471
  744loPI    C310205   1.812   2.619   6.535 -0.2393 -0.0175 -0.1446
  744loPI   PO410206   2.133   2.131   6.659 -0.1838  0.3214  0.2094
  744loPI   GL110207   2.296   2.088   7.125  0.1031 -0.3994 -0.0043
  744loPI   GL210208   2.466   2.354   7.110 -0.0122 -0.0031  0.0812
  744loPI   C1A10209   2.315   2.135   7.584 -0.0034 -0.1493 -0.4725
  744loPI   C2A10210   2.325   2.065   7.953  0.1562 -0.1252  0.0655
  744loPI   C3A10211   2.098   2.055   8.321 -0.0365 -0.0013  0.5972
  744loPI   C4A10212   2.103   1.918   8.748  0.0871 -0.3029 -0.5346
  744loPI   C5A10213   2.355   2.028   9.051 -0.0647 -0.0310  0.1006
  744loPI   C6A10214   2.764   2.195   8.923 -0.0437  0.1778 -0.0685
  744loPI   C1B10215   2.667   2.440   7.473 -0.0578 -0.1095  0.2317
  744loPI   C2B10216   2.542   2.501   7.857  0.4418  0.1569 -0.0574
  744loPI   C3B10217   2.580   2.362   8.250  0.2364  0.3801 -0.0470
  744loPI   C4B10218   2.368   2.364   8.673 -0.0401  0.0214  0.0006
  745loPI    C110219  14.315  11.877   6.302 -0.1122 -0.3587 -0.1093
  745loPI    C210220  14.112  12.119   6.056  0.1685  0.0625  0.0612
  745loPI    C310221  14.192  11.743   5.946 -0.1959  0.0696 -0.2480
  745loPI   PO410222  14.237  11.833   6.510 -0.0976  0.2021  0.5289
  745loPI   GL110223  14.110  11.934   6.926  0.1839 -0.2603  0.3211
  745loPI   GL210224  14.385  12.084   7.105  0.0204  0.2453  0.3951
  745loPI   C1A10225  13.957  11.747   7.306 -0.2584  0.0401 -0.3118
  745loPI   C2A10226  13.867  11.575   7.812  0.1453  0.0266 -0.1766
  745loPI   C3A10227  13.863  11.548   8.323 -0.2606 -0.5137 -0.2806
  745loPI   C4A10228  13.400  11.458   8.544 -0.1833 -0.0715 -0.0850
  745loPI   C5A10229  13.134  11.536   8.849  0.1310 -0.1443  0.0710
  745loPI   C6A10230  12.813  11.837   8.717  0.0853  0.1071 -0.0110
  745loPI   C1B10231  14.294  12.032   7.498 -0.1364  0.0372 -0.0346
  745loPI   C2B10232  14.207  11.988   7.892 -0.0133  0.3554  0.2297
  745loPI   C3B10233  14.174  11.980   8.316  0.2839  0.0456 -0.2878
  745loPI   C4B10234  14.164  11.978   8.739 -0.0907 -0.0798  0.0620
  746loPI    C110235   2.764   9.838   6.370 -0.0481  0.0859  0.0254
  746loPI    C210236   2.615   9.613   6.075 -0.3101  0.0540  0.1797
  746loPI    C310237   2.618  10.011   6.040  0.1052  0.0349 -0.0708
  746loPI   PO410238   2.743   9.660   6.573  0.2990 -0.4987  0.2484
  746loPI   GL110239   2.887   9.353   6.734 -0.1704 -0.2093 -0.2719
  746loPI   GL210240   2.879   9.017   6.667  0.2247 -0.1712  0.2821
  746loPI   C1A10241   2.924   9.609   7.189  0.1587  0.1864 -0.0395
  746loPI   C2A10242   2.925   9.640   7.696 -0.1004 -0.1503 -0.0057
  746loPI   C3A10243   2.826   9.630   8.103  0.0510  0.2552  0.1083
  746loPI   C4A10244   2.837   9.434   8.458 -0.0261 -0.1849 -0.0041
  746loPI   C5A10245   2.551   9.546   8.852 -0.0264 -0.0856 -0.0012
  746loPI   C6A10246   2.263   9.532   9.037 -0.1449 -0.0056 -0.5543
  746loPI   C1B10247   2.876   9.072   7.197 -0.0217 -0.3011 -0.1468
  746loPI   C2B10248   2.888   9.136   7.580  0.0909 -0.1439 -0.1295
  746loPI   C3B10249   2.858   9.107   8.046  0.2267  0.1918 -0.0887
  746loPI   C4B10250   2.953   8.995   8.497 -0.2400  0.0864  0.1517
  747loPI    C110251   3.746  12.700   6.169  0.0799  0.0903 -0.2534
  747loPI    C210252   3.742  13.030   5.944  0.0280  0.3436  0.1095
  747loPI    C310253   3.759  13.061   6.342  0.4264 -0.0998  0.1357
  747loPI   PO410254   3.527  12.622   6.196  0.4257 -0.0630  0.1278
  747loPI   GL110255   3.199  12.700   6.490 -0.2175 -0.2926  0.0773
  747loPI   GL210256   3.387  12.710   6.751  0.1297 -0.1540  0.2406
  747loPI   C1A10257   2.956  12.847   6.886  0.0277  0.2366 -0.3171
  747loPI   C2A10258   2.910  12.866   7.325  0.1179 -0.1506  0.1426
  747loPI   C3A10259   2.918  12.885   7.761  0.3419 -0.0020  0.0459
  747loPI   C4A10260   3.040  12.999   8.218  0.0446 -0.1895 -0.0077
  747loPI   C5A10261   3.304  12.968   8.529 -0.1711 -0.2184 -0.2583
  747loPI   C6A10262   3.286  13.035   9.022 -0.0672  0.1220 -0.1548
  747loPI   C1B10263   3.374  12.723   7.135 -0.2735  0.0942  0.2876
  747loPI   C2B10264   3.362  12.709   7.573  0.1228  0.1704  0.2637
  747loPI   C3B10265   3.468  12.769   8.006  0.2741 -0.1130 -0.2081
  747loPI   C4B10266   3.788  12.786   8.355  0.3517 -0.3276  0.0567
  748loPI    C110267   4.345   6.333   6.396  0.1416  0.0202 -0.2262
  748loPI    C210268   4.410   5.993   6.597 -0.0627  0.0583 -0.0920
  748loPI    C310269   4.089   6.028   6.361 -0.1149  0.2042 -0.0009
  748loPI   PO410270   4.319   6.476   6.573  0.3142 -0.0438 -0.0387
  748loPI   GL110271   4.457   6.757   6.860 -0.2562  0.0370  0.0139
  748loPI   GL210272   4.534   6.939   7.086  0.0324 -0.0639  0.0657
  748loPI   C1A10273   4.464   6.367   7.240 -0.1542 -0.2976 -0.2106
  748loPI   C2A10274   4.384   6.312   7.657  0.0034  0.0959 -0.3289
  748loPI   C3A10275   4.579   6.331   8.049 -0.2511 -0.1973  0.1377
  748loPI   C4A10276   4.506   6.341   8.481 -0.2015 -0.0021  0.1016
  748loPI   C5A10277   4.427   6.533   8.778 -0.1081 -0.1145  0.1206
  748loPI   C6A10278   4.449   6.729   9.219  0.0459  0.0031  0.0218
  748loPI   C1B10279   4.587   6.852   7.479  0.1746 -0.2689  0.0338
  748loPI   C2B10280   4.471   6.796   7.862  0.2421  0.0851 -0.3072
  748loPI   C3B10281   4.331   6.923   8.233  0.0123  0.1519  0.0239
  748loPI   C4B10282   4.095   6.884   8.619  0.2194 -0.0847  0.1242
  749loPI    C110283   7.344   4.118   6.055  0.1774 -0.0349 -0.0402
  749loPI    C210284   7.134   4.382   5.840  0.1738 -0.2203 -0.2678
  749loPI    C310285   7.033   3.995   5.836  0.0556 -0.2004  0.2212
  749loPI   PO410286   7.442   4.234   6.273  0.2510  0.2879 -0.5232
  749loPI   GL110287   7.520   4.237   6.767 -0.2585  0.0313  0.2504
  749loPI   GL210288   7.447   3.964   6.867  0.4424 -0.1795 -0.2325
  749loPI   C1A10289   7.830   4.217   7.079 -0.3636 -0.1115  0.1076
  749loPI   C2A10290   8.115   4.249   7.368 -0.1598  0.2074 -0.2244
  749loPI   C3A10291   8.051   4.287   7.844 -0.1392 -0.0160 -0.2500
  749loPI   C4A10292   7.945   4.233   8.279  0.1348 -0.1878  0.2484
  749loPI   C5A10293   8.069   4.123   8.704 -0.0510 -0.2181  0.0551
  749loPI   C6A10294   7.921   4.097   9.043 -0.1658 -0.1610  0.0527
  749loPI   C1B10295   7.483   3.967   7.330  0.0215  0.1783 -0.1719
  749loPI   C2B10296   7.542   4.020   7.722  0.4151 -0.1610 -0.2778
  749loPI   C3B10297   7.513   4.008   8.039  0.1982  0.1001  0.1179
  749loPI   C4B10298   7.512   3.982   8.504  0.1102 -0.0276 -0.0325
  750loPI    C110299  11.802   3.835   6.092  0.1010  0.0363  0.1795
  750loPI    C210300  12.123   3.640   5.954 -0.0172  0.0313 -0.0934
  750loPI    C310301  11.984   3.961   5.759 -0.2250 -0.0131 -0.0218
  750loPI   PO410302  11.833   3.903   6.274 -0.2204  0.4471 -0.2340
  750loPI   GL110303  11.667   3.673   6.614 -0.2666 -0.3565  0.0716
  750loPI   GL210304  11.720   3.977   6.744  0.1655 -0.0395  0.0606
  750loPI   C1A10305  11.789   3.568   7.107 -0.0416 -0.1102  0.1883
  750loPI   C2A10306  11.656   3.592   7.549  0.0192  0.1222  0.2734
  750loPI   C3A10307  11.662   3.625   8.011 -0.1760  0.1127  0.2087
  750loPI   C4A10308  11.596   3.743   8.380  0.0888  0.0321  0.0784
  750loPI   C5A10309  11.309   3.808   8.688 -0.0237 -0.1537  0.0010
  750loPI   C6A10310  11.227   3.764   9.090 -0.1816  0.1624  0.1060
  750loPI   C1B10311  11.704   4.151   7.099  0.0109 -0.0902  0.0957
  750loPI   C2B10312  11.681   4.128   7.580 -0.2421  0.0471 -0.1226
  750loPI   C3B10313  11.661   4.151   8.042  0.0117 -0.0548 -0.0962
  750loPI   C4B10314  11.472   4.248   8.437  0.2889 -0.2604  0.2734
  751loPI    C110315   6.363  10.394   6.394  0.0516  0.0121  0.0443
  751loPI    C210316   6.087  10.187   6.193  0.1554 -0.0486 -0.0371
  751loPI    C310317   6.060  10.585   6.216 -0.0813 -0.0739  0.1762
  751loPI   PO410318   6.380  10.366   6.619  0.2239  0.1478 -0.1044
  751loPI   GL110319   6.507  10.211   7.048 -0.0444 -0.1500  0.2719
  751loPI   GL210320   6.182  10.192   7.079  0.3141 -0.1142  0.2956
  751loPI   C1A10321   6.456  10.371   7.460 -0.1773  0.0536 -0.0826
  751loPI   C2A10322   6.491  10.561   7.914  0.0360  0.1739 -0.0830
  751loPI   C3A10323   6.712  10.715   8.244  0.2186 -0.2220  0.0251
  751loPI   C4A10324   6.895  10.836   8.617 -0.0336  0.1374 -0.0480
  751loPI   C5A10325   7.165  10.984   8.792 -0.0946  0.2907  0.0059
  751loPI   C6A10326   7.415  10.838   9.107  0.0675 -0.5247  0.2021
  751loPI   C1B10327   5.974  10.473   7.363 -0.0893 -0.0776 -0.0790
  751loPI   C2B10328   5.953  10.650   7.769 -0.2721 -0.1755  0.1151
  751loPI   C3B10329   6.021  10.783   8.121  0.0419  0.2740 -0.1572
  751loPI   C4B10330   6.095  10.922   8.425  0.3344  0.2175 -0.3091
  752loPI    C110331   2.211  13.288   6.047  0.0028  0.1008  0.0955
  752loPI    C210332   2.067  13.652   5.964 -0.1378  0.0317  0.0322
  752loPI    C310333   2.264  13.446   5.684 -0.0765  0.0503  0.0615
  752loPI   PO410334   2.378  13.371   6.358  0.0758 -0.0049  0.0016
  752loPI   GL110335   2.627  13.415   6.700  0.1113 -0.1612  0.0347
  752loPI   GL210336   2.457  13.648   6.891 -0.0655 -0.2916 -0.0075
  752loPI   C1A10337   2.909  13.360   6.993  0.1303  0.0800 -0.0584
  752loPI   C2A10338   2.939  13.362   7.432  0.1445  0.1705  0.0448
  752loPI   C3A10339   2.839  13.395   7.870 -0.3592  0.1768  0.1230
  752loPI   C4A10340   2.694  13.459   8.188  0.1963  0.1188 -0.0999
  752loPI   C5A10341   2.320  13.584   8.491  0.0026 -0.0031 -0.1956
  752loPI   C6A10342   2.091  13.313   8.813 -0.0859 -0.2976 -0.0490
  752loPI   C1B10343   2.220  13.880   7.090 -0.2766  0.1165 -0.0130
  752loPI   C2B10344   1.999  13.905   7.484 -0.2354  0.0197  0.1730
  752loPI   C3B10345   1.839  14.099   7.893 -0.1414  0.0228 -0.1292
  752loPI   C4B10346   1.724  14.034   8.388  0.1135  0.0195  0.0741
  753loPI    C110347   7.558   6.909   6.434 -0.0042  0.0208 -0.0050
  753loPI    C210348   7.643   7.084   6.085  0.2223  0.0211  0.0488
  753loPI    C310349   7.838   6.752   6.195  0.0183 -0.0863  0.0907
  753loPI   PO410350   7.472   7.190   6.586 -0.0134  0.2771  0.0491
  753loPI   GL110351   7.276   7.431   6.877 -0.1941 -0.4720 -0.0150
  753loPI   GL210352   6.917   7.462   6.953  0.2043 -0.1482  0.0590
  753loPI   C1A10353   7.457   7.613   7.274 -0.1161 -0.0167  0.1213
  753loPI   C2A10354   7.453   7.649   7.660 -0.0653 -0.1842  0.0769
  753loPI   C3A10355   7.446   7.584   8.161  0.0921  0.0617 -0.3464
  753loPI   C4A10356   7.528   7.719   8.593  0.2284  0.1492 -0.3537
  753loPI   C5A10357   7.298   7.936   8.930 -0.0114 -0.0488 -0.1218
  753loPI   C6A10358   6.959   8.229   9.106 -0.1743  0.1400 -0.0207
  753loPI   C1B10359   6.960   7.350   7.349 -0.2386  0.2514  0.1452
  753loPI   C2B10360   6.953   7.258   7.873  0.0905  0.0917 -0.0616
  753loPI   C3B10361   7.071   7.282   8.302  0.1128 -0.0216 -0.1054
  753loPI   C4B10362   6.628   7.138   8.442 -0.1991 -0.4572 -0.0760
  754loPI    C110363  14.981  16.492   6.145  0.0720  0.1568 -0.1871
  754loPI    C210364  15.198  16.211   5.960  0.1790  0.1528 -0.0566
  754loPI    C310365  14.873  16.362   5.782  0.0248 -0.1730 -0.0577
  754loPI   PO410366  15.155  16.702   6.265  0.0662  0.0358  0.0081
  754loPI   GL110367  15.161  16.771   6.709  0.2006 -0.1071  0.1224
  754loPI   GL210368  15.163  16.427   6.735  0.0455 -0.0666 -0.3213
  754loPI   C1A10369  15.167  16.799   7.115 -0.0740 -0.1548  0.0653
  754loPI   C2A10370  15.111  16.746   7.529 -0.0089 -0.2010  0.0220
  754loPI   C3A10371  14.981  16.792   8.018 -0.1962 -0.0716  0.1752
  754loPI   C4A10372  14.961  16.889   8.483 -0.2644  0.0695  0.3420
  754loPI   C5A10373  14.724  16.660   8.831 -0.2280  0.0469  0.1589
  754loPI   C6A10374  14.841  16.368   9.122 -0.1108  0.1856  0.2494
  754loPI   C1B10375  15.190  16.258   7.207 -0.1723 -0.0183 -0.0943
  754loPI   C2B10376  15.039  16.237   7.670 -0.1170 -0.0769  0.1121
  754loPI   C3B10377  15.032  16.264   8.102 -0.0862  0.0445  0.2048
  754loPI   C4B10378  15.120  16.403   8.509 -0.0867 -0.1074 -0.0774
  755loPI    C110379  12.658   3.654   5.895  0.1539  0.0742  0.0744
  755loPI    C210380  12.477   3.401   5.644 -0.0886  0.2479  0.0713
  755loPI    C310381  12.832   3.558   5.547  0.0852 -0.1206  0.0924
  755loPI   PO410382  12.589   3.492   6.135  0.1249 -0.0516 -0.0523
  755loPI   GL110383  12.600   3.445   6.565 -0.2451  0.2959 -0.1706
  755loPI   GL210384  12.732   3.816   6.603 -0.1921  0.1106 -0.0562
  755loPI   C1A10385  12.536   3.547   7.032  0.0148  0.2205  0.0670
  755loPI   C2A10386  12.582   3.525   7.437  0.1722  0.1351  0.2894
  755loPI   C3A10387  12.526   3.617   7.829 -0.0810  0.0206  0.0696
  755loPI   C4A10388  12.519   3.541   8.229 -0.0067 -0.0066 -0.0407
  755loPI   C5A10389  12.741   3.401   8.655  0.3819 -0.0038 -0.2099
  755loPI   C6A10390  12.967   3.774   8.707 -0.2787  0.2077  0.1628
  755loPI   C1B10391  12.600   4.075   6.993 -0.0076  0.0517 -0.1081
  755loPI   C2B10392  12.542   4.041   7.401 -0.1860  0.0483  0.0305
  755loPI   C3B10393  12.477   4.111   7.757  0.1152 -0.0470  0.0951
  755loPI   C4B10394  12.568   4.086   8.141  0.0711  0.1848 -0.4079
  756loPI    C110395   6.014  14.933   5.963 -0.0157  0.0721  0.1197
  756loPI    C210396   6.408  14.936   5.895 -0.0600  0.1398 -0.1421
  756loPI    C310397   6.162  14.759   5.635 -0.1855 -0.0827  0.1238
  756loPI   PO410398   6.036  15.227   6.185  0.1989  0.1409 -0.1394
  756loPI   GL110399   6.061  15.219   6.698  0.0615  0.1524 -0.1125
  756loPI   GL210400   6.090  15.479   6.852 -0.2458  0.0067  0.0175
  756loPI   C1A10401   6.297  14.982   7.030  0.1543  0.0465 -0.0787
  756loPI   C2A10402   6.336  14.976   7.463 -0.0784 -0.1681  0.2954
  756loPI   C3A10403   6.364  14.936   7.857 -0.2234  0.1360  0.0664
  756loPI   C4A10404   6.735  14.888   8.133 -0.0830 -0.1382  0.1916
  756loPI   C5A10405   6.713  14.723   8.560  0.1702  0.3541  0.2512
  756loPI   C6A10406   6.492  14.488   8.683  0.0031 -0.2577  0.0866
  756loPI   C1B10407   6.231  15.468   7.227 -0.1537  0.0878  0.0626
  756loPI   C2B10408   6.320  15.387   7.696 -0.1735 -0.1810 -0.0049
  756loPI   C3B10409   6.437  15.334   8.174 -0.0555  0.0852 -0.2899
  756loPI   C4B10410   6.534  15.155   8.564 -0.0900  0.0798 -0.2044
  757loPI    C110411   0.947   0.110   5.977 -0.0908  0.0103 -0.1137
  757loPI    C210412   0.926   0.508   5.941 -0.0879  0.0489  0.2752
  757loPI    C310413   0.754   0.273   5.667 -0.0217  0.3152  0.0007
  757loPI   PO410414   0.856   0.107   6.328 -0.0302 -0.2537  0.4534
  757loPI   GL110415   0.783   0.145   6.714 -0.0503 -0.2257 -0.3227
  757loPI   GL210416   0.768   0.384   6.812  0.0634  0.0536 -0.1220
  757loPI   C1A10417   0.730  -0.094   7.071 -0.0507 -0.3792  0.1543
  757loPI   C2A10418   0.734   0.004   7.493 -0.0062 -0.2563  0.1485
  757loPI   C3A10419   0.738  -0.069   7.869  0.1040 -0.0526 -0.0078
  757loPI   C4A10420   0.597  -0.008   8.300 -0.3326  0.2789  0.1319
  757loPI   C5A10421   0.439   0.101   8.689  0.1011 -0.0265 -0.1832
  757loPI   C6A10422   0.405  -0.049   9.090 -0.0103 -0.0636 -0.1368
  757loPI   C1B10423   0.835   0.572   7.186  0.3268 -0.1433  0.1572
  757loPI   C2B10424   0.712   0.491   7.587 -0.0586  0.0321  0.1269
  757loPI   C3B10425   0.725   0.463   7.974  0.2103 -0.3100 -0.1894
  757loPI   C4B10426   0.868   0.500   8.436  0.2139  0.1637  0.1566
  758loPI    C110427  11.695   7.977   6.447 -0.0149 -0.0566  0.0357
  758loPI    C210428  11.403   7.865   6.197  0.0113 -0.0249 -0.0091
  758loPI    C310429  11.419   8.242   6.330 -0.0509 -0.0623  0.1068
  758loPI   PO410430  11.702   7.901   6.625  0.0585  0.0237 -0.2008
  758loPI   GL110431  11.604   8.129   6.913 -0.1453  0.0133 -0.0696
  758loPI   GL210432  11.393   8.291   6.838  0.1437  0.0006 -0.0121
  758loPI   C1A10433  11.503   8.081   7.377  0.0708 -0.1276  0.1011
  758loPI   C2A10434  11.476   8.056   7.742 -0.1665 -0.0233 -0.0643
  758loPI   C3A10435  11.473   7.979   8.192 -0.0357 -0.3639  0.2333
  758loPI   C4A10436  11.354   8.267   8.568 -0.0261  0.4134  0.0463
  758loPI   C5A10437  11.541   8.569   8.988  0.0871 -0.3693 -0.0167
  758loPI   C6A10438  11.682   8.988   8.996  0.1599 -0.1133 -0.2415
  758loPI   C1B10439  11.120   8.393   7.274 -0.4179  0.0885 -0.1631
  758loPI   C2B10440  11.050   8.396   7.646 -0.1292 -0.0435 -0.1048
  758loPI   C3B10441  11.145   8.349   8.071  0.0247 -0.1197  0.1125
  758loPI   C4B10442  10.931   8.520   8.435 -0.0363  0.2075  0.0371
  759loPI    C110443  13.739  11.124   6.553  0.0149  0.1127 -0.2045
  759loPI    C210444  13.601  10.778   6.407 -0.0574  0.0665 -0.0299
  759loPI    C310445  13.786  11.038   6.166  0.1252 -0.1560 -0.1334
  759loPI   PO410446  13.633  11.093   6.781 -0.2056  0.2123  0.0652
  759loPI   GL110447  13.723  11.352   7.127 -0.0801  0.1644 -0.1439
  759loPI   GL210448  13.499  11.634   7.144 -0.1175  0.0230  0.1386
  759loPI   C1A10449  14.078  11.231   7.378  0.1490  0.2356  0.2589
  759loPI   C2A10450  14.152  11.097   7.839  0.1728 -0.0956  0.1100
  759loPI   C3A10451  14.091  11.012   8.334 -0.2538 -0.1781  0.0284
  759loPI   C4A10452  14.091  11.035   8.785 -0.3256  0.1050 -0.0156
  759loPI   C5A10453  14.001  10.689   9.008 -0.0086 -0.0341 -0.5602
  759loPI   C6A10454  14.232  10.370   9.146 -0.0971  0.1302  0.1318
  759loPI   C1B10455  13.488  11.588   7.534  0.0335  0.2350  0.1666
  759loPI   C2B10456  13.255  11.597   7.885 -0.0446 -0.0388 -0.1843
  759loPI   C3B10457  13.085  11.311   8.163  0.0873  0.0466 -0.2843
  759loPI   C4B10458  12.676  11.050   8.315  0.0134 -0.1076  0.1114
  760loPI    C110459   9.221   2.899   5.980  0.0396 -0.0390 -0.1070
  760loPI    C210460   9.157   3.176   5.699  0.0388  0.1010  0.0298
  760loPI    C310461   9.172   2.790   5.599  0.1312  0.1566 -0.1764
  760loPI   PO410462   9.215   3.044   6.210  0.0408 -0.1113 -0.1844
  760loPI   GL110463   8.992   3.125   6.598 -0.2734  0.0954  0.2230
  760loPI   GL210464   9.299   2.852   6.706  0.0401 -0.1398  0.0419
  760loPI   C1A10465   8.945   3.185   6.988  0.1189 -0.0825 -0.2309
  760loPI   C2A10466   8.920   3.157   7.509 -0.2515  0.2570  0.2083
  760loPI   C3A10467   8.869   3.251   7.886  0.0994 -0.0447 -0.2315
  760loPI   C4A10468   8.938   3.208   8.288 -0.2473  0.1731  0.1668
  760loPI   C5A10469   9.132   3.145   8.712 -0.0367 -0.1826 -0.2032
  760loPI   C6A10470   9.576   2.928   8.894  0.0560 -0.0434 -0.2438
  760loPI   C1B10471   9.393   3.026   7.107 -0.1828 -0.1002 -0.0676
  760loPI   C2B10472   9.328   2.886   7.567  0.0212  0.0851  0.2741
  760loPI   C3B10473   9.353   3.050   7.943 -0.1111  0.0506  0.4857
  760loPI   C4B10474   9.422   2.965   8.342 -0.0203  0.0475  0.0055
  761loPI    C110475   8.761   7.717   6.260 -0.0925  0.0835  0.0111
  761loPI    C210476   9.001   7.925   6.017 -0.0668 -0.0999 -0.1225
  761loPI    C310477   8.611   7.893   5.933 -0.0552 -0.1765 -0.1482
  761loPI   PO410478   8.766   7.834   6.519  0.3382 -0.0588 -0.0690
  761loPI   GL110479   8.919   7.754   6.897 -0.0580 -0.1262 -0.1649
  761loPI   GL210480   9.119   8.058   6.990 -0.1148  0.4845  0.1995
  761loPI   C1A10481   8.692   7.900   7.149  0.1479  0.0739 -0.0999
  761loPI   C2A10482   8.799   7.812   7.541 -0.0839 -0.1459  0.2048
  761loPI   C3A10483   8.806   7.810   7.934  0.0546  0.0496  0.2479
  761loPI   C4A10484   8.688   7.797   8.303  0.3024  0.1984 -0.1732
  761loPI   C5A10485   8.732   7.714   8.748 -0.0206 -0.0955  0.3954
  761loPI   C6A10486   8.588   7.488   9.200 -0.1821  0.0195 -0.2347
  761loPI   C1B10487   9.225   8.027   7.380  0.1265 -0.1184  0.0014
  761loPI   C2B10488   9.199   8.083   7.810  0.0726  0.2380 -0.0240
  761loPI   C3B10489   9.253   7.992   8.193  0.0583  0.1114  0.0416
  761loPI   C4B10490   9.193   7.994   8.629 -0.0705  0.1659  0.0217
  762loPI    C110491  12.885  16.654   5.815 -0.1876  0.1748  0.0222
  762loPI    C210492  13.121  16.957   5.926  0.1638 -0.0217 -0.1691
  762loPI    C310493  13.047  16.893   5.538 -0.2747  0.0843 -0.1082
  762loPI   PO410494  12.846  16.589   6.092 -0.1848 -0.0555 -0.1987
  762loPI   GL110495  13.092  16.360   6.354 -0.2637  0.0554 -0.0908
  762loPI   GL210496  13.108  15.984   6.329  0.0475  0.1541  0.2189
  762loPI   C1A10497  13.117  16.449   6.771 -0.4220 -0.0255  0.0114
  762loPI   C2A10498  13.242  16.411   7.124 -0.1445 -0.1359 -0.0608
  762loPI   C3A10499  13.260  16.427   7.549  0.0928  0.0668  0.0065
  762loPI   C4A10500  13.204  16.394   7.936  0.0323 -0.1640  0.0838
  762loPI   C5A10501  13.205  16.455   8.422  0.0687  0.4040  0.2451
  762loPI   C6A10502  13.445  16.601   8.803 -0.1814 -0.0603 -0.2830
  762loPI   C1B10503  13.281  15.979   6.734 -0.0623 -0.0046 -0.4186
  762loPI   C2B10504  13.208  15.953   7.289  0.2521 -0.0752 -0.2524
  762loPI   C3B10505  13.180  15.877   7.659  0.0566 -0.3814 -0.2065
  762loPI   C4B10506  13.136  15.811   8.079 -0.0243 -0.1086 -0.2625
  763loPI    C110507  11.716   1.056   6.092 -0.0325 -0.0320 -0.0355
  763loPI    C210508  11.454   1.314   5.934  0.0262 -0.0787 -0.2108
  763loPI    C310509  11.330   0.957   6.065 -0.0726  0.0758  0.1275
  763loPI   PO410510  11.839   1.227   6.311 -0.0062 -0.0759  0.2624
  763loPI   GL110511  11.728   1.239   6.668  0.0838 -0.1206  0.1285
  763loPI   GL210512  11.488   0.904   6.582  0.5161 -0.0346 -0.1617
  763loPI   C1A10513  11.885   1.156   7.027  0.0212  0.1679  0.2588
  763loPI   C2A10514  12.075   1.179   7.381  0.0051 -0.0364 -0.1169
  763loPI   C3A10515  11.978   1.247   7.788  0.0273 -0.0969 -0.0229
  763loPI   C4A10516  11.946   1.289   8.242  0.0536  0.0501 -0.1320
  763loPI   C5A10517  11.751   1.037   8.548  0.2509  0.1215 -0.0077
  763loPI   C6A10518  11.369   1.019   8.812 -0.3011  0.0551  0.2708
  763loPI   C1B10519  11.465   0.904   6.929 -0.0832  0.0800  0.2647
  763loPI   C2B10520  11.632   0.950   7.372 -0.1110  0.0777  0.2217
  763loPI   C3B10521  11.591   0.989   7.807 -0.1839  0.1634 -0.3352
  763loPI   C4B10522  11.464   1.100   8.187 -0.1404 -0.1817 -0.1558
  764loPI    C110523  13.412   4.091   6.089 -0.0814 -0.1625 -0.1765
  764loPI    C210524  13.660   4.289   5.845 -0.1367 -0.0215 -0.1194
  764loPI    C310525  13.568   3.907   5.770  0.3903 -0.1931  0.0631
  764loPI   PO410526  13.515   4.184   6.370 -0.1576 -0.1292 -0.0626
  764loPI   GL110527  13.702   4.160   6.760 -0.3674 -0.2644 -0.0599
  764loPI   GL210528  14.021   4.131   6.765  0.4350  0.3107  0.0480
  764loPI   C1A10529  13.609   4.130   7.192  0.2083 -0.1913  0.0987
  764loPI   C2A10530  13.484   3.968   7.548 -0.2995 -0.0657 -0.2118
  764loPI   C3A10531  13.559   3.992   7.892 -0.1408 -0.0114  0.2798
  764loPI   C4A10532  13.469   4.008   8.325 -0.0068  0.0533 -0.3343
  764loPI   C5A10533  13.463   3.737   8.843 -0.1209  0.0422  0.0383
  764loPI   C6A10534  13.943   3.627   8.918  0.2083 -0.0937  0.1082
  764loPI   C1B10535  14.061   3.912   7.106 -0.1835 -0.0624 -0.0388
  764loPI   C2B10536  13.978   3.771   7.500  0.0800 -0.0309 -0.1423
  764loPI   C3B10537  13.978   3.721   7.955  0.0765  0.1351  0.0417
  764loPI   C4B10538  13.874   3.793   8.380  0.0123  0.1277 -0.1052
  765loPI    C110539   6.565   6.353   6.296 -0.0483  0.0650 -0.0494
  765loPI    C210540   6.473   6.621   6.014 -0.1957 -0.0133 -0.0765
  765loPI    C310541   6.722   6.321   5.929  0.3434  0.3732  0.0838
  765loPI   PO410542   6.319   6.336   6.523  0.0575 -0.0580  0.0492
  765loPI   GL110543   6.247   6.401   6.994 -0.2506 -0.1688 -0.2514
  765loPI   GL210544   6.268   6.089   7.123  0.3008  0.2295  0.1078
  765loPI   C1A10545   6.123   6.519   7.384  0.1154 -0.2483  0.1979
  765loPI   C2A10546   6.057   6.510   7.790  0.3634 -0.0207  0.1774
  765loPI   C3A10547   5.758   6.483   8.115 -0.0661  0.1854  0.2640
  765loPI   C4A10548   5.427   6.408   8.454 -0.1207  0.2177  0.2897
  765loPI   C5A10549   5.218   6.524   8.822  0.1044 -0.1737 -0.0592
  765loPI   C6A10550   4.935   6.512   9.182 -0.1129 -0.0693 -0.0618
  765loPI   C1B10551   6.360   6.010   7.510  0.2295 -0.1991  0.0825
  765loPI   C2B10552   6.303   6.083   7.823  0.1459 -0.2009 -0.0211
  765loPI   C3B10553   6.205   6.267   8.187 -0.0180  0.0858 -0.1898
  765loPI   C4B10554   5.873   6.334   8.565 -0.4036  0.3732  0.2793
  766loPI    C110555   1.122   0.997   6.198  0.1539  0.0722 -0.0058
  766loPI    C210556   0.896   1.013   5.868  0.1725 -0.2000 -0.0338
  766loPI    C310557   1.215   1.251   5.903  0.1460 -0.1397 -0.1935
  766loPI   PO410558   0.978   1.079   6.424  0.0797  0.1793  0.0212
  766loPI   GL110559   0.815   0.906   6.820 -0.0340 -0.2045  0.1654
  766loPI   GL210560   0.495   0.870   6.884  0.2161  0.0169 -0.1054
  766loPI   C1A10561   0.886   1.109   7.236  0.1069  0.2922 -0.0349
  766loPI   C2A10562   0.796   0.976   7.637 -0.2579  0.0762  0.1498
  766loPI   C3A10563   0.733   0.995   8.096  0.0871  0.0864 -0.0947
  766loPI   C4A10564   0.519   1.141   8.420 -0.0613 -0.2573  0.0950
  766loPI   C5A10565   0.136   1.311   8.718  0.3173 -0.1824 -0.3145
  766loPI   C6A10566  -0.247   1.341   8.901  0.2783  0.2387 -0.1571
  766loPI   C1B10567   0.428   0.781   7.286  0.0897  0.0404 -0.1006
  766loPI   C2B10568   0.305   0.781   7.675 -0.3481  0.1213 -0.0892
  766loPI   C3B10569   0.241   0.867   8.066  0.0888  0.0924  0.2360
  766loPI   C4B10570   0.021   0.979   8.374  0.0590 -0.1813  0.3737
  767loPI    C110571   1.189   8.200   6.416  0.0254 -0.2866  0.0981
  767loPI    C210572   1.315   8.184   6.037 -0.1863 -0.0315  0.0143
  767loPI    C310573   0.949   8.053   6.132 -0.1028 -0.1725  0.1459
  767loPI   PO410574   1.351   8.372   6.497  0.1038  0.1636  0.1131
  767loPI   GL110575   1.507   8.483   6.876 -0.2856  0.1266  0.1834
  767loPI   GL210576   1.662   8.149   6.813  0.0270 -0.1299 -0.1555
  767loPI   C1A10577   1.517   8.746   7.322  0.2528 -0.0766 -0.2629
  767loPI   C2A10578   1.518   8.778   7.808 -0.3558 -0.1794  0.1937
  767loPI   C3A10579   1.543   8.690   8.276 -0.0962  0.3443 -0.2675
  767loPI   C4A10580   1.359   8.615   8.722 -0.2141  0.2816  0.1007
  767loPI   C5A10581   1.393   8.263   9.040 -0.1296  0.5897 -0.1997
  767loPI   C6A10582   1.097   7.900   9.188  0.2762 -0.2100 -0.1367
  767loPI   C1B10583   1.539   8.140   7.194 -0.1219  0.0896  0.0760
  767loPI   C2B10584   1.619   8.220   7.597 -0.2559 -0.0086  0.1811
  767loPI   C3B10585   1.538   8.260   7.996  0.1934  0.1338  0.0392
  767loPI   C4B10586   1.564   8.113   8.441  0.1533 -0.2930  0.2763
  768loPI    C110587   2.150  10.030   6.078  0.2419 -0.2517  0.0270
  768loPI    C210588   1.943   9.690   6.112  0.1251 -0.1859 -0.0204
  768loPI    C310589   2.208   9.734   5.816 -0.0512 -0.1366 -0.1725
  768loPI   PO410590   2.224  10.080   6.363  0.0969  0.0027 -0.1111
  768loPI   GL110591   2.419  10.046   6.755 -0.0489  0.0822 -0.0204
  768loPI   GL210592   2.451   9.784   6.992 -0.4097 -0.0442 -0.2403
  768loPI   C1A10593   2.687  10.268   7.102 -0.0087 -0.0068 -0.0249
  768loPI   C2A10594   2.770  10.311   7.539 -0.0313  0.3526 -0.1003
  768loPI   C3A10595   2.525  10.418   7.929  0.0392 -0.1274 -0.0440
  768loPI   C4A10596   2.399  10.392   8.271 -0.1405 -0.1060 -0.2770
  768loPI   C5A10597   2.387  10.401   8.646  0.0613  0.2791  0.0547
  768loPI   C6A10598   2.469  10.669   9.050  0.1454  0.0927 -0.0435
  768loPI   C1B10599   2.533   9.885   7.454  0.2190  0.1292  0.0155
  768loPI   C2B10600   2.440   9.947   7.910 -0.0238 -0.0669  0.0936
  768loPI   C3B10601   2.481   9.924   8.384 -0.0726 -0.2862  0.0179
  768loPI   C4B10602   2.172   9.904   8.724 -0.1205  0.0253 -0.1407
  769loPI    C110603  11.052  16.500   6.030 -0.1033 -0.1985 -0.2392
  769loPI    C210604  10.849  16.759   5.803  0.1042  0.1606 -0.0246
  769loPI    C310605  11.248  16.740   5.777  0.0975 -0.0806  0.0234
  769loPI   PO410606  10.899  16.484   6.229  0.0806 -0.0976 -0.0152
  769loPI   GL110607  11.084  16.440   6.617  0.0268 -0.2405  0.1746
  769loPI   GL210608  11.094  16.208   6.758 -0.0032  0.4306  0.0275
  769loPI   C1A10609  10.996  16.710   7.016  0.2258  0.0624 -0.2755
  769loPI   C2A10610  11.051  16.747   7.499  0.0771 -0.1627  0.1386
  769loPI   C3A10611  11.042  16.637   7.939 -0.2640 -0.0534 -0.0424
  769loPI   C4A10612  10.946  16.602   8.429  0.2003 -0.1269  0.0464
  769loPI   C5A10613  10.895  16.850   8.772 -0.0472  0.0668  0.1332
  769loPI   C6A10614  10.702  17.242   8.849 -0.0178 -0.0402  0.0978
  769loPI   C1B10615  11.073  16.181   7.239  0.0513  0.1668 -0.0049
  769loPI   C2B10616  11.065  16.206   7.648 -0.2869 -0.0811 -0.2335
  769loPI   C3B10617  10.977  16.171   8.056 -0.2904  0.1425 -0.3045
  769loPI   C4B10618  11.052  16.138   8.426  0.1161  0.2077  0.1242
  770loPI    C110619   7.130  12.826   6.281 -0.0533 -0.1520  0.0339
  770loPI    C210620   7.511  12.815   6.160  0.0403 -0.0894  0.3143
  770loPI    C310621   7.243  12.562   6.003  0.1241  0.0841 -0.1215
  770loPI   PO410622   7.118  12.865   6.554  0.2161 -0.0373  0.3132
  770loPI   GL110623   7.001  13.170   6.822 -0.3673 -0.3141  0.1584
  770loPI   GL210624   7.111  13.478   6.802 -0.1369 -0.0047 -0.1157
  770loPI   C1A10625   6.889  13.284   7.209  0.0382  0.1300 -0.2650
  770loPI   C2A10626   6.986  13.476   7.678 -0.0897  0.1877  0.0302
  770loPI   C3A10627   6.976  13.429   8.142 -0.1602  0.1359 -0.1824
  770loPI   C4A10628   6.967  13.426   8.625  0.1637  0.1039 -0.3509
  770loPI   C5A10629   6.785  13.701   8.915  0.1329 -0.0503  0.0563
  770loPI   C6A10630   6.754  14.109   8.758 -0.0811  0.3139  0.1321
  770loPI   C1B10631   7.013  13.779   7.140  0.1486  0.1758 -0.0245
  770loPI   C2B10632   7.150  13.937   7.516  0.1329  0.4271 -0.0260
  770loPI   C3B10633   7.128  13.877   7.916 -0.0950 -0.1135 -0.0876
  770loPI   C4B10634   7.140  13.918   8.405 -0.1000  0.1418 -0.1280
  771loPI    C110635  12.992  15.281   5.967  0.1147 -0.1006  0.0210
  771loPI    C210636  13.260  15.052   5.777 -0.0585 -0.2779 -0.0125
  771loPI    C310637  13.012  15.286   5.567 -0.1963 -0.4139 -0.0027
  771loPI   PO410638  13.177  15.362   6.184  0.0353 -0.4124 -0.0793
  771loPI   GL110639  12.970  15.490   6.557 -0.0183 -0.3275 -0.0594
  771loPI   GL210640  12.780  15.779   6.685 -0.0563 -0.1499 -0.0309
  771loPI   C1A10641  13.279  15.473   6.898 -0.1447 -0.0330 -0.1766
  771loPI   C2A10642  13.145  15.370   7.312  0.2695  0.1016 -0.0390
  771loPI   C3A10643  13.151  15.361   7.743  0.1004  0.0174 -0.0783
  771loPI   C4A10644  13.210  15.311   8.209  0.0046  0.1959 -0.1274
  771loPI   C5A10645  13.415  15.540   8.565  0.3937  0.1210  0.1771
  771loPI   C6A10646  13.539  15.682   8.898  0.3195 -0.3909  0.2194
  771loPI   C1B10647  12.798  15.670   7.094  0.1848 -0.0195  0.1671
  771loPI   C2B10648  12.759  15.684   7.536 -0.2802  0.3283  0.2233
  771loPI   C3B10649  12.731  15.581   7.994 -0.1958  0.1281  0.0027
  771loPI   C4B10650  12.880  15.585   8.407 -0.0665  0.0272 -0.0425
  772loPI    C110651   1.533   0.595   6.159  0.0577 -0.0602 -0.2444
  772loPI    C210652   1.357   0.755   5.837 -0.0925 -0.1081 -0.1867
  772loPI    C310653   1.588   0.982   6.072  0.0265 -0.0757 -0.3335
  772loPI   PO410654   1.360   0.509   6.285  0.1406 -0.4189  0.0875
  772loPI   GL110655   1.275   0.325   6.744  0.0306 -0.0271 -0.1351
  772loPI   GL210656   1.289   0.688   6.870  0.1969 -0.2928  0.1886
  772loPI   C1A10657   1.160   0.199   7.115 -0.1448 -0.2561  0.1075
  772loPI   C2A10658   1.237   0.353   7.515  0.0513  0.3166 -0.0765
  772loPI   C3A10659   1.193   0.263   7.963  0.2902  0.1321 -0.1704
  772loPI   C4A10660   1.113   0.055   8.388 -0.2748 -0.0424  0.0890
  772loPI   C5A10661   1.191   0.145   8.724  0.1816 -0.1864 -0.1532
  772loPI   C6A10662   0.928   0.119   9.140  0.2025 -0.1132  0.0556
  772loPI   C1B10663   1.315   0.820   7.331  0.2871 -0.0649  0.2560
  772loPI   C2B10664   1.284   0.763   7.831 -0.2796  0.1813  0.0074
  772loPI   C3B10665   1.323   0.678   8.234 -0.3036 -0.0392 -0.3659
  772loPI   C4B10666   1.287   0.607   8.651 -0.0837  0.0468 -0.3355
  773loPI    C110667  14.442  10.635   6.490  0.1125 -0.0340 -0.1479
  773loPI    C210668  14.174  10.932   6.480  0.1436 -0.0060 -0.1609
  773loPI    C310669  14.103  10.591   6.283  0.1396  0.0199 -0.2042
  773loPI   PO410670  14.469  10.569   6.731  0.1010  0.2160 -0.0651
  773loPI   GL110671  14.356  10.560   7.074 -0.2362 -0.2200 -0.2595
  773loPI   GL210672  14.385  10.265   7.273 -0.3540 -0.0177  0.0126
  773loPI   C1A10673  14.154  10.654   7.430  0.0686  0.1088  0.0909
  773loPI   C2A10674  14.303  10.643   7.785  0.0500  0.0058 -0.1544
  773loPI   C3A10675  14.422  10.628   8.179  0.0693 -0.2446 -0.4442
  773loPI   C4A10676  14.542  10.916   8.441  0.1391 -0.4516  0.0023
  773loPI   C5A10677  14.660  11.177   8.778 -0.0879  0.1547  0.1208
  773loPI   C6A10678  14.844  11.480   9.145 -0.0234  0.3276  0.2862
  773loPI   C1B10679  14.585  10.247   7.661 -0.0019  0.0697  0.0106
  773loPI   C2B10680  14.798  10.113   8.102  0.2502  0.0268  0.2316
  773loPI   C3B10681  15.081  10.106   8.414  0.1334  0.3113 -0.0573
  773loPI   C4B10682  15.174  10.358   8.702  0.0306  0.0487 -0.1438
  774loPI    C110683  11.009  12.693   6.180  0.0810 -0.1290 -0.3054
  774loPI    C210684  10.672  12.638   5.971  0.0368 -0.4282 -0.1609
  774loPI    C310685  11.022  12.511   5.824  0.0714 -0.2239 -0.2577
  774loPI   PO410686  10.940  12.633   6.479  0.1699 -0.2338 -0.0343
  774loPI   GL110687  10.899  12.550   6.862  0.0088  0.1915  0.1180
  774loPI   GL210688  10.898  12.162   6.721 -0.2058  0.0245 -0.1503
  774loPI   C1A10689  11.160  12.378   7.100 -0.2513  0.0725 -0.1660
  774loPI   C2A10690  11.174  12.313   7.498 -0.1110  0.2727  0.1011
  774loPI   C3A10691  11.020  12.306   7.912  0.0060 -0.0477 -0.0738
  774loPI   C4A10692  11.055  12.408   8.321  0.1672 -0.1278 -0.0839
  774loPI   C5A10693  11.061  12.344   8.777  0.1326  0.1769  0.0303
  774loPI   C6A10694  11.290  12.380   9.091 -0.0036  0.1228  0.2747
  774loPI   C1B10695  11.077  11.906   7.018 -0.0158 -0.0270  0.0550
  774loPI   C2B10696  11.056  11.820   7.437  0.0098  0.0802 -0.2975
  774loPI   C3B10697  10.996  11.823   7.895 -0.0123 -0.1312  0.2347
  774loPI   C4B10698  11.002  11.896   8.318 -0.0707  0.0472  0.1212
  775loPI    C110699   5.549  14.950   6.248 -0.1371 -0.0330  0.1761
  775loPI    C210700   5.547  14.605   6.450  0.0284 -0.1378  0.0027
  775loPI    C310701   5.329  14.643   6.117 -0.1882  0.0110  0.1589
  775loPI   PO410702   5.600  15.084   6.413 -0.1819  0.0922 -0.0525
  775loPI   GL110703   5.708  14.927   6.806  0.2878  0.0447 -0.5496
  775loPI   GL210704   5.464  14.758   6.918 -0.0899 -0.1485 -0.2459
  775loPI   C1A10705   5.852  15.078   7.177  0.0840  0.0547  0.0666
  775loPI   C2A10706   5.888  15.213   7.565 -0.2043  0.0388  0.1018
  775loPI   C3A10707   5.934  15.185   7.985 -0.0461  0.2425 -0.0293
  775loPI   C4A10708   5.989  15.288   8.399  0.2192 -0.0422 -0.1021
  775loPI   C5A10709   5.954  15.522   8.759 -0.0632 -0.0673  0.2362
  775loPI   C6A10710   5.760  15.788   9.096  0.0150  0.3832 -0.2562
  775loPI   C1B10711   5.150  14.638   7.253 -0.1405 -0.2745  0.0216
  775loPI   C2B10712   5.258  14.667   7.677 -0.2390 -0.0847  0.2071
  775loPI   C3B10713   5.039  14.501   8.054 -0.1950  0.0589  0.0120
  775loPI   C4B10714   4.877  14.395   8.496 -0.0102 -0.1780 -0.0441
  776loPI    C110715   0.303  13.759   5.960  0.0356 -0.1322  0.0649
  776loPI    C210716   0.063  14.022   5.778  0.0725 -0.1001  0.0626
  776loPI    C310717   0.278  13.763   5.561  0.0520 -0.1184  0.0640
  776loPI   PO410718   0.382  13.889   6.166 -0.0935  0.1824 -0.0012
  776loPI   GL110719   0.362  13.706   6.590 -0.4890  0.3655  0.1651
  776loPI   GL210720   0.149  13.516   6.465 -0.0810 -0.0647 -0.0597
  776loPI   C1A10721   0.624  13.797   6.920 -0.1226 -0.0650  0.1742
  776loPI   C2A10722   0.634  13.828   7.334  0.0289 -0.0859  0.0432
  776loPI   C3A10723   0.627  13.822   7.713 -0.0585 -0.1290 -0.0014
  776loPI   C4A10724   0.478  13.890   8.143 -0.0796 -0.3325 -0.0991
  776loPI   C5A10725   0.745  13.915   8.450 -0.1372  0.1018  0.3604
  776loPI   C6A10726   0.983  14.140   8.775  0.0429 -0.0297  0.0285
  776loPI   C1B10727   0.111  13.543   6.974  0.0563 -0.2422 -0.1002
  776loPI   C2B10728   0.194  13.504   7.368  0.0152 -0.0268  0.1733
  776loPI   C3B10729   0.127  13.636   7.819 -0.0173  0.0393 -0.0389
  776loPI   C4B10730   0.008  13.735   8.168  0.1805 -0.0350  0.0357
  777loPI    C110731   6.216   2.822   6.172  0.0391 -0.4112 -0.0693
  777loPI    C210732   5.884   2.921   5.973  0.0990  0.0741  0.0595
  777loPI    C310733   6.198   2.770   5.776 -0.1498 -0.2775 -0.0792
  777loPI   PO410734   6.142   2.747   6.375 -0.0996 -0.1524 -0.2346
  777loPI   GL110735   6.238   2.753   6.881  0.0718 -0.1915 -0.2508
  777loPI   GL210736   6.495   2.798   6.746 -0.0148 -0.1162  0.0262
  777loPI   C1A10737   6.145   2.814   7.349  0.1137  0.0274 -0.0563
  777loPI   C2A10738   6.159   2.839   7.777 -0.3372  0.0408  0.2069
  777loPI   C3A10739   6.194   2.722   8.190  0.0127  0.1782  0.1307
  777loPI   C4A10740   6.207   2.622   8.722 -0.1625  0.0582  0.0465
  777loPI   C5A10741   6.446   2.801   9.006  0.2289 -0.2896  0.0163
  777loPI   C6A10742   6.902   2.622   9.105 -0.0839  0.2455 -0.3560
  777loPI   C1B10743   6.573   3.019   7.152  0.0674  0.0690 -0.2679
  777loPI   C2B10744   6.685   3.081   7.595  0.2183  0.0702 -0.1266
  777loPI   C3B10745   6.658   3.044   8.031  0.0328 -0.0065  0.1979
  777loPI   C4B10746   6.553   2.906   8.430  0.0625 -0.1551  0.2360
  778loPI    C110747  11.433  14.956   6.022  0.2329  0.2473  0.0512
  778loPI    C210748  11.345  14.580   5.919 -0.1635  0.2921  0.2087
  778loPI    C310749  11.445  14.846   5.638 -0.1094  0.1289  0.0717
  778loPI   PO410750  11.259  14.883   6.339  0.1756 -0.0189 -0.1531
  778loPI   GL110751  11.329  14.956   6.727 -0.1306  0.0352  0.1062
  778loPI   GL210752  11.358  15.243   6.787  0.1502 -0.0926  0.1325
  778loPI   C1A10753  11.311  14.893   7.196 -0.1070  0.1657 -0.1196
  778loPI   C2A10754  11.400  15.023   7.602 -0.1908  0.2441  0.1693
  778loPI   C3A10755  11.429  14.884   7.964 -0.0856 -0.2483  0.2497
  778loPI   C4A10756  11.380  14.873   8.433  0.1408 -0.1556  0.2080
  778loPI   C5A10757  11.450  15.115   8.808 -0.0184  0.0985  0.0923
  778loPI   C6A10758  11.797  15.367   9.052  0.3002  0.1775 -0.0986
  778loPI   C1B10759  11.391  15.400   7.182 -0.0456 -0.1850 -0.2287
  778loPI   C2B10760  11.421  15.491   7.581 -0.0398 -0.1769 -0.0351
  778loPI   C3B10761  11.478  15.381   7.989 -0.1889 -0.0878 -0.0590
  778loPI   C4B10762  11.473  15.373   8.409  0.2745  0.0858 -0.1637
  779loPI    C110763   9.976   2.996   5.947  0.2396 -0.1112 -0.0940
  779loPI    C210764   9.651   3.229   5.973  0.2466 -0.1325  0.2300
  779loPI    C310765   9.643   2.899   5.747  0.2516  0.1992 -0.2713
  779loPI   PO410766  10.062   2.995   6.297 -0.2772  0.0560 -0.0192
  779loPI   GL110767  10.115   2.848   6.622  0.2984 -0.1500  0.1439
  779loPI   GL210768  10.348   2.685   6.612 -0.0730 -0.0759  0.1759
  779loPI   C1A10769   9.890   2.824   7.046  0.0045  0.0637  0.1845
  779loPI   C2A10770   9.827   2.711   7.600  0.3851  0.0804  0.0788
  779loPI   C3A10771   9.798   2.690   8.069  0.0598 -0.3587 -0.0104
  779loPI   C4A10772   9.901   2.814   8.489  0.0325 -0.0424 -0.1719
  779loPI   C5A10773  10.123   2.982   8.771 -0.0631  0.2949 -0.4776
  779loPI   C6A10774  10.091   3.061   9.193 -0.0422  0.0218  0.0966
  779loPI   C1B10775  10.429   2.802   7.017  0.0168 -0.3182 -0.1910
  779loPI   C2B10776  10.274   2.843   7.424  0.0511 -0.1393 -0.1592
  779loPI   C3B10777  10.301   2.962   7.835  0.0316 -0.1361  0.1156
  779loPI   C4B10778  10.303   3.123   8.322 -0.1452 -0.0661  0.0853
  780loPI    C110779  10.134   1.211   6.355  0.1615  0.0161 -0.1952
  780loPI    C210780  10.135   1.569   6.177  0.1581  0.2533  0.2682
  780loPI    C310781   9.858   1.483   6.453 -0.0147 -0.2145 -0.0386
  780loPI   PO410782  10.373   1.192   6.494  0.0756 -0.0009 -0.1809
  780loPI   GL110783  10.498   1.096   6.882 -0.2839  0.0911 -0.0304
  780loPI   GL210784  10.578   0.800   6.779 -0.0872  0.2897  0.0273
  780loPI   C1A10785  10.650   0.960   7.263  0.0069 -0.0005  0.0745
  780loPI   C2A10786  10.676   1.006   7.750  0.1144 -0.0170 -0.1704
  780loPI   C3A10787  10.574   1.152   8.128 -0.1369  0.2673  0.0517
  780loPI   C4A10788  10.675   1.282   8.589  0.0468  0.1052 -0.2947
  780loPI   C5A10789  10.840   1.402   8.965  0.3157 -0.0024 -0.1030
  780loPI   C6A10790  11.087   1.430   9.172  0.1677  0.0175  0.1998
  780loPI   C1B10791  10.615   0.483   7.135 -0.0794 -0.1542  0.1680
  780loPI   C2B10792  10.604   0.458   7.595  0.1357 -0.3037 -0.0010
  780loPI   C3B10793  10.677   0.610   8.022  0.2427  0.1596 -0.0313
  780loPI   C4B10794  10.581   0.328   8.391 -0.1972 -0.0207  0.0189
  781loPI    C110795   0.252  16.530   5.972 -0.1391  0.1206  0.1201
  781loPI    C210796   0.112  16.224   5.757  0.0806  0.0298  0.1028
  781loPI    C310797   0.215  16.564   5.575  0.0688  0.0272  0.0913
  781loPI   PO410798   0.116  16.566   6.168  0.0045  0.1757  0.1628
  781loPI   GL110799   0.096  16.566   6.629 -0.1706  0.2483 -0.2315
  781loPI   GL210800   0.454  16.773   6.681  0.0356 -0.1665 -0.1115
  781loPI   C1A10801  -0.172  16.518   7.026 -0.2132  0.0489 -0.1143
  781loPI   C2A10802  -0.218  16.579   7.488  0.1729  0.0076 -0.1584
  781loPI   C3A10803  -0.245  16.623   7.979 -0.0729 -0.4357 -0.0748
  781loPI   C4A10804  -0.150  16.582   8.443 -0.1630 -0.1305  0.0848
  781loPI   C5A10805   0.147  16.744   8.775  0.0646 -0.2689  0.2827
  781loPI   C6A10806   0.608  16.713   8.698  0.1274  0.0982  0.1717
  781loPI   C1B10807   0.324  16.748   7.096 -0.0020 -0.1580  0.0099
  781loPI   C2B10808   0.259  16.823   7.510 -0.2827 -0.1870  0.0595
  781loPI   C3B10809   0.224  16.799   7.941  0.0728 -0.2225  0.1118
  781loPI   C4B10810   0.127  16.994   8.333 -0.0685  0.0627 -0.2109
  782loPI    C110811   5.655   6.346   6.608  0.0214  0.0625 -0.0283
  782loPI    C210812   5.321   6.367   6.828 -0.0606 -0.1516 -0.1291
  782loPI    C310813   5.296   6.344   6.429  0.0765 -0.1179 -0.1401
  782loPI   PO410814   5.816   6.137   6.793 -0.0653 -0.3705  0.2207
  782loPI   GL110815   5.787   6.055   7.191  0.1108  0.0856  0.1277
  782loPI   GL210816   5.478   5.918   7.132 -0.2701  0.1780 -0.2338
  782loPI   C1A10817   5.901   5.999   7.602  0.3241 -0.1130  0.0634
  782loPI   C2A10818   5.889   5.910   8.055 -0.1011 -0.1249 -0.1472
  782loPI   C3A10819   6.086   5.863   8.491 -0.1616 -0.0896  0.0716
  782loPI   C4A10820   6.082   6.016   8.855  0.1312  0.2745  0.1950
  782loPI   C5A10821   6.163   6.144   9.248 -0.2721  0.0918  0.0368
  782loPI   C6A10822   6.210   6.343   9.636 -0.0206  0.1041 -0.6432
  782loPI   C1B10823   5.645   5.620   7.456 -0.0522  0.1097 -0.0719
  782loPI   C2B10824   5.655   5.518   7.823  0.2410 -0.0451 -0.1887
  782loPI   C3B10825   5.537   5.441   8.223  0.1305  0.0426  0.2431
  782loPI   C4B10826   5.694   5.504   8.638 -0.3467  0.2165  0.0841
  783loPI    C110827   3.493   1.410   6.161  0.3086  0.1142  0.0562
  783loPI    C210828   3.463   1.045   6.000  0.0692  0.1516  0.0120
  783loPI    C310829   3.818   1.179   6.126  0.1808 -0.0475 -0.0847
  783loPI   PO410830   3.282   1.458   6.394 -0.0495  0.0029 -0.0656
  783loPI   GL110831   3.295   1.444   6.835 -0.0789 -0.3739 -0.0067
  783loPI   GL210832   3.303   1.151   7.028 -0.2804  0.2791 -0.1317
  783loPI   C1A10833   3.289   1.639   7.206  0.1624 -0.2269  0.1061
  783loPI   C2A10834   3.203   1.578   7.614 -0.1466 -0.0916 -0.0030
  783loPI   C3A10835   3.227   1.601   8.063 -0.1914  0.0155  0.1011
  783loPI   C4A10836   3.316   1.749   8.561 -0.1696 -0.0580  0.0807
  783loPI   C5A10837   3.176   1.914   8.865  0.0869  0.3483 -0.3063
  783loPI   C6A10838   3.199   2.360   8.978 -0.2314 -0.1591 -0.0555
  783loPI   C1B10839   3.173   0.996   7.485  0.1583  0.1649  0.0266
  783loPI   C2B10840   3.151   1.094   7.814  0.0945  0.0515 -0.2769
  783loPI   C3B10841   3.126   0.942   8.302 -0.0695  0.0656  0.3278
  783loPI   C4B10842   2.954   0.840   8.740 -0.0465 -0.0949  0.0110
  784loPI    C110843   7.270   8.367   6.284 -0.2261 -0.2631  0.4667
  784loPI    C210844   7.002   8.079   6.211 -0.0336 -0.3198 -0.0644
  784loPI    C310845   7.213   8.237   5.910  0.1807  0.0712  0.2792
  784loPI   PO410846   7.438   8.222   6.492 -0.0642  0.4060  0.0243
  784loPI   GL110847   7.432   7.918   6.702  0.2857 -0.3114  0.0575
  784loPI   GL210848   7.068   7.940   6.748 -0.2379 -0.0029 -0.2460
  784loPI   C1A10849   7.375   8.074   7.137 -0.3957  0.2425 -0.2228
  784loPI   C2A10850   7.450   8.128   7.444 -0.3202  0.0108  0.0338
  784loPI   C3A10851   7.530   8.101   7.813 -0.0328 -0.3801  0.2383
  784loPI   C4A10852   7.471   8.131   8.273  0.0962 -0.0568 -0.0996
  784loPI   C5A10853   7.639   8.227   8.731  0.2626  0.3668  0.0158
  784loPI   C6A10854   8.100   8.400   8.851 -0.1389 -0.0882  0.0348
  784loPI   C1B10855   6.968   7.900   7.216  0.0659 -0.1465 -0.0826
  784loPI   C2B10856   6.961   7.841   7.633 -0.1187 -0.3152  0.0344
  784loPI   C3B10857   7.096   7.896   7.937 -0.1149  0.1288 -0.4572
  784loPI   C4B10858   7.062   7.851   8.452 -0.1269  0.2169 -0.1780
  785loPI    C110859   1.684   5.220   6.354 -0.1235  0.1651  0.0833
  785loPI    C210860   1.411   4.932   6.411  0.0715 -0.0132  0.1294
  785loPI    C310861   1.649   4.921   6.090  0.1099  0.0725  0.1546
  785loPI   PO410862   1.825   5.250   6.583 -0.0498 -0.3675 -0.0387
  785loPI   GL110863   2.163   5.062   6.889 -0.3109 -0.0969  0.0406
  785loPI   GL210864   2.324   4.780   6.929 -0.3879 -0.0676  0.2676
  785loPI   C1A10865   2.347   5.248   7.240 -0.1245  0.0700  0.0220
  785loPI   C2A10866   2.250   5.225   7.618 -0.0022 -0.1844  0.0661
  785loPI   C3A10867   2.288   5.326   8.015  0.1404 -0.2156  0.2437
  785loPI   C4A10868   2.377   5.294   8.388  0.1080 -0.0685 -0.1921
  785loPI   C5A10869   2.390   5.357   8.835 -0.0770  0.2660 -0.1052
  785loPI   C6A10870   2.278   5.572   9.130 -0.0429  0.0736  0.0868
  785loPI   C1B10871   2.313   4.742   7.411  0.1187 -0.0350  0.1017
  785loPI   C2B10872   2.342   4.765   7.862  0.0240 -0.0841 -0.0039
  785loPI   C3B10873   2.449   4.843   8.216 -0.1077 -0.2591 -0.0182
  785loPI   C4B10874   2.529   4.801   8.643 -0.2594 -0.1014 -0.1522
  786loPI    C110875   2.054  15.010   6.294 -0.0517 -0.1734 -0.0118
  786loPI    C210876   1.912  14.710   6.071  0.0447 -0.2533  0.0335
  786loPI    C310877   2.306  14.748   6.127  0.0378 -0.0737 -0.0344
  786loPI   PO410878   1.951  15.009   6.575  0.1715  0.0503  0.4328
  786loPI   GL110879   2.116  14.731   6.981 -0.2031 -0.2264 -0.1495
  786loPI   GL210880   2.245  15.087   6.945  0.1045 -0.5102 -0.2100
  786loPI   C1A10881   1.998  14.690   7.400 -0.4086 -0.0975 -0.0120
  786loPI   C2A10882   1.983  14.651   7.813 -0.0999 -0.2420  0.1732
  786loPI   C3A10883   1.812  14.515   8.198  0.3062 -0.1796 -0.0186
  786loPI   C4A10884   1.695  14.489   8.605  0.0171  0.1727  0.0067
  786loPI   C5A10885   1.989  14.359   8.964 -0.3980 -0.0633  0.0543
  786loPI   C6A10886   1.859  13.862   8.988  0.0940  0.2977  0.1779
  786loPI   C1B10887   2.401  15.048   7.264 -0.3171 -0.1998  0.1477
  786loPI   C2B10888   2.366  14.939   7.717 -0.0227 -0.1083 -0.1201
  786loPI   C3B10889   2.294  14.760   8.157 -0.0859 -0.1087 -0.1495
  786loPI   C4B10890   2.205  14.620   8.599  0.1181  0.0386  0.2524
  787loPI    C110891  10.760   6.419   6.365  0.0978 -0.1085 -0.0370
  787loPI    C210892  11.147   6.342   6.429  0.1667  0.0817 -0.2112
  787loPI    C310893  10.970   6.214   6.093  0.0594 -0.0636 -0.1010
  787loPI   PO410894  10.701   6.595   6.389 -0.2450 -0.2330  0.0889
  787loPI   GL110895  10.575   6.798   6.795  0.2762 -0.0556  0.0463
  787loPI   GL210896  10.906   6.595   6.820  0.1238 -0.2548  0.2022
  787loPI   C1A10897  10.497   6.653   7.184  0.0600  0.4494 -0.0284
  787loPI   C2A10898  10.381   6.589   7.666  0.0031 -0.0232  0.0433
  787loPI   C3A10899  10.425   6.487   8.150  0.1672  0.0648 -0.1473
  787loPI   C4A10900  10.339   6.510   8.572  0.2411 -0.3330  0.4612
  787loPI   C5A10901  10.288   6.675   8.954 -0.0645 -0.0737  0.2002
  787loPI   C6A10902   9.961   6.887   9.252 -0.0144 -0.5237 -0.0099
  787loPI   C1B10903  10.899   6.363   7.190  0.0625 -0.0102  0.3041
  787loPI   C2B10904  10.787   6.268   7.541  0.1119  0.0455  0.0272
  787loPI   C3B10905  10.807   6.254   7.911  0.1223  0.2002 -0.3134
  787loPI   C4B10906  10.808   6.224   8.394 -0.0692 -0.1618 -0.0314
  788loPI    C110907  11.292  13.890   6.298  0.1307  0.0902  0.1679
  788loPI    C210908  11.165  14.111   5.990 -0.0586 -0.0693  0.1295
  788loPI    C310909  11.356  13.766   5.923 -0.2976 -0.2157  0.1880
  788loPI   PO410910  11.345  14.027   6.524 -0.0165  0.1014  0.0735
  788loPI   GL110911  11.285  13.897   6.977 -0.1377 -0.3183 -0.0643
  788loPI   GL210912  11.301  13.709   7.202  0.1148  0.0785  0.1503
  788loPI   C1A10913  11.247  14.247   7.348 -0.2725 -0.0692 -0.1235
  788loPI   C2A10914  11.313  14.428   7.816 -0.1002  0.2763  0.3863
  788loPI   C3A10915  11.326  14.349   8.181 -0.0087 -0.0432  0.2013
  788loPI   C4A10916  11.396  14.379   8.614  0.0895  0.0856  0.0427
  788loPI   C5A10917  11.606  14.330   9.003  0.1657  0.0054 -0.1269
  788loPI   C6A10918  11.683  14.156   9.352 -0.0266  0.0333  0.1481
  788loPI   C1B10919  11.211  13.811   7.619 -0.0565 -0.1199 -0.1048
  788loPI   C2B10920  11.221  13.901   8.022 -0.2315  0.0350  0.2466
  788loPI   C3B10921  11.224  13.904   8.494  0.2703  0.0239 -0.0312
  788loPI   C4B10922  11.103  14.056   8.989 -0.2747 -0.3850 -0.1368
  789loPI    C110923   9.469   5.079   5.909  0.1409  0.0194 -0.0364
  789loPI    C210924   9.319   5.421   5.768  0.1731  0.0955  0.1124
  789loPI    C310925   9.073   5.124   5.875  0.1462  0.0602 -0.0443
  789loPI   PO410926   9.541   5.129   6.083 -0.2558  0.1231 -0.1491
  789loPI   GL110927   9.551   5.162   6.502 -0.0771 -0.0683 -0.0826
  789loPI   GL210928   9.222   5.044   6.541 -0.0919  0.3987  0.0531
  789loPI   C1A10929   9.571   5.059   6.909  0.3461 -0.2642 -0.0692
  789loPI   C2A10930   9.393   5.072   7.221 -0.3111  0.0649  0.0155
  789loPI   C3A10931   9.427   5.041   7.645  0.0715 -0.2264 -0.1715
  789loPI   C4A10932   9.314   5.099   8.141 -0.0512  0.1391 -0.0977
  789loPI   C5A10933   9.291   4.968   8.612 -0.0620 -0.2382 -0.1574
  789loPI   C6A10934   9.440   5.294   8.700 -0.1412 -0.1511  0.0110
  789loPI   C1B10935   8.980   4.886   6.804 -0.1727  0.0595 -0.1476
  789loPI   C2B10936   8.937   4.813   7.268  0.1872 -0.1133  0.0853
  789loPI   C3B10937   8.979   4.886   7.732 -0.1749 -0.0694  0.1756
  789loPI   C4B10938   8.904   4.831   8.201  0.0444  0.2888 -0.0634
  790loPI    C110939  16.473  16.531   5.933 -0.1144  0.0379 -0.0218
  790loPI    C210940  16.804  16.343   6.056 -0.0301  0.1780 -0.0315
  790loPI    C310941  16.574  16.179   5.772  0.0232  0.0738 -0.0152
  790loPI   PO410942  16.393  16.594   6.152  0.0199 -0.2876 -0.4387
  790loPI   GL110943  16.529  16.393   6.580  0.1750 -0.3096 -0.2094
  790loPI   GL210944  16.827  16.174   6.582 -0.2646 -0.0737  0.3268
  790loPI   C1A10945  16.483  16.258   7.063  0.0980  0.0399 -0.1920
  790loPI   C2A10946  16.412  16.249   7.462 -0.1404 -0.2318  0.0520
  790loPI   C3A10947  16.369  16.397   7.922 -0.0459 -0.0775  0.2291
  790loPI   C4A10948  16.430  16.588   8.328  0.0483  0.3336  0.0219
  790loPI   C5A10949  16.204  16.691   8.741 -0.2752 -0.2654  0.0939
  790loPI   C6A10950  16.253  16.692   9.120  0.1697  0.1629  0.1545
  790loPI   C1B10951  16.911  16.019   6.991 -0.0330  0.1288  0.2482
  790loPI   C2B10952  16.911  16.037   7.419  0.1671 -0.2214  0.1404
  790loPI   C3B10953  16.808  16.091   7.806 -0.0882 -0.0822 -0.1015
  790loPI   C4B10954  16.818  16.177   8.286  0.1645 -0.1674  0.0682
  791loPI    C110955  10.583   3.551   5.995  0.3311  0.1287  0.2015
  791loPI    C210956  10.394   3.805   6.241  0.0177  0.2363 -0.1412
  791loPI    C310957  10.511   3.927   5.878  0.1898 -0.0092 -0.1711
  791loPI   PO410958  10.473   3.316   6.162 -0.4530  0.0829 -0.0417
  791loPI   GL110959  10.569   3.120   6.594 -0.0526  0.0378  0.0034
  791loPI   GL210960  10.852   3.229   6.804 -0.0259  0.2538 -0.1830
  791loPI   C1A10961  10.267   3.331   6.976 -0.2514 -0.0614  0.0752
  791loPI   C2A10962  10.259   3.366   7.443 -0.2211 -0.2348 -0.2422
  791loPI   C3A10963  10.285   3.545   7.923  0.0574  0.2022  0.0620
  791loPI   C4A10964  10.224   3.584   8.350  0.0948  0.1680  0.1012
  791loPI   C5A10965  10.366   3.679   8.741 -0.4152 -0.2518  0.1082
  791loPI   C6A10966  10.782   3.672   8.885  0.1864 -0.1050 -0.1098
  791loPI   C1B10967  10.768   3.408   7.188  0.0638 -0.0297  0.1520
  791loPI   C2B10968  10.771   3.617   7.567 -0.2743  0.3367  0.1343
  791loPI   C3B10969  10.729   3.707   7.985 -0.2475  0.2136  0.1477
  791loPI   C4B10970  10.768   3.851   8.414 -0.3540  0.3144  0.2474
  792loPI    C110971   5.318   0.455   6.550  0.2618  0.0656 -0.1288
  792loPI    C210972   5.416   0.581   6.183 -0.0154 -0.0099 -0.2308
  792loPI    C310973   5.380   0.190   6.257 -0.1257  0.0120 -0.1665
  792loPI   PO410974   5.529   0.555   6.755  0.0685  0.0604 -0.0221
  792loPI   GL110975   5.566   0.421   7.147 -0.2250 -0.2599 -0.1091
  792loPI   GL210976   5.916   0.485   7.265 -0.1771  0.0008 -0.0238
  792loPI   C1A10977   5.362   0.473   7.594 -0.0627  0.0399  0.0170
  792loPI   C2A10978   5.422   0.501   8.034  0.0360 -0.0579 -0.3490
  792loPI   C3A10979   5.587   0.409   8.429 -0.0096  0.0238 -0.0451
  792loPI   C4A10980   5.614   0.445   8.871 -0.1924 -0.0085  0.1202
  792loPI   C5A10981   5.246   0.368   9.165 -0.1268  0.4143  0.0801
  792loPI   C6A10982   4.830   0.253   8.983  0.0527  0.1476  0.3043
  792loPI   C1B10983   5.968   0.573   7.614 -0.3518  0.0402 -0.4004
  792loPI   C2B10984   5.910   0.683   8.032 -0.1592 -0.1373  0.2119
  792loPI   C3B10985   6.133   0.676   8.402  0.2653  0.0873 -0.0860
  792loPI   C4B10986   6.122   0.405   8.819 -0.1609  0.0401 -0.1909
  793loPI    C110987  14.909  12.468   6.336 -0.0825  0.2723 -0.0379
  793loPI    C210988  14.784  12.643   6.000  0.0720 -0.0790 -0.2845
  793loPI    C310989  14.635  12.288   6.107  0.0693  0.0026 -0.0115
  793loPI   PO410990  14.915  12.703   6.595  0.0157  0.0995 -0.1816
  793loPI   GL110991  14.937  12.701   6.980  0.0508 -0.0891  0.1826
  793loPI   GL210992  14.616  12.554   7.031  0.0195  0.3414  0.0723
  793loPI   C1A10993  14.952  12.808   7.389 -0.0803  0.1872  0.0892
  793loPI   C2A10994  14.801  12.781   7.777  0.1126 -0.0578 -0.3108
  793loPI   C3A10995  14.843  12.675   8.153 -0.3170 -0.1545 -0.1506
  793loPI   C4A10996  14.807  12.616   8.595 -0.0227  0.0451 -0.0436
  793loPI   C5A10997  15.040  12.820   8.991  0.0761 -0.0346 -0.0838
  793loPI   C6A10998  14.980  13.110   9.356 -0.4403 -0.3428  0.0595
  793loPI   C1B10999  14.537  12.450   7.429  0.2056  0.1788  0.1950
  793loPI   C2B11000  14.612  12.295   7.792 -0.1163  0.3369 -0.0619
  793loPI   C3B11001  14.506  12.309   8.257 -0.0037 -0.0862 -0.0403
  793loPI   C4B11002  14.305  12.465   8.588 -0.0271 -0.1184 -0.0953
  794loPI    C111003   8.468   3.417   6.259 -0.1839 -0.2855  0.0165
  794loPI    C211004   8.763   3.238   6.056  0.1133  0.1411  0.0592
  794loPI    C311005   8.446   3.384   5.861  0.2412  0.2572 -0.0638
  794loPI   PO411006   8.618   3.612   6.382  0.3235 -0.1274 -0.0164
  794loPI   GL111007   8.895   3.634   6.664 -0.2953 -0.1742  0.1827
  794loPI   GL211008   8.831   3.837   6.786  0.0999  0.2135  0.3997
  794loPI   C1A11009   9.286   3.489   6.860 -0.0322 -0.0875  0.1465
  794loPI   C2A11010   9.409   3.506   7.188 -0.0067 -0.1705 -0.1683
  794loPI   C3A11011   9.392   3.418   7.595 -0.2651  0.0030 -0.0114
  794loPI   C4A11012   9.453   3.532   8.010  0.0547 -0.1291  0.2457
  794loPI   C5A11013   9.429   3.480   8.406  0.1649  0.2585  0.0405
  794loPI   C6A11014   9.383   3.682   8.719  0.3039  0.0901 -0.1691
  794loPI   C1B11015   8.898   3.634   7.152 -0.1326  0.2032 -0.2009
  794loPI   C2B11016   8.970   3.690   7.579 -0.0834  0.1075  0.1297
  794loPI   C3B11017   8.956   3.759   7.973  0.3316 -0.1238  0.0244
  794loPI   C4B11018   8.872   3.740   8.435  0.0778  0.1977 -0.2125
  795loPI    C111019  13.611   7.835   6.577  0.0532 -0.1340 -0.1059
  795loPI    C211020  13.713   7.569   6.296 -0.2096 -0.0214 -0.3122
  795loPI    C311021  13.422   7.834   6.225 -0.1887  0.0958  0.0198
  795loPI   PO411022  13.579   7.765   6.745  0.1561  0.0940  0.0110
  795loPI   GL111023  13.494   7.469   6.990  0.0869  0.0877  0.0338
  795loPI   GL211024  13.734   7.227   7.028 -0.0754 -0.0631  0.0541
  795loPI   C1A11025  13.238   7.398   7.358 -0.1379  0.0142  0.1609
  795loPI   C2A11026  13.300   7.365   7.681 -0.1797  0.0416  0.1858
  795loPI   C3A11027  13.221   7.488   8.112 -0.0152  0.2947 -0.3735
  795loPI   C4A11028  13.319   7.643   8.419 -0.0057 -0.1984 -0.1508
  795loPI   C5A11029  13.404   7.599   8.802 -0.0733 -0.1963 -0.4452
  795loPI   C6A11030  13.381   7.230   9.115 -0.0256  0.1609 -0.1024
  795loPI   C1B11031  13.731   7.174   7.490 -0.3272 -0.0159 -0.2102
  795loPI   C2B11032  13.675   7.144   7.948 -0.1768 -0.2859  0.1725
  795loPI   C3B11033  13.704   7.214   8.469  0.2728 -0.1548 -0.0173
  795loPI   C4B11034  13.816   7.333   8.885  0.0545  0.0826 -0.0816
  796loPI    C111035  13.320   2.626   5.981  0.1357 -0.0576  0.0200
  796loPI    C211036  13.025   2.490   5.748  0.1938 -0.0502 -0.0585
  796loPI    C311037  13.349   2.264   5.813  0.0743 -0.1501  0.2065
  796loPI   PO411038  13.143   2.721   6.156  0.1166  0.2072 -0.0903
  796loPI   GL111039  12.984   2.707   6.575 -0.0250 -0.0049  0.1966
  796loPI   GL211040  12.940   2.905   6.770  0.2185 -0.2871 -0.1192
  796loPI   C1A11041  12.962   2.348   6.806  0.1981 -0.0863 -0.0887
  796loPI   C2A11042  12.896   2.142   7.127  0.1569  0.1880 -0.1388
  796loPI   C3A11043  12.957   2.199   7.541 -0.0146  0.0227 -0.0985
  796loPI   C4A11044  12.881   2.246   7.952 -0.2229  0.0238 -0.1493
  796loPI   C5A11045  12.904   2.377   8.425  0.0003 -0.2963  0.0383
  796loPI   C6A11046  12.991   2.567   8.902  0.0823  0.0019  0.2340
  796loPI   C1B11047  13.008   2.766   7.193 -0.2191 -0.0557 -0.1228
  796loPI   C2B11048  13.008   2.751   7.553  0.4246  0.1879  0.0637
  796loPI   C3B11049  12.937   2.778   8.026  0.1047 -0.1487  0.0569
  796loPI   C4B11050  12.939   2.861   8.463 -0.3060 -0.4024 -0.2367
  797loPI    C111051  13.843  14.616   6.067 -0.1704 -0.2458 -0.1181
  797loPI    C211052  13.705  14.851   5.774  0.1942  0.1483  0.0159
  797loPI    C311053  13.867  14.496   5.686 -0.3550 -0.0622 -0.1894
  797loPI   PO411054  13.933  14.823   6.209  0.0557 -0.0746  0.0382
  797loPI   GL111055  13.997  15.049   6.532 -0.0062  0.0678  0.1670
  797loPI   GL211056  14.226  14.824   6.722 -0.1555  0.4583 -0.1489
  797loPI   C1A11057  14.164  15.281   6.909  0.1837 -0.0744  0.0088
  797loPI   C2A11058  14.072  15.305   7.316 -0.2999 -0.3188 -0.1639
  797loPI   C3A11059  14.007  15.222   7.712 -0.2738  0.1357  0.1234
  797loPI   C4A11060  14.040  15.267   8.137  0.0495 -0.1422 -0.0792
  797loPI   C5A11061  13.915  15.383   8.465  0.1050 -0.2835  0.0763
  797loPI   C6A11062  13.798  15.245   8.849  0.3041  0.0117  0.4226
  797loPI   C1B11063  14.172  14.795   7.068  0.2379  0.2216 -0.0493
  797loPI   C2B11064  14.115  14.761   7.591  0.2273 -0.1682 -0.1455
  797loPI   C3B11065  14.041  14.764   8.059 -0.3859 -0.1298 -0.1481
  797loPI   C4B11066  14.012  14.908   8.491 -0.0873 -0.2483 -0.2986
  798loPI    C111067   1.563  10.708   6.012  0.1528  0.0932 -0.0153
  798loPI    C211068   1.306  10.530   5.763  0.0111  0.1277  0.1054
  798loPI    C311069   1.536  10.829   5.631  0.1968 -0.0925 -0.0787
  798loPI   PO411070   1.454  10.712   6.252 -0.1808 -0.0744 -0.4083
  798loPI   GL111071   1.594  10.773   6.681  0.1157  0.3722  0.2511
  798loPI   GL211072   1.575  10.460   6.720 -0.3771  0.0796  0.1639
  798loPI   C1A11073   1.468  10.870   7.110 -0.1170  0.2112  0.1622
  798loPI   C2A11074   1.410  10.825   7.571 -0.2362  0.1573  0.0708
  798loPI   C3A11075   1.337  10.767   8.030 -0.5314  0.3658  0.2908
  798loPI   C4A11076   1.292  10.943   8.454  0.1034  0.2396  0.1127
  798loPI   C5A11077   1.537  11.210   8.823  0.0568  0.0631 -0.0010
  798loPI   C6A11078   1.523  11.237   9.230 -0.0942 -0.1184 -0.1757
  798loPI   C1B11079   1.532  10.298   7.184  0.0357  0.1228 -0.3238
  798loPI   C2B11080   1.538  10.315   7.646  0.0897  0.0335 -0.3043
  798loPI   C3B11081   1.483  10.316   8.091  0.0758 -0.0534 -0.1523
  798loPI   C4B11082   1.497  10.442   8.526  0.1923 -0.1508  0.2000
  799loPI    C111083   9.628   0.676   6.137 -0.0269  0.2244 -0.1894
  799loPI    C211084   9.342   0.930   6.020  0.0775  0.2849 -0.3164
  799loPI    C311085   9.608   0.793   5.755  0.0219  0.0413 -0.2488
  799loPI   PO411086   9.805   0.790   6.333 -0.1148  0.2621  0.0344
  799loPI   GL111087   9.723   1.024   6.668  0.1853 -0.0374  0.5425
  799loPI   GL211088  10.072   0.868   6.737  0.0840  0.1108 -0.1617
  799loPI   C1A11089   9.624   0.964   7.133 -0.1685 -0.1872 -0.0571
  799loPI   C2A11090   9.716   1.014   7.523 -0.0282  0.0440  0.0443
  799loPI   C3A11091   9.662   1.062   7.907  0.1730 -0.1119  0.2282
  799loPI   C4A11092   9.718   1.057   8.334  0.0633 -0.0417  0.0632
  799loPI   C5A11093   9.910   0.758   8.632  0.3046  0.1520  0.1546
  799loPI   C6A11094  10.293   0.461   8.885 -0.0071 -0.3796  0.1924
  799loPI   C1B11095  10.187   0.766   7.133 -0.0820 -0.2374 -0.0578
  799loPI   C2B11096  10.155   0.712   7.558 -0.0597  0.2555 -0.1496
  799loPI   C3B11097  10.177   0.850   8.056  0.0157  0.1288 -0.0159
  799loPI   C4B11098  10.474   0.804   8.480 -0.0924  0.0140  0.1615
  800loPI    C111099   6.476   5.857   6.650 -0.0789 -0.1205 -0.1358
  800loPI    C211100   6.374   5.877   6.264  0.0465  0.3246 -0.1522
  800loPI    C311101   6.093   5.822   6.542 -0.0154 -0.2711 -0.3181
  800loPI   PO411102   6.770   5.623   6.623 -0.0019  0.0726 -0.2468
  800loPI   GL111103   7.037   5.324   6.868 -0.0945 -0.3220  0.1459
  800loPI   GL211104   6.765   5.174   6.924  0.1372 -0.1371 -0.0346
  800loPI   C1A11105   7.105   5.426   7.261  0.2213 -0.3042 -0.1109
  800loPI   C2A11106   7.147   5.471   7.708  0.1407  0.0508  0.0850
  800loPI   C3A11107   7.085   5.388   8.122  0.0252  0.2071 -0.0215
  800loPI   C4A11108   6.856   5.376   8.532  0.0337  0.1368 -0.3325
  800loPI   C5A11109   6.552   5.207   8.878 -0.0070 -0.1788  0.0011
  800loPI   C6A11110   6.369   4.837   9.070 -0.0215  0.1984 -0.2629
  800loPI   C1B11111   6.583   5.191   7.259 -0.2903 -0.1115  0.0869
  800loPI   C2B11112   6.562   5.188   7.684 -0.0628 -0.2460 -0.1945
  800loPI   C3B11113   6.639   5.134   8.144  0.0140  0.0459 -0.0732
  800loPI   C4B11114   6.432   4.968   8.487 -0.1746 -0.0107 -0.1137
  801loPI    C111115   9.604   2.207   6.187 -0.0584 -0.0404  0.1426
  801loPI    C211116   9.435   2.484   5.953 -0.1523  0.0121  0.2707
  801loPI    C311117   9.574   2.145   5.793 -0.0977  0.1033  0.1222
  801loPI   PO411118   9.511   2.171   6.372 -0.4094  0.1530  0.1521
  801loPI   GL111119   9.461   2.022   6.664 -0.1583  0.2401 -0.0499
  801loPI   GL211120   9.159   1.782   6.547  0.1417  0.2222  0.0152
  801loPI   C1A11121   9.261   1.923   7.074 -0.0707 -0.2573 -0.3305
  801loPI   C2A11122   9.317   1.708   7.494  0.2599 -0.1085 -0.1455
  801loPI   C3A11123   9.295   1.872   7.860  0.1584 -0.0276  0.0829
  801loPI   C4A11124   9.251   1.867   8.215 -0.0289  0.0045 -0.3461
  801loPI   C5A11125   9.454   1.894   8.596 -0.0560  0.0221  0.0015
  801loPI   C6A11126   9.718   2.217   8.848  0.1257  0.1658  0.2816
  801loPI   C1B11127   9.519   1.562   6.794  0.0761 -0.3619 -0.1745
  801loPI   C2B11128   9.690   1.540   7.211 -0.0191  0.1564 -0.0854
  801loPI   C3B11129   9.686   1.518   7.691 -0.1207  0.0544  0.2183
  801loPI   C4B11130   9.682   1.663   8.109  0.3678 -0.2190 -0.0006
  802loPI    C111131   3.998   4.641   6.160  0.1722  0.2752 -0.0842
  802loPI    C211132   4.149   4.295   6.290  0.1702  0.3637  0.1576
  802loPI    C311133   4.158   4.382   5.900  0.1419  0.0786  0.0907
  802loPI   PO411134   3.815   4.701   6.392 -0.0984 -0.0283  0.2395
  802loPI   GL111135   3.702   4.912   6.699 -0.0682 -0.0257  0.0695
  802loPI   GL211136   3.763   5.213   6.773  0.0885 -0.0235 -0.3955
  802loPI   C1A11137   3.766   4.764   7.150 -0.3022  0.2414 -0.0007
  802loPI   C2A11138   3.744   4.740   7.563 -0.1965  0.1287  0.2241
  802loPI   C3A11139   3.739   4.680   8.025  0.1706 -0.0000 -0.2438
  802loPI   C4A11140   3.813   4.923   8.470  0.1128 -0.1695  0.0954
  802loPI   C5A11141   3.777   5.196   8.683 -0.0439 -0.2565 -0.0130
  802loPI   C6A11142   3.604   5.134   9.069  0.1744 -0.3504  0.3201
  802loPI   C1B11143   3.665   5.232   7.175 -0.0049 -0.0463  0.0850
  802loPI   C2B11144   3.698   5.237   7.615  0.0408  0.0979  0.1863
  802loPI   C3B11145   3.725   5.254   8.065  0.0246  0.2010  0.0835
  802loPI   C4B11146   3.521   5.397   8.264 -0.0519  0.2163  0.1578
  803loPI    C111147   1.417   2.260   6.139 -0.0042 -0.0041 -0.0701
  803loPI    C211148   1.683   2.244   5.841 -0.0261  0.0231 -0.0913
  803loPI    C311149   1.346   2.454   5.796  0.0208  0.1173 -0.0074
  803loPI   PO411150   1.505   2.031   6.295  0.1968 -0.2099  0.2406
  803loPI   GL111151   1.493   1.948   6.794  0.4507 -0.0900  0.2759
  803loPI   GL211152   1.776   2.038   7.046  0.1074  0.2859 -0.1366
  803loPI   C1A11153   1.369   1.780   7.201 -0.2741  0.1600 -0.0674
  803loPI   C2A11154   1.362   1.766   7.557 -0.0611 -0.1496  0.0704
  803loPI   C3A11155   1.421   1.681   8.050  0.2189  0.3712  0.1371
  803loPI   C4A11156   1.499   1.567   8.443  0.1428 -0.2040 -0.1483
  803loPI   C5A11157   1.744   1.502   8.755 -0.1797 -0.1626 -0.3287
  803loPI   C6A11158   1.817   1.335   9.083 -0.2927  0.2290  0.3603
  803loPI   C1B11159   1.889   2.026   7.413 -0.1047 -0.1833 -0.0957
  803loPI   C2B11160   1.881   1.943   7.849 -0.3179  0.2084 -0.0624
  803loPI   C3B11161   1.589   2.088   8.219  0.0136  0.1957  0.2085
  803loPI   C4B11162   1.338   2.032   8.593  0.0800  0.2623  0.3492
  804loPI    C111163  10.992   8.522   6.287 -0.0935 -0.2092  0.1220
  804loPI    C211164  10.649   8.726   6.264  0.0056 -0.0627 -0.0828
  804loPI    C311165  10.717   8.421   6.014  0.0546 -0.0453 -0.0909
  804loPI   PO411166  10.999   8.406   6.487  0.0245  0.0047 -0.0921
  804loPI   GL111167  10.734   8.575   6.846 -0.0583 -0.1956  0.2502
  804loPI   GL211168  10.444   8.466   6.976 -0.1287 -0.2263  0.0020
  804loPI   C1A11169  10.716   8.672   7.316 -0.0830 -0.1439 -0.3092
  804loPI   C2A11170  10.640   8.594   7.755  0.0404 -0.0609  0.6217
  804loPI   C3A11171  10.542   8.761   8.160  0.0621  0.1727 -0.0171
  804loPI   C4A11172  10.498   8.725   8.620 -0.0886 -0.1413  0.1809
  804loPI   C5A11173  10.338   8.818   9.015 -0.0281 -0.2636  0.0990
  804loPI   C6A11174  10.480   9.246   9.290 -0.1757  0.1753  0.0170
  804loPI   C1B11175  10.624   8.203   7.330 -0.0329  0.3251  0.0970
  804loPI   C2B11176  10.593   8.091   7.703 -0.1935 -0.0659  0.0322
  804loPI   C3B11177  10.648   8.230   8.136  0.2673 -0.3313  0.2241
  804loPI   C4B11178  10.606   8.218   8.636  0.0800 -0.1118 -0.0942
  805loPI    C111179   5.133   2.430   6.540  0.2138 -0.1621 -0.0406
  805loPI    C211180   5.041   2.808   6.450  0.0945 -0.1338  0.1924
  805loPI    C311181   5.125   2.548   6.158  0.1925  0.0750  0.0316
  805loPI   PO411182   5.314   2.393   6.745  0.0772 -0.0786  0.2733
  805loPI   GL111183   5.427   2.502   7.208  0.1691 -0.1802  0.0353
  805loPI   GL211184   5.717   2.552   7.121  0.0202 -0.3027  0.0751
  805loPI   C1A11185   5.269   2.499   7.643 -0.0916  0.1933 -0.2388
  805loPI   C2A11186   5.236   2.391   8.062  0.3580  0.1375 -0.1256
  805loPI   C3A11187   5.339   2.402   8.598  0.0100 -0.1158  0.2866
  805loPI   C4A11188   5.303   2.167   8.923 -0.0524 -0.1323 -0.0893
  805loPI   C5A11189   5.523   1.739   8.998  0.1561  0.0023 -0.0336
  805loPI   C6A11190   5.688   1.297   8.903 -0.0441  0.0081  0.1226
  805loPI   C1B11191   5.755   2.599   7.619  0.0309  0.0355  0.1770
  805loPI   C2B11192   5.694   2.607   8.089 -0.2511 -0.3784  0.1429
  805loPI   C3B11193   5.778   2.494   8.508 -0.1749  0.0757  0.6068
  805loPI   C4B11194   5.821   2.247   8.785  0.0730  0.1970 -0.0700
  806loPI    C111195  10.287   6.831   6.183  0.1311  0.2126  0.0398
  806loPI    C211196   9.979   6.899   5.937  0.0442  0.1377  0.1271
  806loPI    C311197  10.338   6.804   5.787 -0.0249  0.0244  0.0311
  806loPI   PO411198  10.227   6.746   6.430 -0.2313 -0.1576  0.1969
  806loPI   GL111199  10.091   6.974   6.810 -0.0006  0.1395  0.3471
  806loPI   GL211200   9.733   7.077   6.800  0.1117 -0.2825  0.1284
  806loPI   C1A11201  10.052   6.900   7.228  0.2958 -0.1085  0.0435
  806loPI   C2A11202  10.018   6.929   7.590  0.2461  0.2168 -0.0554
  806loPI   C3A11203  10.000   6.961   8.045 -0.2742 -0.0262 -0.3240
  806loPI   C4A11204   9.976   6.888   8.469 -0.0480 -0.0165  0.0762
  806loPI   C5A11205   9.778   6.662   8.763  0.0171 -0.0321  0.0213
  806loPI   C6A11206   9.467   6.389   8.972  0.4251 -0.1058 -0.1997
  806loPI   C1B11207   9.601   7.176   7.158 -0.3759  0.1430  0.0310
  806loPI   C2B11208   9.692   7.286   7.627  0.2932 -0.0773  0.0484
  806loPI   C3B11209   9.623   7.286   8.137 -0.1892  0.3019 -0.3716
  806loPI   C4B11210   9.505   7.159   8.509  0.1200 -0.0736  0.0945
  807loPI    C111211   1.940  11.016   6.255  0.1105 -0.0090  0.1400
  807loPI    C211212   2.279  11.212   6.171 -0.0809  0.2486 -0.0459
  807loPI    C311213   2.117  10.966   5.900  0.0430 -0.0035  0.1055
  807loPI   PO411214   1.727  11.150   6.339 -0.1382  0.0669  0.0597
  807loPI   GL111215   1.669  11.237   6.747  0.0271 -0.2760  0.0236
  807loPI   GL211216   1.505  11.494   6.700  0.1427  0.2469 -0.0707
  807loPI   C1A11217   1.796  11.581   7.093  0.0490 -0.0253  0.1578
  807loPI   C2A11218   1.884  11.726   7.394  0.0893 -0.2252  0.1866
  807loPI   C3A11219   1.749  11.749   7.808 -0.0908 -0.0768  0.1502
  807loPI   C4A11220   1.494  11.831   8.101  0.3906  0.0675  0.0695
  807loPI   C5A11221   1.434  11.909   8.577  0.1578 -0.3004 -0.3571
  807loPI   C6A11222   1.323  11.985   8.971  0.0749 -0.0438  0.0027
  807loPI   C1B11223   1.337  11.376   7.190 -0.0723 -0.0135 -0.2062
  807loPI   C2B11224   1.458  11.410   7.601 -0.1152  0.0901  0.3985
  807loPI   C3B11225   1.438  11.239   7.932 -0.2139 -0.2340 -0.0188
  807loPI   C4B11226   1.411  11.445   8.398 -0.2220 -0.1222 -0.2730
  808loPI    C111227   2.421   6.216   6.144 -0.0611 -0.0299  0.0317
  808loPI    C211228   2.565   6.425   5.834 -0.2239 -0.1416 -0.1213
  808loPI    C311229   2.179   6.455   5.934 -0.1689 -0.0945  0.0820
  808loPI   PO411230   2.550   6.248   6.366  0.0563 -0.2391  0.1416
  808loPI   GL111231   2.693   5.996   6.697 -0.0668 -0.1157  0.1715
  808loPI   GL211232   3.021   5.896   6.893  0.0969 -0.0729 -0.0665
  808loPI   C1A11233   2.606   6.053   7.139  0.0753  0.3165 -0.0347
  808loPI   C2A11234   2.697   6.134   7.506  0.1523 -0.0344 -0.1596
  808loPI   C3A11235   2.597   6.178   7.932  0.1396  0.0269  0.1410
  808loPI   C4A11236   2.701   6.277   8.460  0.0588  0.2513  0.2822
  808loPI   C5A11237   2.787   6.428   8.903  0.4561  0.1401 -0.1637
  808loPI   C6A11238   3.235   6.504   8.977  0.0488  0.1103  0.0947
  808loPI   C1B11239   3.166   5.939   7.315  0.1842  0.1622 -0.0032
  808loPI   C2B11240   3.096   6.064   7.733 -0.1844  0.0582 -0.1336
  808loPI   C3B11241   3.157   6.039   8.134 -0.0682  0.0685 -0.0332
  808loPI   C4B11242   3.254   6.090   8.600  0.0769  0.3536  0.0212
  809loPI    C111243   0.231  13.114   6.177  0.0029  0.0384 -0.0960
  809loPI    C211244   0.318  12.724   6.207  0.0614  0.0646  0.0859
  809loPI    C311245   0.548  12.964   5.983 -0.1132 -0.0485 -0.2199
  809loPI   PO411246  -0.067  13.116   6.258  0.2124 -0.1988 -0.1265
  809loPI   GL111247  -0.171  13.021   6.537  0.1197  0.0129  0.0183
  809loPI   GL211248  -0.485  13.040   6.552 -0.0387  0.0511  0.3173
  809loPI   C1A11249   0.057  13.056   6.850 -0.1567 -0.0591  0.0681
  809loPI   C2A11250   0.035  13.032   7.233  0.0921 -0.2170  0.0547
  809loPI   C3A11251   0.239  13.090   7.646  0.2298 -0.2262 -0.0246
  809loPI   C4A11252   0.097  13.157   8.092 -0.3402 -0.2746  0.0535
  809loPI   C5A11253  -0.050  13.184   8.588 -0.1733  0.1536  0.3190
  809loPI   C6A11254   0.056  12.945   8.956  0.1404  0.0820  0.3993
  809loPI   C1B11255  -0.376  12.906   7.005 -0.1141  0.0731  0.2387
  809loPI   C2B11256  -0.320  12.793   7.484  0.0468  0.0522  0.1435
  809loPI   C3B11257  -0.276  12.862   7.882  0.1446  0.0982 -0.1701
  809loPI   C4B11258  -0.433  13.040   8.283 -0.3542 -0.0650  0.1881
  810loPI    C111259   7.501  13.178   6.530  0.0235 -0.0810  0.3020
  810loPI    C211260   7.606  13.492   6.755  0.0453 -0.0144  0.1996
  810loPI    C311261   7.460  13.549   6.387 -0.0346 -0.1211  0.2141
  810loPI   PO411262   7.801  13.032   6.663  0.0001 -0.0349 -0.1619
  810loPI   GL111263   7.961  12.996   7.050  0.3656 -0.0886 -0.0252
  810loPI   GL211264   7.861  13.325   7.100  0.1332 -0.1373  0.0973
  810loPI   C1A11265   7.897  12.862   7.387 -0.0909 -0.2852 -0.2721
  810loPI   C2A11266   7.790  12.763   7.865 -0.1620  0.3223 -0.1367
  810loPI   C3A11267   7.918  12.722   8.225  0.1430 -0.1583  0.0910
  810loPI   C4A11268   8.145  12.751   8.614 -0.1465  0.1687  0.0148
  810loPI   C5A11269   8.447  12.683   8.932  0.2805 -0.1763 -0.0581
  810loPI   C6A11270   8.875  12.796   9.021 -0.1226 -0.1125  0.0049
  810loPI   C1B11271   7.873  13.319   7.485  0.0466  0.1066 -0.3063
  810loPI   C2B11272   7.932  13.348   7.977 -0.0366  0.0241  0.1395
  810loPI   C3B11273   7.910  13.200   8.447 -0.1390 -0.1507 -0.3301
  810loPI   C4B11274   7.929  13.382   8.868 -0.1085  0.3287 -0.0517
  811loPI    C111275   1.959   6.020   6.390 -0.0929 -0.0969  0.1266
  811loPI    C211276   1.940   5.643   6.257 -0.1058 -0.0823  0.0875
  811loPI    C311277   1.918   5.949   5.999  0.0019 -0.0561  0.1092
  811loPI   PO411278   2.169   6.001   6.558 -0.1062  0.0849 -0.4349
  811loPI   GL111279   2.166   6.184   6.949 -0.0415 -0.0521  0.1032
  811loPI   GL211280   2.405   6.488   6.806  0.1671 -0.1077  0.1613
  811loPI   C1A11281   2.167   6.329   7.318 -0.0288  0.0428  0.1440
  811loPI   C2A11282   2.161   6.432   7.757  0.0004  0.1537 -0.1026
  811loPI   C3A11283   2.173   6.408   8.201 -0.0660  0.0108  0.0716
  811loPI   C4A11284   2.233   6.425   8.576  0.1310 -0.2378  0.3753
  811loPI   C5A11285   2.227   6.056   8.870 -0.1891  0.0165  0.4002
  811loPI   C6A11286   2.552   6.021   9.132  0.1171  0.1419 -0.0230
  811loPI   C1B11287   2.515   6.654   7.173  0.1858 -0.0622 -0.0951
  811loPI   C2B11288   2.509   6.666   7.571 -0.2091 -0.0206 -0.1650
  811loPI   C3B11289   2.564   6.659   8.061  0.1705  0.0818  0.2043
  811loPI   C4B11290   2.636   6.858   8.464 -0.1821  0.1427  0.0488
  812loPI    C111291   1.334  15.632   6.161 -0.1687 -0.0328  0.1605
  812loPI    C211292   1.548  15.790   5.862  0.0223 -0.2285  0.1917
  812loPI    C311293   1.214  15.586   5.782 -0.1362  0.0460  0.1402
  812loPI   PO411294   1.370  15.836   6.351 -0.2117 -0.1632  0.2031
  812loPI   GL111295   1.209  15.768   6.721 -0.1112 -0.1473 -0.1768
  812loPI   GL211296   1.034  15.575   6.607 -0.0784 -0.1668  0.0025
  812loPI   C1A11297   1.103  15.717   7.103 -0.0048  0.1809 -0.0071
  812loPI   C2A11298   1.048  15.785   7.489  0.2946  0.1690  0.2717
  812loPI   C3A11299   1.196  15.746   7.845 -0.0418 -0.2820 -0.2741
  812loPI   C4A11300   1.118  15.749   8.262  0.1841  0.0999 -0.1161
  812loPI   C5A11301   1.162  15.874   8.726  0.0936 -0.1907 -0.1751
  812loPI   C6A11302   1.223  16.279   8.910  0.0283  0.1855 -0.0454
  812loPI   C1B11303   0.695  15.433   6.902  0.0960 -0.3922  0.0189
  812loPI   C2B11304   0.636  15.520   7.389  0.0295  0.1224  0.1700
  812loPI   C3B11305   0.572  15.550   7.775  0.1045 -0.0012  0.0485
  812loPI   C4B11306   0.665  15.548   8.252 -0.0642  0.0527  0.1987
  813loPI    C111307   5.481   1.797   6.316  0.1700  0.0512  0.1678
  813loPI    C211308   5.599   2.028   6.620  0.1906  0.0672  0.1477
  813loPI    C311309   5.460   2.195   6.284  0.1525  0.0492  0.1544
  813loPI   PO411310   5.335   1.607   6.447  0.2390  0.1443 -0.0262
  813loPI   GL111311   5.097   1.715   6.827  0.2957  0.0660 -0.0252
  813loPI   GL211312   5.187   1.942   6.867  0.1830 -0.0104 -0.0204
  813loPI   C1A11313   4.856   1.610   7.144  0.1465  0.1090 -0.2290
  813loPI   C2A11314   4.769   1.729   7.587 -0.0035 -0.4465 -0.4873
  813loPI   C3A11315   4.756   1.660   8.026  0.1464 -0.1888 -0.0127
  813loPI   C4A11316   4.726   1.690   8.427  0.2339  0.1494 -0.1949
  813loPI   C5A11317   4.793   1.877   8.945  0.2018 -0.0398 -0.1486
  813loPI   C6A11318   5.146   1.786   9.309  0.2532 -0.1116 -0.1130
  813loPI   C1B11319   5.161   2.003   7.308 -0.0084 -0.1472  0.1372
  813loPI   C2B11320   5.163   2.006   7.786  0.0871  0.1313 -0.0391
  813loPI   C3B11321   5.235   1.889   8.173 -0.0558  0.0976  0.1723
  813loPI   C4B11322   5.276   1.768   8.565 -0.0376 -0.1061 -0.1880
  814loPI    C111323  13.187   0.316   5.674 -0.0750 -0.0416 -0.0702
  814loPI    C211324  12.947   0.622   5.577 -0.2009 -0.0762  0.1260
  814loPI    C311325  13.038   0.345   5.304 -0.0273  0.1733 -0.0742
  814loPI   PO411326  13.195   0.378   5.967  0.0662 -0.2178  0.1833
  814loPI   GL111327  13.375   0.160   6.380  0.1385  0.0867  0.1076
  814loPI   GL211328  13.132   0.313   6.438 -0.0846  0.0790  0.0516
  814loPI   C1A11329  13.358  -0.108   6.826  0.2698 -0.3835 -0.0855
  814loPI   C2A11330  13.326  -0.161   7.277  0.0240  0.0471 -0.0988
  814loPI   C3A11331  13.333  -0.122   7.703  0.2508 -0.1013  0.0311
  814loPI   C4A11332  13.219  -0.219   8.154 -0.1175  0.1381  0.0231
  814loPI   C5A11333  13.242  -0.129   8.560  0.1292 -0.1241 -0.1644
  814loPI   C6A11334  13.059  -0.073   8.991  0.1321 -0.0479 -0.0049
  814loPI   C1B11335  13.196   0.361   6.808  0.0698 -0.2960  0.2130
  814loPI   C2B11336  13.334   0.366   7.202  0.2586 -0.2211  0.1155
  814loPI   C3B11337  13.336   0.361   7.620  0.0843  0.2160  0.0387
  814loPI   C4B11338  13.208   0.454   8.046  0.0010 -0.0609 -0.1224
  815loPI    C111339  14.099   9.040   6.310  0.0622  0.1468 -0.1431
  815loPI    C211340  13.768   9.169   6.126 -0.0313 -0.0143 -0.0904
  815loPI    C311341  14.126   9.230   5.959 -0.1016 -0.0022 -0.2386
  815loPI   PO411342  14.071   9.151   6.544  0.2175  0.1228 -0.1327
  815loPI   GL111343  14.159   9.043   6.974  0.0727 -0.2764  0.1990
  815loPI   GL211344  13.984   9.229   7.128 -0.1450  0.0203  0.0018
  815loPI   C1A11345  14.343   8.926   7.377  0.1005 -0.0276  0.0618
  815loPI   C2A11346  14.371   8.880   7.807 -0.0926  0.1918  0.0964
  815loPI   C3A11347  14.561   8.886   8.214 -0.1827 -0.0392 -0.0157
  815loPI   C4A11348  14.766   8.709   8.627  0.2237 -0.0822  0.0298
  815loPI   C5A11349  14.606   8.654   8.997 -0.0318 -0.0557  0.1074
  815loPI   C6A11350  14.269   8.802   9.222 -0.2842  0.0309 -0.0846
  815loPI   C1B11351  14.081   9.335   7.471 -0.0988  0.2120 -0.1187
  815loPI   C2B11352  14.155   9.336   7.884  0.0312  0.0869 -0.0204
  815loPI   C3B11353  14.212   9.450   8.381 -0.1975  0.1787  0.0530
  815loPI   C4B11354  14.241   9.601   8.878 -0.1510 -0.0651 -0.1773
  816loPI    C111355   8.444   8.427   6.115  0.0858 -0.2604  0.1513
  816loPI    C211356   8.442   8.307   5.733  0.0768 -0.0704  0.0903
  816loPI    C311357   8.517   8.690   5.822 -0.1683 -0.0601  0.2638
  816loPI   PO411358   8.499   8.208   6.353  0.1507 -0.1764  0.0268
  816loPI   GL111359   8.611   8.227   6.835  0.1410 -0.0087  0.3520
  816loPI   GL211360   8.315   8.026   6.756  0.3960 -0.0058  0.0240
  816loPI   C1A11361   8.851   8.421   7.174  0.3534 -0.1535  0.3152
  816loPI   C2A11362   8.845   8.333   7.579 -0.2913  0.1180 -0.0699
  816loPI   C3A11363   8.813   8.319   8.002  0.1899  0.0657  0.2834
  816loPI   C4A11364   8.931   8.335   8.365  0.1605 -0.1035 -0.2182
  816loPI   C5A11365   8.800   8.269   8.827 -0.3465 -0.1587  0.2802
  816loPI   C6A11366   8.471   8.147   9.091  0.0154 -0.0452 -0.1488
  816loPI   C1B11367   8.267   8.161   7.246  0.1387 -0.3442  0.0278
  816loPI   C2B11368   8.378   8.085   7.644 -0.1704 -0.2199 -0.2803
  816loPI   C3B11369   8.357   8.042   7.994  0.1133  0.0618 -0.1321
  816loPI   C4B11370   8.376   8.141   8.446 -0.0293 -0.1323 -0.2192
  817loPI    C111371   2.957  13.443   6.252 -0.1964  0.0346  0.0571
  817loPI    C211372   3.043  13.395   5.865 -0.0949  0.0848  0.0733
  817loPI    C311373   2.730  13.204   6.025 -0.1779  0.1172 -0.0489
  817loPI   PO411374   3.195  13.681   6.433  0.1314 -0.1366 -0.0073
  817loPI   GL111375   3.352  13.604   6.839  0.1051  0.1115 -0.0417
  817loPI   GL211376   3.364  13.999   6.905 -0.0422 -0.0726 -0.1001
  817loPI   C1A11377   3.360  13.256   7.213  0.0149 -0.1257 -0.1681
  817loPI   C2A11378   3.341  13.186   7.684 -0.0575 -0.2915 -0.1353
  817loPI   C3A11379   3.407  13.305   8.124  0.1357 -0.0603 -0.2135
  817loPI   C4A11380   3.726  13.259   8.465 -0.0453 -0.0400  0.1206
  817loPI   C5A11381   3.788  12.958   8.793 -0.1428 -0.0834  0.1303
  817loPI   C6A11382   4.039  12.630   9.099 -0.1866 -0.0387  0.0413
  817loPI   C1B11383   3.330  13.779   7.295  0.2917 -0.0735 -0.0115
  817loPI   C2B11384   3.239  13.747   7.778  0.1761 -0.0513 -0.0709
  817loPI   C3B11385   3.081  13.715   8.206  0.0077  0.2358  0.4527
  817loPI   C4B11386   3.220  13.441   8.568 -0.2071 -0.0216  0.0800
  818loPI    C111387  13.184   6.345   6.103  0.1534  0.1745  0.1934
  818loPI    C211388  13.063   6.523   5.765 -0.0122  0.0661  0.1944
  818loPI    C311389  13.340   6.234   5.751  0.0560  0.1327  0.1631
  818loPI   PO411390  12.952   6.326   6.250 -0.1377  0.1225  0.1425
  818loPI   GL111391  12.911   6.397   6.676 -0.2220 -0.4101 -0.0021
  818loPI   GL211392  13.112   6.470   6.785 -0.2838 -0.2839  0.1345
  818loPI   C1A11393  12.738   6.264   6.984  0.0678  0.0753  0.0934
  818loPI   C2A11394  12.815   6.130   7.418  0.0632  0.1017  0.1879
  818loPI   C3A11395  12.731   6.110   7.827 -0.1957 -0.1662  0.0334
  818loPI   C4A11396  12.754   6.156   8.297  0.0304 -0.2954 -0.0724
  818loPI   C5A11397  12.565   6.212   8.555 -0.0398  0.2412 -0.4025
  818loPI   C6A11398  12.112   6.215   8.784 -0.0410  0.2913 -0.0747
  818loPI   C1B11399  13.198   6.375   7.238  0.0719 -0.1900  0.1138
  818loPI   C2B11400  13.207   6.273   7.653  0.0620  0.0164 -0.0465
  818loPI   C3B11401  13.218   6.288   8.024  0.1786  0.0677  0.0590
  818loPI   C4B11402  13.361   6.271   8.391  0.0771  0.1252  0.0696
  819loPI    C111403   0.465   8.238   6.280  0.1762 -0.2041  0.0526
  819loPI    C211404   0.458   7.892   6.079 -0.0575 -0.1943  0.0405
  819loPI    C311405   0.263   8.210   5.936  0.1791 -0.0478  0.0373
  819loPI   PO411406   0.492   8.165   6.512  0.0635  0.3171  0.0867
  819loPI   GL111407   0.168   8.176   6.756 -0.1692  0.0724 -0.0809
  819loPI   GL211408   0.073   8.415   6.810 -0.1943 -0.1504  0.0364
  819loPI   C1A11409   0.155   7.877   7.023  0.0551 -0.1236  0.1100
  819loPI   C2A11410   0.067   7.909   7.521 -0.0356  0.1110 -0.1034
  819loPI   C3A11411   0.164   7.913   8.006  0.2045  0.0592 -0.2214
  819loPI   C4A11412   0.161   7.797   8.449 -0.0446  0.2925  0.0219
  819loPI   C5A11413  -0.065   7.956   8.733 -0.1415 -0.0488  0.1298
  819loPI   C6A11414  -0.047   8.253   9.078  0.2463 -0.1244 -0.0771
  819loPI   C1B11415   0.130   8.445   7.194 -0.1040 -0.0986  0.0247
  819loPI   C2B11416   0.079   8.386   7.598  0.1106 -0.1008  0.2104
  819loPI   C3B11417   0.229   8.451   8.060  0.0544  0.3418 -0.0980
  819loPI   C4B11418   0.169   8.405   8.525 -0.1613  0.1105  0.1544
  820loPI    C111419  15.746   3.681   6.472  0.0223  0.0533  0.1641
  820loPI    C211420  15.347   3.652   6.483  0.0256 -0.0422  0.0468
  820loPI    C311421  15.571   3.414   6.714  0.0195 -0.1266 -0.0337
  820loPI   PO411422  15.746   3.955   6.583 -0.2164  0.1293 -0.2061
  820loPI   GL111423  15.452   4.132   6.924 -0.0470  0.2664 -0.0770
  820loPI   GL211424  15.340   3.794   6.976 -0.1747  0.3840  0.2662
  820loPI   C1A11425  15.747   4.129   7.210  0.0122  0.0214 -0.3846
  820loPI   C2A11426  15.640   4.086   7.704 -0.2856  0.2286 -0.1767
  820loPI   C3A11427  15.509   4.160   8.158  0.2100 -0.0196 -0.1243
  820loPI   C4A11428  15.267   4.325   8.533 -0.3104  0.3506  0.3906
  820loPI   C5A11429  15.011   4.271   8.841 -0.0619  0.1554  0.1459
  820loPI   C6A11430  14.798   4.014   9.162 -0.0585 -0.0810  0.2434
  820loPI   C1B11431  15.339   3.891   7.418 -0.1420 -0.1719  0.1556
  820loPI   C2B11432  15.335   3.792   7.903 -0.2832 -0.0844 -0.4510
  820loPI   C3B11433  15.296   3.772   8.395  0.0216 -0.3023  0.1052
  820loPI   C4B11434  15.357   3.746   8.763  0.0379 -0.1065  0.3340
  821loPI    C111435   0.432   6.455   6.406 -0.0412  0.0397  0.0227
  821loPI    C211436   0.738   6.308   6.194  0.0845 -0.0704  0.2761
  821loPI    C311437   0.410   6.440   6.006  0.1992 -0.1507  0.0142
  821loPI   PO411438   0.555   6.551   6.571  0.1200  0.0561 -0.1654
  821loPI   GL111439   0.419   6.483   6.975  0.2933  0.0777 -0.4390
  821loPI   GL211440   0.789   6.563   7.042 -0.0683 -0.0614 -0.0716
  821loPI   C1A11441   0.396   6.345   7.380  0.1627  0.0105  0.3745
  821loPI   C2A11442   0.447   6.308   7.760  0.0716  0.0248  0.0185
  821loPI   C3A11443   0.436   6.258   8.167 -0.1818 -0.0999 -0.2318
  821loPI   C4A11444   0.404   6.176   8.613 -0.1654  0.1305  0.2157
  821loPI   C5A11445   0.605   6.220   9.084 -0.1860 -0.2615  0.1145
  821loPI   C6A11446   0.694   6.259   9.501  0.0575 -0.3313 -0.0583
  821loPI   C1B11447   0.794   6.581   7.533  0.0276  0.0484 -0.1470
  821loPI   C2B11448   0.846   6.611   7.919 -0.2671  0.0837 -0.1025
  821loPI   C3B11449   0.799   6.539   8.410  0.0964  0.3084 -0.1110
  821loPI   C4B11450   0.777   6.682   8.841  0.2322 -0.2253 -0.2789
  822loPI    C111451   7.318   9.329   6.116 -0.0158  0.1407 -0.0643
  822loPI    C211452   7.039   9.162   5.882  0.0424 -0.0030 -0.0321
  822loPI    C311453   7.418   9.184   5.757  0.0550  0.0085  0.0078
  822loPI   PO411454   7.354   9.219   6.353 -0.0645  0.1418 -0.0584
  822loPI   GL111455   7.534   9.242   6.760  0.1970 -0.3272  0.0493
  822loPI   GL211456   7.572   9.020   6.928 -0.2594 -0.1384 -0.0155
  822loPI   C1A11457   7.332   9.424   7.129  0.2312  0.5332  0.1786
  822loPI   C2A11458   7.260   9.436   7.554 -0.3095 -0.0375 -0.0546
  822loPI   C3A11459   7.249   9.436   8.022 -0.1412 -0.0666 -0.2956
  822loPI   C4A11460   7.240   9.409   8.458  0.2898 -0.0917 -0.4842
  822loPI   C5A11461   7.215   9.453   8.934  0.1429  0.4930 -0.0880
  822loPI   C6A11462   7.440   9.865   9.164 -0.0215  0.1584  0.0782
  822loPI   C1B11463   7.541   9.050   7.378  0.1619 -0.1025 -0.1943
  822loPI   C2B11464   7.523   9.086   7.794 -0.2197  0.1822  0.2259
  822loPI   C3B11465   7.568   9.063   8.172 -0.3236  0.1412 -0.0432
  822loPI   C4B11466   7.623   9.218   8.609  0.1293 -0.1997 -0.2070
  823loPI    C111467   0.353  15.098   6.057 -0.1387  0.0938  0.0270
  823loPI    C211468   0.266  14.853   5.753 -0.0938  0.1815 -0.0570
  823loPI    C311469   0.171  15.241   5.731  0.0476  0.2187 -0.0239
  823loPI   PO411470   0.230  14.893   6.304 -0.0004 -0.0591 -0.3718
  823loPI   GL111471   0.405  14.782   6.637 -0.0435 -0.0260  0.1053
  823loPI   GL211472   0.598  14.950   6.725  0.1881  0.0004 -0.0558
  823loPI   C1A11473   0.215  14.719   7.016  0.1399 -0.0503  0.0236
  823loPI   C2A11474   0.227  14.693   7.479 -0.2690  0.2633  0.0683
  823loPI   C3A11475   0.067  14.655   7.900  0.1799 -0.0180 -0.1015
  823loPI   C4A11476   0.177  14.833   8.242  0.0878 -0.0869 -0.0162
  823loPI   C5A11477   0.364  14.701   8.600 -0.0692  0.1900  0.1957
  823loPI   C6A11478   0.391  14.168   8.710 -0.0738  0.2399 -0.3083
  823loPI   C1B11479   0.587  15.038   7.160 -0.1001  0.3482 -0.0412
  823loPI   C2B11480   0.620  14.920   7.557 -0.1535  0.0924  0.1539
  823loPI   C3B11481   0.593  15.070   7.975  0.0390 -0.1650  0.2834
  823loPI   C4B11482   0.631  15.057   8.429  0.2957 -0.1981 -0.0331
  824loPI    C111483   6.833  14.847   6.146 -0.3091  0.0247 -0.1247
  824loPI    C211484   7.165  14.683   5.994 -0.2977 -0.0738  0.0044
  824loPI    C311485   6.928  14.907   5.763 -0.0763  0.1006 -0.0569
  824loPI   PO411486   6.626  14.619   6.337 -0.1466 -0.1894  0.0159
  824loPI   GL111487   6.676  14.780   6.735 -0.0717 -0.0834  0.1039
  824loPI   GL211488   6.373  14.532   6.734  0.0696  0.1704 -0.4411
  824loPI   C1A11489   6.725  14.767   7.233 -0.0083  0.0392 -0.2677
  824loPI   C2A11490   6.791  14.823   7.623  0.2445  0.1565 -0.1320
  824loPI   C3A11491   7.133  14.916   7.902  0.1101 -0.1225  0.0796
  824loPI   C4A11492   7.174  15.072   8.401  0.2705 -0.0881  0.3378
  824loPI   C5A11493   7.022  15.400   8.674  0.0183  0.2643  0.0383
  824loPI   C6A11494   7.017  15.769   8.834 -0.1468 -0.0123  0.0434
  824loPI   C1B11495   6.380  14.430   7.123 -0.2234 -0.2274 -0.0005
  824loPI   C2B11496   6.394  14.454   7.542 -0.0297 -0.2633  0.0124
  824loPI   C3B11497   6.392  14.397   7.935  0.2533 -0.1332  0.2535
  824loPI   C4B11498   6.738  14.216   8.254 -0.1028  0.0388 -0.0171
  825loPI    C111499   8.284   0.117   6.618  0.1355  0.2412 -0.0243
  825loPI    C211500   8.416   0.072   6.243  0.2444  0.1335  0.0264
  825loPI    C311501   8.128   0.337   6.322  0.2007  0.1364 -0.1378
  825loPI   PO411502   8.188  -0.171   6.670 -0.1060  0.1173 -0.0403
  825loPI   GL111503   7.922  -0.278   7.016 -0.1980 -0.2739  0.1363
  825loPI   GL211504   8.059  -0.558   7.049  0.0139  0.0139 -0.2092
  825loPI   C1A11505   7.670  -0.475   7.387 -0.1238 -0.2957 -0.0453
  825loPI   C2A11506   7.653  -0.534   7.864 -0.1484 -0.0967 -0.1610
  825loPI   C3A11507   7.877  -0.488   8.211 -0.1759 -0.2433  0.1386
  825loPI   C4A11508   7.622  -0.658   8.563  0.2625  0.0476  0.1433
  825loPI   C5A11509   7.251  -0.731   8.451  0.3144  0.1249  0.1734
  825loPI   C6A11510   6.862  -0.803   8.621  0.1180 -0.1258 -0.1458
  825loPI   C1B11511   8.164  -0.402   7.461  0.0012 -0.0961  0.1037
  825loPI   C2B11512   8.197  -0.287   7.824  0.0806  0.1512  0.0602
  825loPI   C3B11513   8.337  -0.245   8.230 -0.2549  0.3164  0.0042
  825loPI   C4B11514   8.415  -0.247   8.728  0.3039 -0.1915  0.2283
  826loPI    C111515   1.081   5.943   6.383 -0.2256  0.0452  0.1323
  826loPI    C211516   1.426   5.745   6.338 -0.2831 -0.1040  0.3340
  826loPI    C311517   1.326   6.034   6.080 -0.1292 -0.2370  0.1226
  826loPI   PO411518   1.087   5.856   6.672 -0.3064 -0.0219 -0.2419
  826loPI   GL111519   1.045   5.528   7.042  0.0653 -0.1554 -0.1241
  826loPI   GL211520   1.342   5.643   7.124 -0.1863 -0.0942  0.0548
  826loPI   C1A11521   0.916   5.517   7.404  0.1982 -0.1632  0.0393
  826loPI   C2A11522   0.863   5.573   7.833 -0.2409 -0.2274  0.0755
  826loPI   C3A11523   0.943   5.461   8.255 -0.0551 -0.0633 -0.2434
  826loPI   C4A11524   0.980   5.439   8.637 -0.1109 -0.0734  0.1544
  826loPI   C5A11525   1.177   5.550   9.012 -0.0612 -0.1176  0.1954
  826loPI   C6A11526   1.387   5.219   9.248  0.2828  0.2282  0.0969
  826loPI   C1B11527   1.311   5.872   7.424 -0.2484 -0.0925 -0.1631
  826loPI   C2B11528   1.285   5.897   7.785 -0.2084  0.0432 -0.2723
  826loPI   C3B11529   1.378   5.913   8.194  0.1380  0.0950  0.0012
  826loPI   C4B11530   1.464   5.761   8.571 -0.3723  0.1385 -0.0381
  827loPI    C111531   4.716  15.421   6.354  0.0397 -0.0679 -0.1058
  827loPI    C211532   4.456  15.660   6.542  0.0764  0.0065 -0.1492
  827loPI    C311533   4.385  15.543   6.165 -0.0870 -0.2888 -0.0306
  827loPI   PO411534   4.810  15.281   6.641 -0.2525  0.0455 -0.2100
  827loPI   GL111535   4.778  15.472   6.913 -0.2028  0.1050  0.0831
  827loPI   GL211536   4.445  15.331   6.985 -0.2325  0.0190  0.1025
  827loPI   C1A11537   4.812  15.263   7.336 -0.1190  0.0699  0.2461
  827loPI   C2A11538   4.959  15.184   7.784  0.0231  0.3987  0.1241
  827loPI   C3A11539   5.046  14.992   8.127  0.1906 -0.2313 -0.0785
  827loPI   C4A11540   5.138  14.856   8.500 -0.1020 -0.2573  0.1719
  827loPI   C5A11541   5.272  14.997   8.917  0.2547  0.0401 -0.3740
  827loPI   C6A11542   5.620  15.272   9.046  0.1072 -0.0800 -0.1337
  827loPI   C1B11543   4.322  15.328   7.370 -0.1770 -0.0399 -0.0262
  827loPI   C2B11544   4.405  15.198   7.810  0.0516 -0.0912 -0.1832
  827loPI   C3B11545   4.434  15.252   8.272 -0.1817 -0.0602 -0.0378
  827loPI   C4B11546   4.203  15.167   8.697 -0.0537 -0.2729  0.0181
  828loPI    C111547   6.031  12.096   6.490 -0.1802  0.1051  0.1946
  828loPI    C211548   5.855  12.246   6.164  0.1233  0.2195  0.0795
  828loPI    C311549   6.072  11.911   6.138 -0.3869 -0.1413  0.2968
  828loPI   PO411550   5.836  12.048   6.719  0.4172 -0.1827 -0.1779
  828loPI   GL111551   5.777  12.266   7.048 -0.1654 -0.2566 -0.0973
  828loPI   GL211552   6.060  12.361   7.101  0.2136 -0.1392  0.2345
  828loPI   C1A11553   5.738  12.107   7.390  0.0056 -0.1750 -0.0521
  828loPI   C2A11554   5.650  12.115   7.905  0.1134  0.3108  0.1834
  828loPI   C3A11555   5.417  12.125   8.346 -0.1646  0.1934 -0.2606
  828loPI   C4A11556   5.219  12.100   8.755  0.5964 -0.0418 -0.0869
  828loPI   C5A11557   4.818  12.215   8.906  0.0765 -0.0869 -0.1930
  828loPI   C6A11558   4.430  12.323   8.961  0.3004  0.3901  0.1730
  828loPI   C1B11559   6.109  12.518   7.423 -0.2338  0.1948 -0.3610
  828loPI   C2B11560   6.023  12.438   7.923  0.0402  0.5361  0.1571
  828loPI   C3B11561   5.901  12.393   8.366  0.1284  0.3478  0.4222
  828loPI   C4B11562   5.617  12.367   8.773 -0.2124  0.0958 -0.4619
  829loPI    C111563  10.349  14.431   6.091 -0.2418 -0.0678  0.3203
  829loPI    C211564  10.053  14.166   6.048 -0.2536  0.0071 -0.1045
  829loPI    C311565  10.025  14.527   5.879 -0.0236  0.1034  0.0575
  829loPI   PO411566  10.573  14.277   6.326  0.0032 -0.0794 -0.0980
  829loPI   GL111567  10.566  14.035   6.678 -0.1948  0.1269 -0.1784
  829loPI   GL211568  10.885  14.093   6.758  0.0528  0.1010  0.2547
  829loPI   C1A11569  10.322  14.078   7.002  0.2666  0.3026 -0.2032
  829loPI   C2A11570  10.396  14.017   7.527  0.2238 -0.1004 -0.2127
  829loPI   C3A11571  10.304  14.077   7.976 -0.1641 -0.1740 -0.1022
  829loPI   C4A11572  10.301  13.892   8.296 -0.2289 -0.2176 -0.0612
  829loPI   C5A11573  10.144  13.801   8.663  0.0837 -0.0822 -0.2898
  829loPI   C6A11574   9.879  14.067   8.985  0.0714 -0.0274  0.2699
  829loPI   C1B11575  10.797  14.171   7.189  0.1360 -0.2502  0.1012
  829loPI   C2B11576  10.844  14.251   7.647 -0.0414  0.2948  0.1095
  829loPI   C3B11577  10.798  14.158   8.176 -0.2490 -0.2073 -0.3535
  829loPI   C4B11578  10.916  14.315   8.601  0.0386  0.0577  0.0764
  830loPI    C111579   0.502   5.960   6.406  0.4405 -0.0422  0.2983
  830loPI    C211580   0.664   5.623   6.264  0.2903  0.0554 -0.1193
  830loPI    C311581   0.526   5.900   6.011 -0.0769  0.1942  0.2223
  830loPI   PO411582   0.602   6.028   6.608 -0.0381  0.0835 -0.1075
  830loPI   GL111583   0.630   5.898   7.027  0.1123 -0.2832  0.2334
  830loPI   GL211584   0.919   6.080   7.087  0.1128  0.0573 -0.0476
  830loPI   C1A11585   0.415   5.763   7.367 -0.1561  0.3837 -0.0863
  830loPI   C2A11586   0.438   5.822   7.821 -0.0100  0.0768  0.1312
  830loPI   C3A11587   0.375   5.774   8.144  0.0484 -0.1767 -0.1989
  830loPI   C4A11588   0.492   5.654   8.559 -0.0647 -0.0153 -0.1250
  830loPI   C5A11589   0.595   5.635   8.990  0.0834  0.0654  0.0679
  830loPI   C6A11590   0.726   5.247   9.249 -0.0753  0.0366  0.2180
  830loPI   C1B11591   0.857   6.040   7.534 -0.2021  0.1381  0.2577
  830loPI   C2B11592   0.902   6.099   7.984 -0.0560  0.0393 -0.1581
  830loPI   C3B11593   0.857   5.956   8.324  0.1818  0.0879 -0.2284
  830loPI   C4B11594   0.875   5.914   8.767 -0.1454  0.4924 -0.2472
  831loPI    C111595  14.016   5.003   6.125  0.3220 -0.2111 -0.2947
  831loPI    C211596  14.382   5.104   5.999  0.2387  0.1585 -0.2532
  831loPI    C311597  14.080   5.363   5.961  0.0432 -0.0308 -0.0181
  831loPI   PO411598  14.058   4.951   6.388 -0.1295 -0.0945 -0.0270
  831loPI   GL111599  14.193   4.617   6.612  0.0715  0.2387 -0.1149
  831loPI   GL211600  14.443   4.408   6.715 -0.2042  0.0987 -0.0536
  831loPI   C1A11601  13.988   4.565   6.959  0.0034 -0.2408  0.3896
  831loPI   C2A11602  14.020   4.376   7.399  0.0805 -0.2626  0.4074
  831loPI   C3A11603  13.983   4.297   7.736  0.0291  0.3424  0.0933
  831loPI   C4A11604  13.981   4.217   8.145 -0.0840  0.0018  0.3657
  831loPI   C5A11605  13.892   4.276   8.542 -0.1173 -0.0192  0.1429
  831loPI   C6A11606  13.793   4.134   8.946 -0.1693 -0.1495  0.1901
  831loPI   C1B11607  14.438   4.297   7.163 -0.0082  0.0486 -0.0982
  831loPI   C2B11608  14.368   4.020   7.531 -0.0387  0.0579  0.2257
  831loPI   C3B11609  14.508   3.963   8.047  0.3222 -0.1650 -0.0336
  831loPI   C4B11610  14.402   3.861   8.415  0.1417 -0.0918  0.2462
  832loPI    C111611  12.505  13.449   6.162  0.0803  0.0241 -0.0102
  832loPI    C211612  12.328  13.631   5.853 -0.0283  0.1748  0.1396
  832loPI    C311613  12.587  13.334   5.787  0.1995  0.4235 -0.1115
  832loPI   PO411614  12.254  13.427   6.349  0.1344 -0.1085  0.1723
  832loPI   GL111615  12.149  13.363   6.766 -0.0617 -0.3101  0.0895
  832loPI   GL211616  12.451  13.127   6.793 -0.0334 -0.2926 -0.0067
  832loPI   C1A11617  12.103  13.238   7.177  0.0770 -0.2121  0.0201
  832loPI   C2A11618  12.019  13.275   7.644  0.1760  0.2658 -0.0178
  832loPI   C3A11619  12.115  13.401   8.033  0.1272 -0.1796  0.0209
  832loPI   C4A11620  12.069  13.266   8.537 -0.0928  0.2232  0.1386
  832loPI   C5A11621  12.335  13.087   8.916 -0.1098  0.0068  0.1296
  832loPI   C6A11622  12.743  13.070   9.139 -0.1155 -0.0445  0.3427
  832loPI   C1B11623  12.523  12.937   7.186  0.0838 -0.0006  0.1586
  832loPI   C2B11624  12.612  12.916   7.655 -0.1244 -0.1117  0.1333
  832loPI   C3B11625  12.518  13.033   8.050 -0.3899  0.1936 -0.0982
  832loPI   C4B11626  12.598  12.888   8.468  0.3516 -0.1837 -0.0238
  833loPI    C111627  16.889  15.844   5.940 -0.1246  0.2678 -0.4108
  833loPI    C211628  16.543  15.650   5.886 -0.0769  0.1005 -0.1360
  833loPI    C311629  16.857  15.568   5.652 -0.0993 -0.0521 -0.1134
  833loPI   PO411630  16.857  15.787   6.219 -0.3265  0.1202  0.2067
  833loPI   GL111631  16.908  15.669   6.596  0.0816  0.2468 -0.1385
  833loPI   GL211632  17.184  15.762   6.666 -0.0560 -0.0379 -0.0223
  833loPI   C1A11633  16.789  15.564   6.940 -0.0699 -0.2552 -0.0304
  833loPI   C2A11634  16.881  15.532   7.391  0.0653  0.0902  0.1744
  833loPI   C3A11635  16.792  15.603   7.740  0.1005  0.1757 -0.0743
  833loPI   C4A11636  16.810  15.634   8.217 -0.1472 -0.1207  0.2151
  833loPI   C5A11637  16.807  15.446   8.659 -0.0638  0.1395 -0.2854
  833loPI   C6A11638  17.024  14.944   8.818  0.1106 -0.0630  0.0100
  833loPI   C1B11639  17.327  15.788   7.194  0.2001  0.3195  0.0601
  833loPI   C2B11640  17.287  15.832   7.587 -0.3831 -0.2427  0.0870
  833loPI   C3B11641  17.230  15.862   8.020 -0.1337 -0.2669 -0.1253
  833loPI   C4B11642  17.192  15.779   8.532  0.1205 -0.2649  0.1797
  834loPI    C111643   3.594   3.111   6.295 -0.1979 -0.0499  0.1902
  834loPI    C211644   3.414   3.434   6.143 -0.0441 -0.0144  0.0808
  834loPI    C311645   3.274   3.069   6.059 -0.1753  0.0200  0.1469
  834loPI   PO411646   3.614   3.191   6.528  0.0174 -0.0418  0.2941
  834loPI   GL111647   3.773   3.048   6.944 -0.2316  0.0729  0.1421
  834loPI   GL211648   3.748   2.759   6.842  0.0806  0.0166  0.0008
  834loPI   C1A11649   3.905   3.070   7.352  0.0702  0.0284  0.0491
  834loPI   C2A11650   3.742   2.926   7.709 -0.0032  0.0845 -0.0170
  834loPI   C3A11651   3.763   3.037   8.109 -0.3221 -0.0612 -0.1829
  834loPI   C4A11652   3.593   3.090   8.535 -0.2836  0.1810 -0.0853
  834loPI   C5A11653   3.354   2.975   8.875 -0.1257 -0.1388 -0.0399
  834loPI   C6A11654   2.973   3.041   9.183 -0.0430 -0.0353 -0.3716
  834loPI   C1B11655   3.642   2.625   7.221  0.1181 -0.1475  0.0065
  834loPI   C2B11656   3.607   2.456   7.661  0.1318  0.2532  0.0254
  834loPI   C3B11657   3.666   2.556   8.058  0.1243  0.0811 -0.1709
  834loPI   C4B11658   3.387   2.562   8.512 -0.0532 -0.2723  0.0499
  835loPI    C111659   4.192  16.351   6.258 -0.0069  0.0233 -0.0228
  835loPI    C211660   4.308  16.516   6.604  0.1440  0.0235 -0.0730
  835loPI    C311661   4.510  16.593   6.267 -0.1482  0.2199 -0.2074
  835loPI   PO411662   4.165  16.046   6.437 -0.2184  0.2135 -0.2382
  835loPI   GL111663   4.131  16.047   6.881  0.0324 -0.0541 -0.3311
  835loPI   GL211664   4.292  16.276   7.027 -0.1963 -0.0157 -0.4059
  835loPI   C1A11665   4.061  15.750   7.183 -0.1159  0.0624 -0.1020
  835loPI   C2A11666   4.119  15.695   7.662 -0.1664 -0.3901  0.2515
  835loPI   C3A11667   4.181  15.579   8.035 -0.1655  0.1060  0.2850
  835loPI   C4A11668   4.066  15.630   8.449 -0.1819 -0.2318 -0.0547
  835loPI   C5A11669   3.943  15.904   8.843 -0.2311 -0.0367  0.2559
  835loPI   C6A11670   3.579  16.211   8.840  0.1044 -0.2094  0.1688
  835loPI   C1B11671   4.299  16.152   7.458 -0.0336 -0.1868  0.1490
  835loPI   C2B11672   4.276  16.091   7.876 -0.1230 -0.3338  0.2226
  835loPI   C3B11673   4.282  16.111   8.295  0.0706 -0.1605  0.5451
  835loPI   C4B11674   4.383  16.059   8.699  0.1143  0.1006 -0.1265
  836loPI    C111675  12.621  13.016   6.359  0.1016 -0.0260 -0.1136
  836loPI    C211676  12.841  12.993   6.026 -0.0861 -0.0419 -0.2378
  836loPI    C311677  12.457  12.880   6.021 -0.0498 -0.1848  0.0218
  836loPI   PO411678  12.669  12.779   6.534 -0.1765 -0.2249 -0.1420
  836loPI   GL111679  12.679  12.486   6.864  0.0589  0.0274 -0.0820
  836loPI   GL211680  12.393  12.362   6.750  0.2251 -0.1781  0.0004
  836loPI   C1A11681  12.606  12.442   7.316 -0.3062 -0.1721  0.1541
  836loPI   C2A11682  12.591  12.385   7.705  0.1401  0.1138 -0.0713
  836loPI   C3A11683  12.448  12.441   8.144  0.2892  0.0194  0.1756
  836loPI   C4A11684  12.395  12.477   8.648 -0.3458 -0.0935  0.1556
  836loPI   C5A11685  12.100  12.283   8.954 -0.0408 -0.2232  0.3086
  836loPI   C6A11686  11.758  12.140   8.989 -0.2025  0.2269  0.2243
  836loPI   C1B11687  12.134  12.166   7.160  0.0281 -0.3595  0.2909
  836loPI   C2B11688  11.999  12.181   7.573  0.0085  0.0077  0.2231
  836loPI   C3B11689  11.902  12.285   8.024  0.4100  0.1630  0.0346
  836loPI   C4B11690  11.938  12.166   8.485 -0.1458  0.0939 -0.0086
  837loPI    C111691  10.912   9.065   6.020 -0.1180  0.0727  0.1997
  837loPI    C211692  11.027   8.744   5.811 -0.0979  0.0887  0.1862
  837loPI    C311693  10.885   9.067   5.621 -0.0020  0.1343  0.1915
  837loPI   PO411694  11.065   9.083   6.229 -0.3362 -0.3432  0.2650
  837loPI   GL111695  10.999   8.905   6.593  0.0149  0.0758 -0.1024
  837loPI   GL211696  10.706   9.061   6.634  0.0644  0.2490  0.1193
  837loPI   C1A11697  11.146   8.852   7.049  0.0654 -0.0635  0.1195
  837loPI   C2A11698  11.185   8.941   7.527  0.2036 -0.1735 -0.1800
  837loPI   C3A11699  11.032   8.824   7.910 -0.0360 -0.1242  0.1216
  837loPI   C4A11700  11.222   8.942   8.221  0.2892 -0.1304 -0.2140
  837loPI   C5A11701  11.154   8.890   8.717  0.3435  0.3869  0.0586
  837loPI   C6A11702  10.807   9.092   8.915 -0.1452  0.1163 -0.0170
  837loPI   C1B11703  10.741   9.161   7.053 -0.2105  0.2773 -0.2721
  837loPI   C2B11704  10.789   9.187   7.599  0.1403 -0.0028 -0.2070
  837loPI   C3B11705  10.835   9.237   8.048  0.2234  0.2311 -0.0302
  837loPI   C4B11706  10.683   9.167   8.405 -0.1139 -0.3726 -0.1687
  838loPI    C111707   2.964   2.347   6.280  0.0687 -0.0473  0.0234
  838loPI    C211708   3.246   2.556   6.087 -0.1723  0.3065  0.0465
  838loPI    C311709   2.874   2.538   5.940 -0.1833 -0.0154  0.1064
  838loPI   PO411710   3.004   2.360   6.558  0.0730 -0.1390  0.3608
  838loPI   GL111711   2.820   2.584   6.831 -0.0050 -0.3263 -0.1632
  838loPI   GL211712   2.615   2.831   6.875 -0.0213 -0.2000  0.1395
  838loPI   C1A11713   3.073   2.545   7.141 -0.1779 -0.0466  0.0585
  838loPI   C2A11714   3.095   2.471   7.676  0.0486  0.2540  0.0017
  838loPI   C3A11715   3.060   2.511   8.128 -0.0220  0.2012  0.0467
  838loPI   C4A11716   2.892   2.566   8.607 -0.0003 -0.0115  0.0496
  838loPI   C5A11717   2.693   2.676   8.934  0.4032 -0.1595  0.0884
  838loPI   C6A11718   2.461   2.951   9.148 -0.0395 -0.0601 -0.1539
  838loPI   C1B11719   2.776   2.963   7.230 -0.0969 -0.1159 -0.0997
  838loPI   C2B11720   2.741   2.906   7.687  0.0184 -0.0472 -0.1219
  838loPI   C3B11721   2.732   2.892   8.111  0.0402  0.1018 -0.2257
  838loPI   C4B11722   2.427   2.850   8.490  0.2176 -0.1068  0.1106
  839loPI    C111723   8.630   9.913   6.393  0.1543  0.0700 -0.1531
  839loPI    C211724   8.544   9.701   6.064  0.0731  0.0561 -0.1232
  839loPI    C311725   8.796  10.011   6.042  0.1198  0.0140 -0.1853
  839loPI   PO411726   8.725   9.793   6.613  0.1302 -0.1930  0.1004
  839loPI   GL111727   8.906  10.027   6.988 -0.0807 -0.0242 -0.2315
  839loPI   GL211728   8.665  10.302   7.016 -0.0269  0.0188 -0.3997
  839loPI   C1A11729   8.901   9.996   7.444 -0.0125 -0.2483  0.0697
  839loPI   C2A11730   8.905   9.906   7.900 -0.2125  0.3622  0.0459
  839loPI   C3A11731   9.017   9.842   8.329 -0.0402  0.2744  0.0599
  839loPI   C4A11732   8.977   9.845   8.760  0.0572 -0.1284  0.2462
  839loPI   C5A11733   8.652   9.623   9.012  0.0391 -0.0437 -0.3665
  839loPI   C6A11734   8.728   9.215   9.104 -0.0314 -0.1204 -0.1360
  839loPI   C1B11735   8.480  10.216   7.323 -0.0189  0.1213 -0.0024
  839loPI   C2B11736   8.447  10.309   7.794 -0.1784  0.2648 -0.1421
  839loPI   C3B11737   8.620  10.148   8.216 -0.1072  0.2223 -0.2497
  839loPI   C4B11738   8.516  10.044   8.630 -0.0636 -0.1858 -0.0793
  840loPI    C111739  10.357   5.030   6.107 -0.0101 -0.0280 -0.3611
  840loPI    C211740  10.017   5.060   6.315  0.1961 -0.2206  0.0132
  840loPI    C311741  10.080   5.298   6.000 -0.1686  0.0017  0.1021
  840loPI   PO411742  10.398   4.787   6.151 -0.1712 -0.0528 -0.2120
  840loPI   GL111743  10.145   4.583   6.493  0.1536 -0.0104  0.3835
  840loPI   GL211744   9.926   4.753   6.726 -0.0473 -0.1925 -0.2669
  840loPI   C1A11745  10.253   4.439   6.940 -0.1586  0.0279  0.2626
  840loPI   C2A11746  10.259   4.439   7.367 -0.0735 -0.2275  0.1025
  840loPI   C3A11747  10.281   4.524   7.770 -0.0646 -0.0593  0.1012
  840loPI   C4A11748  10.274   4.549   8.296  0.2465  0.3708 -0.0079
  840loPI   C5A11749  10.153   4.643   8.697 -0.0342  0.1865  0.1250
  840loPI   C6A11750  10.309   4.828   9.010 -0.1677 -0.0101 -0.0683
  840loPI   C1B11751   9.900   4.761   7.198 -0.0243 -0.2510  0.0269
  840loPI   C2B11752   9.844   4.702   7.626 -0.2188 -0.0935  0.1976
  840loPI   C3B11753   9.817   4.815   8.028  0.2538 -0.2260 -0.1002
  840loPI   C4B11754   9.784   4.881   8.527  0.1196  0.0379  0.0027
  841loPI    C111755  16.042  12.091   6.303 -0.0505  0.0990 -0.0251
  841loPI    C211756  16.333  12.362   6.261  0.1914 -0.1612 -0.0627
  841loPI    C311757  16.172  12.190   5.938 -0.2538  0.2340 -0.0625
  841loPI   PO411758  15.868  12.229   6.500  0.0263  0.0899  0.0701
  841loPI   GL111759  15.683  12.055   6.878 -0.2178  0.4267  0.0418
  841loPI   GL211760  15.923  11.834   6.822  0.2069 -0.1436 -0.0996
  841loPI   C1A11761  15.799  12.251   7.249  0.2560  0.0940 -0.2511
  841loPI   C2A11762  15.730  12.274   7.563 -0.2115 -0.0486  0.2023
  841loPI   C3A11763  15.872  12.522   7.867 -0.4534 -0.0916  0.2098
  841loPI   C4A11764  15.846  12.578   8.290  0.1041 -0.0232  0.2339
  841loPI   C5A11765  15.843  12.610   8.681  0.0458 -0.1786 -0.0640
  841loPI   C6A11766  15.710  12.507   9.079 -0.2056  0.1079  0.0139
  841loPI   C1B11767  15.910  11.767   7.244 -0.1462  0.1780 -0.1430
  841loPI   C2B11768  15.881  11.789   7.783 -0.0463  0.1967  0.2618
  841loPI   C3B11769  15.821  11.759   8.189  0.1078 -0.1277  0.0729
  841loPI   C4B11770  15.896  11.990   8.555 -0.0062 -0.1358 -0.0024
  842loPI    C111771  15.201   9.556   6.359 -0.0877  0.1940 -0.2282
  842loPI    C211772  14.838   9.609   6.200 -0.1580 -0.1048 -0.1727
  842loPI    C311773  15.120   9.414   5.994 -0.1006 -0.0746 -0.1229
  842loPI   PO411774  15.132   9.540   6.611 -0.0003  0.1158  0.1478
  842loPI   GL111775  15.026   9.786   6.991  0.0339  0.0396 -0.2352
  842loPI   GL211776  14.749   9.818   7.118  0.1512 -0.3112 -0.0066
  842loPI   C1A11777  15.292   9.750   7.232 -0.7276  0.0604  0.0478
  842loPI   C2A11778  15.452   9.727   7.615 -0.0607  0.0675  0.1962
  842loPI   C3A11779  15.553   9.847   8.011  0.0819  0.1566  0.1575
  842loPI   C4A11780  15.555   9.856   8.359  0.1008 -0.2824 -0.1569
  842loPI   C5A11781  15.570  10.031   8.868  0.1820 -0.0126  0.0803
  842loPI   C6A11782  15.652  10.289   9.258  0.0209 -0.2917 -0.1284
  842loPI   C1B11783  14.846   9.782   7.525  0.0574 -0.0003 -0.1252
  842loPI   C2B11784  15.018   9.730   7.908  0.1134 -0.1544 -0.0572
  842loPI   C3B11785  15.024   9.625   8.337 -0.3099  0.1057  0.1784
  842loPI   C4B11786  15.193   9.740   8.759 -0.0218  0.0607 -0.0162
  843loPI    C111787   2.397  11.769   6.113  0.0841 -0.1723 -0.0893
  843loPI    C211788   2.548  11.481   5.880  0.3966 -0.0493 -0.0436
  843loPI    C311789   2.566  11.863   5.763 -0.1384 -0.0547 -0.1668
  843loPI   PO411790   2.516  11.712   6.369  0.1495 -0.1085 -0.0464
  843loPI   GL111791   2.364  11.694   6.791  0.0890  0.1408 -0.0845
  843loPI   GL211792   2.525  11.982   6.895  0.2458  0.1700  0.0522
  843loPI   C1A11793   2.333  11.613   7.185 -0.0631 -0.0588 -0.0202
  843loPI   C2A11794   2.281  11.757   7.740  0.1165 -0.3048 -0.2393
  843loPI   C3A11795   2.070  11.810   8.146 -0.2206 -0.3675 -0.0839
  843loPI   C4A11796   1.913  12.123   8.447  0.2984 -0.4228 -0.0465
  843loPI   C5A11797   2.086  12.273   8.812  0.0591  0.2261  0.3688
  843loPI   C6A11798   2.514  12.335   8.856 -0.0061  0.0614 -0.0935
  843loPI   C1B11799   2.465  12.075   7.370  0.0977  0.1257  0.3705
  843loPI   C2B11800   2.499  12.162   7.809 -0.0447 -0.1200  0.1524
  843loPI   C3B11801   2.586  12.135   8.286  0.2319  0.2320  0.2810
  843loPI   C4B11802   2.969  12.177   8.529  0.3036 -0.1387 -0.1813
  844loPI    C111803  11.028   2.018   6.080  0.1255  0.0075  0.0277
  844loPI    C211804  11.129   1.667   5.917 -0.0470 -0.0284 -0.0040
  844loPI    C311805  11.277   2.007   5.767  0.0492 -0.0817 -0.0306
  844loPI   PO411806  11.113   1.949   6.311 -0.0364 -0.1708  0.0469
  844loPI   GL111807  11.343   1.836   6.697 -0.2024 -0.1153  0.2389
  844loPI   GL211808  11.597   1.940   6.866  0.1292 -0.0340  0.0341
  844loPI   C1A11809  11.147   1.878   7.101  0.3055 -0.1922 -0.1221
  844loPI   C2A11810  11.102   1.787   7.556 -0.2411  0.0372 -0.1939
  844loPI   C3A11811  11.078   1.838   7.979  0.0653  0.1458 -0.1459
  844loPI   C4A11812  11.064   1.872   8.386 -0.1922  0.0132  0.0397
  844loPI   C5A11813  11.057   1.831   8.829 -0.1939 -0.5320  0.2370
  844loPI   C6A11814  11.132   2.003   9.205 -0.1470  0.2672 -0.2161
  844loPI   C1B11815  11.595   1.894   7.320 -0.0619  0.0034  0.0207
  844loPI   C2B11816  11.556   2.068   7.734  0.0906 -0.0316 -0.1295
  844loPI   C3B11817  11.501   2.114   8.186 -0.1700  0.4528 -0.0153
  844loPI   C4B11818  11.446   2.085   8.645  0.1390 -0.3748  0.1552
  845loPI    C111819  17.001   7.198   6.094  0.0678 -0.0075  0.0702
  845loPI    C211820  16.847   7.326   5.748 -0.0516  0.0127  0.1303
  845loPI    C311821  17.226   7.201   5.764 -0.0529 -0.0111 -0.0128
  845loPI   PO411822  16.949   7.461   6.301  0.1984  0.1307  0.3505
  845loPI   GL111823  16.931   7.521   6.783  0.0195 -0.0085  0.4039
  845loPI   GL211824  16.632   7.499   6.827 -0.1138  0.0191  0.2095
  845loPI   C1A11825  17.133   7.384   7.216 -0.0492  0.0498 -0.2587
  845loPI   C2A11826  17.195   7.353   7.629  0.1653 -0.0308 -0.0240
  845loPI   C3A11827  17.328   7.266   8.018  0.2441 -0.0520  0.1189
  845loPI   C4A11828  17.333   7.205   8.494  0.0232  0.0710  0.2078
  845loPI   C5A11829  17.484   7.097   8.913  0.2039  0.1906 -0.4297
  845loPI   C6A11830  17.629   6.748   9.292  0.2552 -0.2277 -0.1076
  845loPI   C1B11831  16.698   7.575   7.188  0.0570 -0.0936  0.3175
  845loPI   C2B11832  16.739   7.629   7.666 -0.0300 -0.2640  0.0861
  845loPI   C3B11833  16.886   7.546   8.016  0.2587 -0.3518 -0.2211
  845loPI   C4B11834  16.833   7.494   8.439 -0.2583 -0.1955 -0.1355
  846loPI    C111835   4.401   7.762   6.461 -0.0778  0.1011 -0.0755
  846loPI    C211836   4.795   7.831   6.476 -0.0638  0.0539 -0.2075
  846loPI    C311837   4.576   7.989   6.182 -0.0930 -0.1642 -0.3046
  846loPI   PO411838   4.362   7.797   6.749 -0.1157 -0.0603  0.3237
  846loPI   GL111839   4.164   7.945   7.027 -0.2310  0.2263  0.3251
  846loPI   GL211840   3.913   8.151   6.939  0.2303  0.1833 -0.0304
  846loPI   C1A11841   4.229   7.890   7.496  0.1390  0.0184 -0.1151
  846loPI   C2A11842   4.295   7.887   7.930 -0.2893 -0.0659  0.0603
  846loPI   C3A11843   4.342   8.069   8.324  0.2755 -0.1557 -0.0111
  846loPI   C4A11844   4.343   8.224   8.821 -0.0383  0.0279  0.1421
  846loPI   C5A11845   4.164   8.550   9.079  0.1383 -0.2207  0.1393
  846loPI   C6A11846   3.773   8.571   9.107  0.1592 -0.1497  0.1015
  846loPI   C1B11847   3.800   8.150   7.291 -0.3759 -0.0204 -0.0712
  846loPI   C2B11848   3.818   8.150   7.715  0.1838 -0.2514  0.0226
  846loPI   C3B11849   3.827   8.207   8.163  0.2918  0.2010  0.1402
  846loPI   C4B11850   3.907   8.409   8.534  0.2764 -0.1113  0.0805
  847loPI    C111851   6.750  16.739   6.390 -0.0637  0.0335 -0.2087
  847loPI    C211852   6.980  17.037   6.255 -0.0352  0.0475 -0.1295
  847loPI    C311853   6.989  16.681   6.074 -0.0389  0.0824 -0.1991
  847loPI   PO411854   6.503  16.792   6.463 -0.0910 -0.4204  0.1963
  847loPI   GL111855   6.565  16.758   6.882 -0.0579  0.0651  0.2877
  847loPI   GL211856   6.978  16.849   6.802  0.1580 -0.0299  0.0988
  847loPI   C1A11857   6.636  16.738   7.274 -0.4209  0.0596 -0.0925
  847loPI   C2A11858   6.712  16.785   7.755  0.0225  0.3262 -0.3752
  847loPI   C3A11859   6.703  16.837   8.206 -0.2893 -0.0091 -0.1573
  847loPI   C4A11860   6.869  16.829   8.638  0.0669  0.0710 -0.1400
  847loPI   C5A11861   7.071  16.673   9.038  0.2725  0.3001  0.1363
  847loPI   C6A11862   6.954  16.274   9.411  0.1100 -0.0833 -0.1863
  847loPI   C1B11863   6.890  17.193   7.157  0.0344 -0.0939 -0.0959
  847loPI   C2B11864   7.003  17.181   7.611  0.4106 -0.2324  0.0311
  847loPI   C3B11865   7.021  17.174   8.083 -0.1745  0.0323 -0.0727
  847loPI   C4B11866   7.002  17.297   8.454 -0.2115 -0.0666 -0.1181
  848loPI    C111867  10.429   7.708   6.337  0.0355 -0.0325  0.1306
  848loPI    C211868  10.462   8.003   6.069  0.0376  0.1308  0.3082
  848loPI    C311869  10.101   7.887   6.195  0.0202 -0.1587  0.0052
  848loPI   PO411870  10.502   7.752   6.506 -0.2336 -0.4138  0.0737
  848loPI   GL111871  10.618   7.918   6.900 -0.2678  0.0084  0.0854
  848loPI   GL211872  10.831   8.046   6.756 -0.2065  0.3416 -0.0966
  848loPI   C1A11873  10.632   7.690   7.233  0.2861  0.2928 -0.0734
  848loPI   C2A11874  10.538   7.609   7.633  0.2695 -0.0605 -0.2773
  848loPI   C3A11875  10.528   7.668   8.147 -0.0302 -0.1825 -0.1372
  848loPI   C4A11876  10.635   7.596   8.532  0.2534  0.0185  0.1864
  848loPI   C5A11877  10.598   7.590   8.967  0.0669  0.1566  0.1239
  848loPI   C6A11878  10.317   7.688   9.285  0.3381 -0.2129 -0.0229
  848loPI   C1B11879  11.126   7.869   7.091  0.3082 -0.1811 -0.0229
  848loPI   C2B11880  11.070   7.855   7.577 -0.0268 -0.0436 -0.0601
  848loPI   C3B11881  10.980   7.869   8.013 -0.1181 -0.1087 -0.1649
  848loPI   C4B11882  10.957   7.900   8.435  0.1266 -0.2840  0.0648
  849loPI    C111883  17.006  10.462   6.225  0.0994  0.1589 -0.0548
  849loPI    C211884  16.806  10.595   5.905 -0.0755  0.0164 -0.0066
  849loPI    C311885  17.186  10.476   5.868 -0.0243  0.2099 -0.1157
  849loPI   PO411886  16.961  10.621   6.414 -0.1478 -0.1937 -0.0625
  849loPI   GL111887  16.571  10.715   6.784 -0.0735  0.1501 -0.0849
  849loPI   GL211888  16.576  11.026   6.915 -0.1619 -0.0670  0.1197
  849loPI   C1A11889  16.633  10.608   7.163 -0.1233 -0.0622 -0.1798
  849loPI   C2A11890  16.754  10.663   7.607 -0.2257  0.0922  0.1059
  849loPI   C3A11891  16.791  10.726   8.028 -0.2436  0.4154  0.1218
  849loPI   C4A11892  16.776  10.668   8.395 -0.0067  0.2938 -0.3371
  849loPI   C5A11893  16.874  10.819   8.784 -0.1197  0.0879 -0.2270
  849loPI   C6A11894  16.859  10.715   9.195 -0.0258 -0.1045  0.1571
  849loPI   C1B11895  16.565  11.090   7.302 -0.2945 -0.0595  0.0228
  849loPI   C2B11896  16.698  11.177   7.769 -0.0695 -0.4398  0.2730
  849loPI   C3B11897  16.723  11.184   8.308 -0.5343  0.1807 -0.1670
  849loPI   C4B11898  16.589  11.369   8.723 -0.0417  0.2060  0.2358
  850loPI    C111899  13.168  13.701   6.272  0.1012 -0.1793 -0.2180
  850loPI    C211900  12.998  13.350   6.360 -0.2954  0.0547 -0.0263
  850loPI    C311901  13.046  13.459   5.978 -0.0997 -0.2381 -0.0881
  850loPI   PO411902  13.320  13.772   6.470 -0.0989 -0.4181 -0.0320
  850loPI   GL111903  13.432  14.126   6.737  0.3282 -0.1008 -0.3011
  850loPI   GL211904  13.117  14.134   6.785  0.3163 -0.1631 -0.3555
  850loPI   C1A11905  13.504  13.997   7.087 -0.0837 -0.2273 -0.1183
  850loPI   C2A11906  13.535  14.001   7.541  0.3829  0.1821 -0.0517
  850loPI   C3A11907  13.507  13.928   8.019  0.0513  0.0022 -0.0428
  850loPI   C4A11908  13.477  13.912   8.366 -0.3018 -0.1621 -0.1284
  850loPI   C5A11909  13.466  13.804   8.751  0.2116  0.0644 -0.4107
  850loPI   C6A11910  13.193  13.960   9.057 -0.3757  0.0834  0.0938
  850loPI   C1B11911  13.116  14.246   7.343 -0.2348 -0.1155  0.1142
  850loPI   C2B11912  13.160  14.339   7.756  0.0424 -0.1596 -0.2485
  850loPI   C3B11913  13.146  14.247   8.162  0.2018  0.0665  0.1841
  850loPI   C4B11914  13.056  14.199   8.553  0.2252  0.0176 -0.1274
  851loPI    C111915  11.106   4.512   6.156  0.1188 -0.1543  0.1427
  851loPI    C211916  10.902   4.309   5.879 -0.0431  0.2807 -0.0659
  851loPI    C311917  11.258   4.467   5.790  0.0524  0.1476  0.0750
  851loPI   PO411918  10.932   4.587   6.289  0.0520  0.0349  0.0455
  851loPI   GL111919  10.630   4.745   6.649  0.0664 -0.2296  0.0249
  851loPI   GL211920  10.436   5.011   6.616 -0.2058 -0.1536 -0.4173
  851loPI   C1A11921  10.671   4.664   7.091 -0.0085 -0.0881  0.0569
  851loPI   C2A11922  10.754   4.664   7.477  0.0471  0.2736 -0.0307
  851loPI   C3A11923  10.782   4.798   7.923  0.1840 -0.0245 -0.2639
  851loPI   C4A11924  10.689   4.882   8.290 -0.1621 -0.1368  0.1152
  851loPI   C5A11925  10.608   4.800   8.648 -0.0285  0.0202  0.1021
  851loPI   C6A11926  10.790   4.700   9.010 -0.0936 -0.1878  0.2087
  851loPI   C1B11927  10.321   5.053   7.077 -0.1926 -0.1197 -0.2341
  851loPI   C2B11928  10.366   4.941   7.524 -0.0425 -0.3570  0.0444
  851loPI   C3B11929  10.282   4.997   7.850 -0.1749 -0.4805 -0.0150
  851loPI   C4B11930  10.220   5.006   8.342  0.0694  0.0146  0.0940
  852loPI    C111931  13.261  16.270   5.913 -0.2958 -0.1611 -0.0477
  852loPI    C211932  13.396  16.607   5.746 -0.3168 -0.1617 -0.0656
  852loPI    C311933  13.144  16.371   5.544 -0.3236 -0.1741 -0.0424
  852loPI   PO411934  13.580  16.219   6.174  0.2026 -0.0521  0.0378
  852loPI   GL111935  13.802  16.322   6.560  0.2134 -0.0036 -0.3223
  852loPI   GL211936  13.847  16.036   6.663  0.0059  0.0165 -0.2746
  852loPI   C1A11937  13.730  16.551   6.945  0.0760  0.1037 -0.0073
  852loPI   C2A11938  13.796  16.540   7.426  0.0767  0.0937 -0.1274
  852loPI   C3A11939  13.693  16.596   7.817 -0.2264  0.1492  0.3694
  852loPI   C4A11940  13.735  16.549   8.274  0.3734  0.1629  0.0013
  852loPI   C5A11941  13.890  16.604   8.638 -0.3065  0.0560 -0.1674
  852loPI   C6A11942  14.237  16.357   8.809 -0.1202  0.0755  0.3345
  852loPI   C1B11943  13.734  16.071   7.025  0.0335 -0.1465 -0.0605
  852loPI   C2B11944  13.643  16.056   7.468  0.0164 -0.1683 -0.3967
  852loPI   C3B11945  13.587  16.068   7.994  0.2016  0.4083  0.0501
  852loPI   C4B11946  13.531  16.007   8.419  0.0118  0.2388 -0.0058
  853loPI    C111947  15.940   1.888   6.211 -0.0257 -0.1623  0.0835
  853loPI    C211948  16.133   1.699   5.916  0.0976 -0.0872  0.1154
  853loPI    C311949  15.736   1.743   5.899  0.1021 -0.0989 -0.0304
  853loPI   PO411950  16.085   1.818   6.410 -0.1287  0.0711  0.2932
  853loPI   GL111951  16.281   1.779   6.822  0.0202  0.0244  0.1109
  853loPI   GL211952  16.283   2.178   6.743 -0.0652 -0.0163  0.0584
  853loPI   C1A11953  16.190   1.387   6.988 -0.0817  0.0289  0.2834
  853loPI   C2A11954  16.172   1.159   7.341 -0.0142 -0.1168  0.1553
  853loPI   C3A11955  16.127   1.219   7.829 -0.0611  0.1375 -0.0318
  853loPI   C4A11956  16.161   1.163   8.274 -0.3523  0.0438 -0.2733
  853loPI   C5A11957  15.993   0.977   8.671 -0.3980  0.0500  0.1107
  853loPI   C6A11958  16.159   0.928   9.123  0.1042  0.2654 -0.0030
  853loPI   C1B11959  16.263   2.059   7.242 -0.0666 -0.0283  0.0257
  853loPI   C2B11960  16.194   1.737   7.388  0.0487  0.0667 -0.0182
  853loPI   C3B11961  16.057   1.698   7.792 -0.0533  0.1367  0.1418
  853loPI   C4B11962  16.024   1.664   8.185  0.0761 -0.1405  0.1203
  854loPI    C111963  13.956   7.177   6.338 -0.2634 -0.0697  0.1049
  854loPI    C211964  13.768   7.183   5.985 -0.1535  0.2843  0.0489
  854loPI    C311965  14.085   7.419   6.047  0.0146  0.0027  0.2846
  854loPI   PO411966  13.699   7.039   6.470 -0.0111  0.2243 -0.0989
  854loPI   GL111967  13.633   6.685   6.778  0.1560 -0.0612  0.2423
  854loPI   GL211968  13.861   6.786   6.855  0.1951  0.1756  0.2965
  854loPI   C1A11969  13.710   6.472   7.222 -0.1928 -0.2984 -0.1712
  854loPI   C2A11970  13.645   6.482   7.652  0.1327  0.1592  0.2456
  854loPI   C3A11971  13.671   6.605   8.029  0.0582 -0.1687  0.1060
  854loPI   C4A11972  13.632   6.686   8.348  0.2164 -0.0791 -0.1521
  854loPI   C5A11973  13.706   6.807   8.735  0.1103  0.1113  0.1322
  854loPI   C6A11974  14.034   6.656   9.060 -0.0315 -0.0595 -0.4012
  854loPI   C1B11975  14.056   6.844   7.292 -0.1191  0.1747  0.1305
  854loPI   C2B11976  14.051   6.835   7.712 -0.3267  0.1631 -0.0039
  854loPI   C3B11977  14.161   6.830   8.150  0.1592 -0.1820  0.0634
  854loPI   C4B11978  14.181   6.555   8.491 -0.1980  0.2640  0.0677
  855loPI    C111979   1.789  14.198   6.121  0.0598  0.0346  0.0244
  855loPI    C211980   1.816  14.129   5.728 -0.1756  0.2870 -0.0392
  855loPI    C311981   1.513  14.346   5.872 -0.0322  0.2856  0.2712
  855loPI   PO411982   1.714  13.909   6.277 -0.3467  0.2173  0.0144
  855loPI   GL111983   1.673  13.758   6.649  0.1474  0.0648  0.1741
  855loPI   GL211984   1.382  13.834   6.672 -0.0721 -0.4029 -0.1727
  855loPI   C1A11985   1.588  13.435   6.989  0.1075  0.0883  0.0914
  855loPI   C2A11986   1.810  13.481   7.364 -0.1587 -0.0149 -0.1651
  855loPI   C3A11987   1.815  13.528   7.811 -0.1445  0.1592 -0.0406
  855loPI   C4A11988   1.910  13.650   8.157 -0.2171  0.0281 -0.2314
  855loPI   C5A11989   1.789  13.565   8.544  0.0100  0.0285 -0.0735
  855loPI   C6A11990   1.562  13.416   8.846 -0.1297  0.0895  0.0251
  855loPI   C1B11991   1.531  13.879   7.158 -0.1827 -0.0727  0.1147
  855loPI   C2B11992   1.485  13.815   7.641  0.2714 -0.1943  0.1525
  855loPI   C3B11993   1.415  13.920   8.043 -0.1817  0.1536 -0.1573
  855loPI   C4B11994   1.239  13.836   8.474 -0.1627 -0.1050 -0.1461
  856loPI    C111995   0.643   9.924   6.197 -0.0615 -0.0771 -0.0610
  856loPI    C211996   0.305  10.138   6.206  0.0478  0.0928  0.0759
  856loPI    C311997   0.587  10.222   5.936  0.1668  0.2414  0.2441
  856loPI   PO411998   0.761   9.941   6.405  0.0210 -0.0951  0.1617
  856loPI   GL111999   0.755  10.346   6.601 -0.0702 -0.1050 -0.1943
  856loPI   GL212000   0.600  10.651   6.749 -0.0080  0.1617 -0.0895
  856loPI   C1A12001   0.690  10.210   6.999 -0.1296  0.0741 -0.0679
  856loPI   C2A12002   0.518  10.213   7.344 -0.1291 -0.0062 -0.2448
  856loPI   C3A12003   0.583  10.164   7.727  0.2121 -0.0100  0.1381
  856loPI   C4A12004   0.589  10.264   8.141 -0.1773 -0.0701  0.1073
  856loPI   C5A12005   0.598  10.192   8.600 -0.0622  0.1008  0.0206
  856loPI   C6A12006   0.665  10.504   8.887 -0.2878 -0.2168  0.2257
  856loPI   C1B12007   0.509  10.662   7.176 -0.0018 -0.3534  0.2720
  856loPI   C2B12008   0.592  10.801   7.578  0.0950  0.3799  0.2516
  856loPI   C3B12009   0.518  10.787   8.035 -0.2421  0.2669 -0.1110
  856loPI   C4B12010   0.426  10.711   8.465 -0.1610  0.0896  0.1700
  857loPI    C112011  16.560   3.361   6.469  0.4943 -0.4156 -0.0794
  857loPI    C212012  16.641   3.458   6.089  0.0217  0.3707 -0.0032
  857loPI    C312013  16.785   3.682   6.387  0.0306  0.0143  0.2670
  857loPI   PO412014  16.555   3.157   6.532 -0.0629  0.1566 -0.1435
  857loPI   GL112015  16.797   2.916   6.745 -0.0184 -0.1516 -0.1344
  857loPI   GL212016  16.755   3.131   6.990 -0.1115  0.0257  0.0553
  857loPI   C1A12017  16.914   2.733   7.171 -0.1965 -0.1229 -0.0243
  857loPI   C2A12018  17.026   2.808   7.566  0.0905 -0.0444 -0.2905
  857loPI   C3A12019  16.893   2.835   8.013  0.0856 -0.1059  0.3533
  857loPI   C4A12020  17.061   2.933   8.426  0.1726  0.0861 -0.1262
  857loPI   C5A12021  17.009   3.105   8.780 -0.2949  0.3160  0.0508
  857loPI   C6A12022  16.795   3.145   9.102  0.1588 -0.0606 -0.1128
  857loPI   C1B12023  16.720   3.220   7.414 -0.0878  0.2122  0.0787
  857loPI   C2B12024  16.740   3.316   7.934 -0.1876  0.0113  0.0456
  857loPI   C3B12025  16.603   3.289   8.320 -0.2297  0.0304 -0.0805
  857loPI   C4B12026  16.598   3.404   8.770  0.1880  0.1246 -0.0395
  858loPI    C112027  16.005   6.907   6.305  0.0092 -0.1744 -0.0585
  858loPI    C212028  16.169   6.691   6.011  0.0175 -0.1742 -0.0539
  858loPI    C312029  15.958   7.019   5.924  0.1836 -0.0653 -0.0488
  858loPI   PO412030  16.162   6.884   6.481 -0.3927  0.1245  0.0847
  858loPI   GL112031  16.311   6.799   6.855  0.0092 -0.0544 -0.0969
  858loPI   GL212032  15.989   6.740   7.010  0.0779 -0.2177 -0.3672
  858loPI   C1A12033  16.504   6.722   7.217  0.1577 -0.1142  0.0008
  858loPI   C2A12034  16.425   6.820   7.648  0.1211 -0.1653 -0.0566
  858loPI   C3A12035  16.423   6.788   8.119  0.0063 -0.1979  0.2056
  858loPI   C4A12036  16.583   6.669   8.495 -0.1120  0.1595  0.0911
  858loPI   C5A12037  16.674   6.515   8.912  0.0861 -0.0744  0.1160
  858loPI   C6A12038  16.791   6.346   9.332  0.2127  0.1594  0.2464
  858loPI   C1B12039  15.964   7.037   7.421  0.0479 -0.0751 -0.1999
  858loPI   C2B12040  16.029   7.020   7.845 -0.1935 -0.0583  0.0294
  858loPI   C3B12041  15.949   6.947   8.289  0.0880  0.1516 -0.1067
  858loPI   C4B12042  16.063   6.764   8.637  0.2124 -0.1309  0.0774
  859loPI    C112043   4.186  12.482   6.389 -0.2117  0.2657 -0.0116
  859loPI    C212044   3.924  12.257   6.188  0.0723 -0.0535 -0.0335
  859loPI    C312045   4.166  12.507   5.991  0.0892 -0.0867 -0.0549
  859loPI   PO412046   4.323  12.355   6.594 -0.0440 -0.1916  0.0090
  859loPI   GL112047   4.441  12.404   6.968 -0.2572  0.0784 -0.0633
  859loPI   GL212048   4.641  12.663   6.967  0.2168 -0.1876  0.3424
  859loPI   C1A12049   4.412  12.195   7.339  0.0321  0.0939 -0.3401
  859loPI   C2A12050   4.344  12.238   7.738 -0.0012 -0.1143  0.0544
  859loPI   C3A12051   4.290  12.349   8.147  0.0650 -0.0319  0.0896
  859loPI   C4A12052   4.173  12.469   8.531 -0.0527  0.0707 -0.2836
  859loPI   C5A12053   3.890  12.206   8.782 -0.2337 -0.0757  0.0870
  859loPI   C6A12054   3.701  12.040   9.168  0.0014  0.0624 -0.1877
  859loPI   C1B12055   4.778  12.568   7.303  0.1807  0.3608 -0.0391
  859loPI   C2B12056   4.802  12.524   7.730 -0.1162 -0.1696 -0.5729
  859loPI   C3B12057   4.659  12.659   8.139  0.1890  0.3672 -0.1352
  859loPI   C4B12058   4.659  12.725   8.604  0.0908  0.7166  0.1499
  860loPI    C112059  16.669   0.670   6.007 -0.1410 -0.0574 -0.0525
  860loPI    C212060  17.038   0.821   6.049 -0.1549 -0.0522  0.0525
  860loPI    C312061  16.914   0.692   5.691 -0.0281 -0.1134  0.0303
  860loPI   PO412062  16.545   0.809   6.105  0.0059  0.2019 -0.0354
  860loPI   GL112063  16.410   0.958   6.451  0.3780 -0.0679  0.1459
  860loPI   GL212064  16.108   0.951   6.590  0.0292 -0.4583 -0.1423
  860loPI   C1A12065  16.563   0.989   6.916  0.3560 -0.1706  0.0984
  860loPI   C2A12066  16.602   0.818   7.285  0.1200  0.2010 -0.2800
  860loPI   C3A12067  16.516   0.916   7.704  0.1644 -0.2296  0.1828
  860loPI   C4A12068  16.603   0.917   8.119 -0.0921  0.3412  0.1758
  860loPI   C5A12069  16.553   0.961   8.523  0.0735  0.1349  0.1376
  860loPI   C6A12070  16.358   1.307   8.928  0.0804  0.0988 -0.1359
  860loPI   C1B12071  16.136   0.801   6.980  0.1453 -0.2573  0.0916
  860loPI   C2B12072  16.077   0.697   7.439  0.3240  0.1528  0.1597
  860loPI   C3B12073  16.123   0.672   7.890  0.2379 -0.1752 -0.0690
  860loPI   C4B12074  16.058   0.624   8.281 -0.1642  0.2048  0.3749
  861loPI    C112075  15.505   2.167   5.970  0.1127  0.3131  0.1628
  861loPI    C212076  15.874   2.275   5.859  0.1071  0.2273  0.0584
  861loPI    C312077  15.568   2.321   5.606  0.1157 -0.0947 -0.0147
  861loPI   PO412078  15.586   2.247   6.278  0.3803  0.1411  0.1441
  861loPI   GL112079  15.498   2.470   6.694 -0.1068  0.0772 -0.1389
  861loPI   GL212080  15.841   2.548   6.718 -0.2197  0.0179  0.1545
  861loPI   C1A12081  15.483   2.618   7.072  0.1225  0.2714  0.2225
  861loPI   C2A12082  15.574   2.601   7.434 -0.0235  0.1535 -0.0587
  861loPI   C3A12083  15.610   2.571   7.804 -0.4116  0.0318 -0.3510
  861loPI   C4A12084  15.631   2.515   8.193 -0.0530 -0.2064  0.1957
  861loPI   C5A12085  15.678   2.418   8.633 -0.0181  0.0858  0.0082
  861loPI   C6A12086  15.395   2.365   9.009  0.1473  0.1157  0.1814
  861loPI   C1B12087  16.002   2.524   7.109 -0.0533 -0.2013  0.2626
  861loPI   C2B12088  16.055   2.513   7.494 -0.2261  0.2440 -0.1382
  861loPI   C3B12089  16.054   2.371   7.890 -0.2858  0.0467 -0.2526
  861loPI   C4B12090  15.982   2.168   8.266 -0.3017  0.3367 -0.2839
  862loPI    C112091   0.067   9.094   6.065  0.1762  0.0743 -0.0247
  862loPI    C212092   0.029   9.362   5.771  0.0206  0.3822  0.2694
  862loPI    C312093  -0.293   9.168   5.908  0.1769 -0.2184 -0.1717
  862loPI   PO412094   0.156   9.102   6.256  0.1097 -0.1773  0.1437
  862loPI   GL112095  -0.033   9.253   6.600 -0.0011 -0.2724 -0.3548
  862loPI   GL212096   0.035   8.906   6.724  0.0708  0.1354 -0.0607
  862loPI   C1A12097  -0.314   9.187   6.864  0.0800 -0.1412  0.0454
  862loPI   C2A12098  -0.222   9.118   7.191 -0.1851  0.1958  0.1784
  862loPI   C3A12099  -0.192   9.179   7.664 -0.1206  0.2606 -0.1863
  862loPI   C4A12100  -0.201   9.198   8.052  0.5527  0.0051  0.0176
  862loPI   C5A12101  -0.375   9.186   8.479  0.0340 -0.0476  0.1555
  862loPI   C6A12102  -0.775   9.299   8.769  0.0847 -0.1867 -0.2270
  862loPI   C1B12103   0.225   8.935   7.064 -0.1950 -0.1646 -0.2286
  862loPI   C2B12104   0.172   8.888   7.501  0.2193  0.0751 -0.3569
  862loPI   C3B12105   0.194   8.951   7.976  0.3880 -0.3708 -0.0073
  862loPI   C4B12106   0.325   8.866   8.404  0.0824  0.1647 -0.1425
  863loPI    C112107   5.994   1.212   6.191 -0.1361 -0.0259 -0.0031
  863loPI    C212108   6.206   1.548   6.139  0.1225 -0.2259 -0.2748
  863loPI    C312109   5.816   1.542   6.052  0.0420  0.0909  0.0420
  863loPI   PO412110   6.139   1.135   6.535  0.2549  0.0757 -0.4686
  863loPI   GL112111   5.915   1.109   6.858  0.0101 -0.1965  0.2004
  863loPI   GL212112   5.600   0.971   7.054  0.1424  0.1549 -0.1112
  863loPI   C1A12113   5.933   1.250   7.338 -0.2648  0.0093 -0.0147
  863loPI   C2A12114   5.982   1.077   7.716  0.1481  0.2213 -0.1233
  863loPI   C3A12115   6.035   1.193   8.079 -0.0319  0.1483  0.1154
  863loPI   C4A12116   6.091   1.189   8.559 -0.1769 -0.1060 -0.0025
  863loPI   C5A12117   6.353   0.909   8.819  0.0372  0.0699 -0.1847
  863loPI   C6A12118   6.385   0.756   9.197  0.2024 -0.1219 -0.1321
  863loPI   C1B12119   5.468   0.900   7.370 -0.0704 -0.1732 -0.1507
  863loPI   C2B12120   5.458   0.991   7.790  0.1477 -0.0844 -0.1738
  863loPI   C3B12121   5.559   0.958   8.295  0.2029 -0.0142 -0.1377
  863loPI   C4B12122   5.717   0.897   8.655 -0.1616  0.1801  0.1998
  864loPI    C112123   8.161   3.832   6.055  0.1319 -0.1299  0.0327
  864loPI    C212124   7.860   4.071   5.945 -0.0978 -0.3740  0.1198
  864loPI    C312125   8.239   4.186   5.884 -0.2003  0.0573  0.2583
  864loPI   PO412126   8.129   3.755   6.337  0.4025  0.2353  0.0936
  864loPI   GL112127   8.256   3.899   6.752  0.1048  0.0627 -0.0185
  864loPI   GL212128   7.957   3.892   6.776 -0.2476 -0.0882  0.0711
  864loPI   C1A12129   8.424   3.969   7.089 -0.0084  0.0841  0.1406
  864loPI   C2A12130   8.523   4.012   7.575  0.0060 -0.0183  0.0049
  864loPI   C3A12131   8.526   3.994   8.014 -0.2437  0.2143 -0.0843
  864loPI   C4A12132   8.460   4.039   8.412  0.2028  0.1701  0.0550
  864loPI   C5A12133   8.363   3.753   8.766  0.2698  0.1072 -0.2309
  864loPI   C6A12134   8.083   3.421   8.942 -0.2105  0.2602 -0.1048
  864loPI   C1B12135   7.992   3.692   7.219  0.2810 -0.0281  0.3273
  864loPI   C2B12136   8.052   3.782   7.633 -0.3860  0.0149 -0.3530
  864loPI   C3B12137   8.050   3.830   8.062  0.2184 -0.2407  0.1470
  864loPI   C4B12138   8.065   3.655   8.441  0.1124  0.2193  0.1191
  865loPI    C112139   2.064   0.744   6.219  0.0848 -0.0892  0.0112
  865loPI    C212140   2.431   0.861   6.113 -0.0097  0.0671 -0.1483
  865loPI    C312141   2.244   0.576   5.904  0.0242 -0.0197 -0.0609
  865loPI   PO412142   2.117   0.773   6.492  0.0735 -0.0471 -0.1791
  865loPI   GL112143   1.990   0.707   6.890 -0.0224 -0.2155 -0.0190
  865loPI   GL212144   2.347   0.769   6.962  0.1018  0.2070 -0.0225
  865loPI   C1A12145   1.807   0.958   7.115 -0.0441  0.0340  0.2947
  865loPI   C2A12146   1.790   0.994   7.612  0.0338 -0.1774  0.1355
  865loPI   C3A12147   1.725   0.937   7.993  0.1492  0.0593  0.0354
  865loPI   C4A12148   1.629   1.062   8.419 -0.0128 -0.1800 -0.1762
  865loPI   C5A12149   1.424   1.128   8.764 -0.2493  0.2041 -0.3146
  865loPI   C6A12150   1.227   1.347   9.000  0.0141  0.1478 -0.0648
  865loPI   C1B12151   2.245   0.706   7.385  0.0968 -0.2392  0.0494
  865loPI   C2B12152   2.180   0.695   7.896 -0.0652  0.0062 -0.2132
  865loPI   C3B12153   2.023   0.710   8.369  0.0929 -0.0824 -0.3681
  865loPI   C4B12154   1.830   0.762   8.764  0.1209  0.3137  0.1106
  866loPI    C112155   7.576  14.514   6.262  0.0895 -0.1699 -0.3567
  866loPI    C212156   7.945  14.664   6.229  0.0605 -0.0307 -0.0733
  866loPI    C312157   7.642  14.834   6.031  0.0718  0.1334  0.0478
  866loPI   PO412158   7.608  14.459   6.568  0.2659  0.0893  0.2481
  866loPI   GL112159   7.376  14.467   6.920  0.0396 -0.0604 -0.1516
  866loPI   GL212160   7.611  14.727   7.021  0.0031  0.1463 -0.1881
  866loPI   C1A12161   7.320  14.326   7.290  0.1034 -0.2663  0.0395
  866loPI   C2A12162   7.525  14.144   7.704 -0.3648  0.1855 -0.0927
  866loPI   C3A12163   7.538  14.064   8.112 -0.0266 -0.0219  0.0710
  866loPI   C4A12164   7.611  14.125   8.591  0.2198 -0.2191 -0.1542
  866loPI   C5A12165   7.868  14.330   8.894  0.0974  0.1944  0.1021
  866loPI   C6A12166   8.244  14.275   9.067  0.1248 -0.0774  0.1954
  866loPI   C1B12167   7.916  14.938   7.228  0.0367 -0.3678  0.2992
  866loPI   C2B12168   7.951  15.183   7.572  0.1306  0.0136  0.2681
  866loPI   C3B12169   8.023  15.203   7.958 -0.3084  0.0186 -0.0244
  866loPI   C4B12170   8.144  15.324   8.299 -0.1002 -0.1167 -0.1352
  867loPI    C112171  10.111   8.762   5.992  0.0561  0.0206 -0.0394
  867loPI    C212172  10.462   8.850   5.821  0.0572  0.2488  0.0774
  867loPI    C312173  10.141   8.777   5.594  0.1870  0.0063 -0.0306
  867loPI   PO412174  10.154   8.488   6.173  0.0252 -0.1083  0.0827
  867loPI   GL112175   9.996   8.263   6.596  0.0950  0.0407 -0.0739
  867loPI   GL212176  10.124   8.001   6.772  0.0800 -0.0066  0.0696
  867loPI   C1A12177   9.960   8.552   7.012  0.0135  0.0892  0.1979
  867loPI   C2A12178  10.079   8.544   7.447 -0.0985 -0.3826  0.0456
  867loPI   C3A12179  10.205   8.413   7.859 -0.1420  0.0521 -0.2026
  867loPI   C4A12180  10.189   8.461   8.334 -0.0597  0.1644 -0.1436
  867loPI   C5A12181   9.989   8.444   8.773  0.1224  0.0003  0.0560
  867loPI   C6A12182   9.849   8.540   9.161 -0.1475  0.0037  0.0500
  867loPI   C1B12183  10.141   8.108   7.131 -0.3338 -0.0033 -0.2169
  867loPI   C2B12184  10.134   8.007   7.602  0.1187 -0.0054 -0.0697
  867loPI   C3B12185  10.106   7.955   8.076  0.0373 -0.0647  0.2706
  867loPI   C4B12186  10.202   7.928   8.432 -0.1764  0.1265  0.1153
  868loPI    C112187  14.080   0.874   5.869 -0.0752  0.0972 -0.0786
  868loPI    C212188  13.724   1.042   5.795  0.0081  0.2834 -0.0636
  868loPI    C312189  14.054   1.193   5.628  0.0602  0.0014 -0.2216
  868loPI   PO412190  14.077   0.904   6.138 -0.0881  0.0854 -0.3253
  868loPI   GL112191  13.658   0.962   6.375 -0.1469  0.1817 -0.0406
  868loPI   GL212192  13.508   1.221   6.388 -0.1234 -0.0642  0.0560
  868loPI   C1A12193  13.635   0.630   6.775 -0.1700  0.1780 -0.2041
  868loPI   C2A12194  13.801   0.459   7.151 -0.3983 -0.0796  0.0712
  868loPI   C3A12195  13.857   0.598   7.586 -0.2041  0.1943 -0.2634
  868loPI   C4A12196  13.748   0.572   8.028  0.3204 -0.0098  0.0390
  868loPI   C5A12197  13.465   0.649   8.393 -0.0898  0.2208 -0.2381
  868loPI   C6A12198  13.157   0.913   8.503  0.1430 -0.1336 -0.0787
  868loPI   C1B12199  13.385   1.298   6.836  0.0310 -0.0977  0.1529
  868loPI   C2B12200  13.351   1.438   7.231  0.1197 -0.2686  0.1726
  868loPI   C3B12201  13.320   1.442   7.640 -0.0373  0.1386  0.0080
  868loPI   C4B12202  13.326   1.487   8.102 -0.3255 -0.2797  0.1685
  869loPI    C112203  15.968   5.928   6.585  0.1525  0.2534 -0.0329
  869loPI    C212204  16.311   5.729   6.641 -0.0693 -0.1074  0.0764
  869loPI    C312205  16.279   5.992   6.341  0.2977 -0.0774  0.0593
  869loPI   PO412206  15.827   5.790   6.693 -0.0750  0.1351 -0.0944
  869loPI   GL112207  15.905   5.558   6.992  0.0137 -0.2177 -0.1309
  869loPI   GL212208  16.173   5.780   7.123 -0.0823  0.0955 -0.0925
  869loPI   C1A12209  15.831   5.564   7.366  0.1867 -0.1863 -0.0477
  869loPI   C2A12210  15.869   5.463   7.844  0.1382 -0.4826  0.1187
  869loPI   C3A12211  15.745   5.478   8.225  0.1006 -0.1967  0.0938
  869loPI   C4A12212  15.646   5.529   8.592 -0.1300  0.2385 -0.0491
  869loPI   C5A12213  15.352   5.378   8.874  0.3564 -0.4551 -0.0481
  869loPI   C6A12214  15.027   5.399   9.262  0.1170 -0.0900 -0.3490
  869loPI   C1B12215  16.224   5.842   7.521 -0.1848  0.1945 -0.1098
  869loPI   C2B12216  16.181   5.821   7.961  0.2481 -0.0008 -0.1081
  869loPI   C3B12217  16.123   5.849   8.391 -0.2936 -0.0782 -0.0518
  869loPI   C4B12218  16.079   5.728   8.838  0.4890 -0.3681 -0.0053
  870loPI    C112219   5.900   7.221   6.417  0.0345  0.2982  0.0551
  870loPI    C212220   5.910   7.440   6.083 -0.0653 -0.1093 -0.2222
  870loPI    C312221   5.561   7.302   6.221  0.0229 -0.3195 -0.2041
  870loPI   PO412222   5.911   7.276   6.676 -0.0893  0.3210 -0.0149
  870loPI   GL112223   6.124   7.305   7.093  0.1290 -0.0678  0.0145
  870loPI   GL212224   5.960   7.028   7.126 -0.0808 -0.2208 -0.2548
  870loPI   C1A12225   6.161   7.318   7.608  0.0021 -0.0118  0.2410
  870loPI   C2A12226   6.243   7.312   8.053 -0.3309 -0.0406  0.2021
  870loPI   C3A12227   6.091   7.429   8.379  0.1254  0.0347 -0.1117
  870loPI   C4A12228   6.148   7.403   8.804 -0.1409 -0.1638  0.1541
  870loPI   C5A12229   5.800   7.253   9.121 -0.0053  0.0430 -0.0341
  870loPI   C6A12230   5.403   7.468   9.061 -0.2761  0.1976  0.3221
  870loPI   C1B12231   5.847   6.930   7.567 -0.2495  0.0419  0.1247
  870loPI   C2B12232   5.952   6.946   7.990  0.2409 -0.1001  0.0874
  870loPI   C3B12233   5.973   6.880   8.443 -0.0385 -0.0919 -0.0834
  870loPI   C4B12234   5.779   6.788   8.862  0.0557  0.1265 -0.0532
  871loPI    C112235   4.120  11.186   6.100 -0.1278 -0.1542 -0.0685
  871loPI    C212236   4.060  11.356   5.743  0.2003 -0.0538 -0.0786
  871loPI    C312237   4.252  11.006   5.768  0.0236 -0.1475 -0.0124
  871loPI   PO412238   4.071  11.454   6.251 -0.2536 -0.2537  0.3502
  871loPI   GL112239   4.025  11.520   6.635  0.1826  0.0678 -0.0426
  871loPI   GL212240   3.822  11.249   6.739  0.1015  0.1151 -0.2519
  871loPI   C1A12241   4.197  11.291   7.033  0.0518 -0.2435  0.0569
  871loPI   C2A12242   4.167  11.343   7.456  0.1459 -0.0164 -0.1495
  871loPI   C3A12243   4.035  11.439   7.923 -0.0619  0.4824  0.0975
  871loPI   C4A12244   4.021  11.214   8.261  0.1143 -0.0693 -0.0395
  871loPI   C5A12245   3.960  11.185   8.656  0.2428  0.2890  0.0149
  871loPI   C6A12246   3.660  11.437   8.854  0.2505  0.1466  0.0349
  871loPI   C1B12247   3.678  11.258   7.227  0.0566  0.1606  0.0925
  871loPI   C2B12248   3.560  11.328   7.637  0.1323 -0.3015  0.1994
  871loPI   C3B12249   3.540  11.295   7.953  0.1069 -0.2007  0.1430
  871loPI   C4B12250   3.476  11.293   8.432  0.0309  0.1583 -0.0626
  872loPI    C112251  14.759  11.637   6.653  0.2556 -0.0088 -0.1224
  872loPI    C212252  14.879  11.864   6.347  0.2267  0.1132 -0.0437
  872loPI    C312253  14.671  11.530   6.278  0.0777  0.2261 -0.1502
  872loPI   PO412254  14.600  11.747   6.840  0.2374 -0.3227 -0.0459
  872loPI   GL112255  14.409  11.554   7.184  0.2791 -0.1724 -0.3802
  872loPI   GL212256  14.514  11.326   7.136 -0.0895 -0.1450  0.0666
  872loPI   C1A12257  14.357  11.539   7.695  0.0018 -0.0571 -0.0731
  872loPI   C2A12258  14.278  11.445   8.113  0.0837 -0.0083 -0.2342
  872loPI   C3A12259  14.368  11.486   8.524  0.1264  0.2800 -0.0341
  872loPI   C4A12260  14.708  11.655   8.729 -0.0213 -0.0939 -0.0906
  872loPI   C5A12261  15.107  11.790   8.842  0.0464 -0.2532  0.0359
  872loPI   C6A12262  15.551  11.955   8.978 -0.1574  0.0846  0.2946
  872loPI   C1B12263  14.574  11.127   7.434 -0.1726  0.0237 -0.2312
  872loPI   C2B12264  14.681  11.117   7.939 -0.1669 -0.1039  0.2101
  872loPI   C3B12265  14.843  11.305   8.277  0.0511 -0.1622 -0.1690
  872loPI   C4B12266  15.099  11.350   8.647  0.1909 -0.0524 -0.0718
  873loPI    C112267  11.116   0.003   6.102 -0.1329  0.0738 -0.0278
  873loPI    C212268  11.503   0.103   6.106 -0.0693 -0.1648 -0.0452
  873loPI    C312269  11.271   0.215   5.800 -0.0129 -0.0275 -0.0384
  873loPI   PO412270  11.111   0.008   6.430 -0.0778  0.2699 -0.1486
  873loPI   GL112271  11.429   0.156   6.634 -0.1128 -0.0472 -0.0659
  873loPI   GL212272  11.456  -0.044   6.852  0.2749 -0.0044  0.1838
  873loPI   C1A12273  11.463   0.408   7.067 -0.1501 -0.1653  0.1181
  873loPI   C2A12274  11.513   0.517   7.532 -0.2592  0.0467 -0.0377
  873loPI   C3A12275  11.525   0.436   7.907  0.0436 -0.1406 -0.1321
  873loPI   C4A12276  11.495   0.626   8.241 -0.3000 -0.0210  0.1681
  873loPI   C5A12277  11.627   0.592   8.809  0.1244  0.1737 -0.1243
  873loPI   C6A12278  11.834   0.896   9.039  0.3250 -0.1746  0.2945
  873loPI   C1B12279  11.457  -0.071   7.312  0.0350  0.0021  0.1742
  873loPI   C2B12280  11.469  -0.177   7.778 -0.0524  0.2650  0.1043
  873loPI   C3B12281  11.421  -0.198   8.195  0.0657 -0.0823  0.1666
  873loPI   C4B12282  11.362  -0.265   8.635 -0.2430  0.2503 -0.0417
  874loPI    C112283   5.414   4.323   6.313  0.2128 -0.2320  0.1688
  874loPI    C212284   5.488   4.555   5.996 -0.2617 -0.1778  0.0902
  874loPI    C312285   5.498   4.157   5.959 -0.2923 -0.1716  0.0123
  874loPI   PO412286   5.467   4.468   6.502 -0.0753  0.0972 -0.2953
  874loPI   GL112287   5.623   4.557   6.797  0.0936 -0.0726 -0.2859
  874loPI   GL212288   5.611   4.167   6.866 -0.2974  0.0719 -0.0315
  874loPI   C1A12289   5.745   4.598   7.262  0.0895  0.1579 -0.0392
  874loPI   C2A12290   5.839   4.519   7.711 -0.0980 -0.1511 -0.0942
  874loPI   C3A12291   5.660   4.532   8.116  0.0362 -0.1436  0.0140
  874loPI   C4A12292   5.661   4.583   8.595  0.1503  0.0823  0.0549
  874loPI   C5A12293   5.330   4.589   8.941  0.3473  0.2402  0.2999
  874loPI   C6A12294   5.056   4.414   9.163  0.1825  0.1438  0.1098
  874loPI   C1B12295   5.797   4.073   7.334 -0.2433 -0.2277  0.0240
  874loPI   C2B12296   5.802   4.046   7.827 -0.1212  0.0945 -0.0233
  874loPI   C3B12297   5.880   3.760   8.230  0.1299 -0.0257  0.2068
  874loPI   C4B12298   6.257   3.698   8.317  0.3072 -0.2779 -0.2543
  875loPI    C112299   3.535   7.362   6.151 -0.1357 -0.1124 -0.0963
  875loPI    C212300   3.568   7.673   5.902  0.0647 -0.0282  0.0332
  875loPI    C312301   3.711   7.315   5.795  0.0780 -0.0112 -0.0061
  875loPI   PO412302   3.480   7.582   6.380 -0.0670  0.0908  0.2296
  875loPI   GL112303   3.596   7.484   6.710  0.0032 -0.1650 -0.1915
  875loPI   GL212304   3.929   7.513   6.850 -0.2282  0.2700 -0.1381
  875loPI   C1A12305   3.534   7.271   7.104 -0.2995  0.2225  0.0269
  875loPI   C2A12306   3.431   7.298   7.522 -0.0535  0.4183  0.2142
  875loPI   C3A12307   3.473   7.320   8.041 -0.1042  0.0947 -0.2189
  875loPI   C4A12308   3.495   7.483   8.413  0.1070  0.1538  0.2889
  875loPI   C5A12309   3.444   7.600   8.820 -0.2008 -0.1917  0.2067
  875loPI   C6A12310   3.581   8.096   8.962  0.2071  0.4373 -0.0354
  875loPI   C1B12311   3.933   7.532   7.349 -0.1569 -0.0596 -0.1762
  875loPI   C2B12312   3.877   7.555   7.822 -0.3095  0.1966  0.0020
  875loPI   C3B12313   3.858   7.716   8.180  0.1010 -0.0337  0.2248
  875loPI   C4B12314   3.847   7.890   8.579  0.0914  0.1146 -0.0567
  876loPI    C112315   4.052   7.468   6.213 -0.1130  0.0318 -0.0075
  876loPI    C212316   4.445   7.393   6.199 -0.1452 -0.2003  0.2395
  876loPI    C312317   4.201   7.237   5.923 -0.0399  0.1263 -0.0457
  876loPI   PO412318   3.987   7.357   6.377 -0.0282  0.2808  0.0132
  876loPI   GL112319   3.852   7.032   6.648 -0.2751 -0.0321 -0.1818
  876loPI   GL212320   3.775   6.678   6.776  0.0095 -0.1733  0.1544
  876loPI   C1A12321   3.971   7.082   7.121  0.0501 -0.1303 -0.4371
  876loPI   C2A12322   4.087   7.018   7.568 -0.1740  0.0894 -0.0680
  876loPI   C3A12323   3.926   7.068   7.943 -0.0523 -0.0147 -0.1306
  876loPI   C4A12324   3.898   7.208   8.337 -0.2243 -0.2285 -0.0264
  876loPI   C5A12325   3.982   7.380   8.793  0.0004  0.1111  0.0322
  876loPI   C6A12326   4.056   7.674   9.124 -0.0201  0.0382 -0.0290
  876loPI   C1B12327   4.015   6.600   7.116 -0.4815  0.0066 -0.2382
  876loPI   C2B12328   3.980   6.499   7.493 -0.0483  0.2445 -0.0706
  876loPI   C3B12329   3.987   6.551   7.891 -0.2768  0.0853  0.1925
  876loPI   C4B12330   4.086   6.460   8.263 -0.2184  0.0900 -0.1705
  877loPI    C112331   9.427   0.025   5.986  0.0208 -0.0299 -0.0952
  877loPI    C212332   9.630   0.249   5.725  0.0315  0.0134 -0.0498
  877loPI    C312333   9.558  -0.136   5.644 -0.1569  0.0826 -0.2175
  877loPI   PO412334   9.504   0.187   6.242  0.0400 -0.1623 -0.0775
  877loPI   GL112335   9.812   0.335   6.572 -0.1750  0.1848 -0.0020
  877loPI   GL212336   9.851   0.067   6.608  0.1159 -0.0762 -0.1103
  877loPI   C1A12337   9.703   0.460   7.017  0.0377  0.1915  0.1241
  877loPI   C2A12338   9.728   0.488   7.401  0.0568  0.0239 -0.0019
  877loPI   C3A12339   9.651   0.541   7.883 -0.2329 -0.2063  0.0514
  877loPI   C4A12340   9.691   0.540   8.244  0.2078  0.1223 -0.1368
  877loPI   C5A12341   9.506   0.473   8.537  0.1862 -0.0345  0.0761
  877loPI   C6A12342   9.117   0.506   8.686  0.3186  0.1361  0.1888
  877loPI   C1B12343  10.096  -0.187   6.918  0.4016 -0.0509  0.1130
  877loPI   C2B12344  10.115  -0.218   7.376  0.2041 -0.0285  0.2181
  877loPI   C3B12345  10.196  -0.152   7.841  0.0903 -0.0601 -0.0564
  877loPI   C4B12346  10.137  -0.299   8.190  0.1672 -0.0588  0.1569
  878loPI    C112347   0.788   4.270   6.303  0.1152 -0.1843  0.0359
  878loPI    C212348   0.445   4.094   6.408  0.0555 -0.1523 -0.1041
  878loPI    C312349   0.562   4.092   6.025  0.1516 -0.0585 -0.0755
  878loPI   PO412350   0.898   4.133   6.519  0.0211  0.0226  0.0048
  878loPI   GL112351   1.006   4.029   7.015  0.0845 -0.1660  0.1610
  878loPI   GL212352   0.923   3.705   7.045 -0.1247  0.2200  0.1277
  878loPI   C1A12353   0.968   4.099   7.486 -0.2177  0.0874 -0.0477
  878loPI   C2A12354   1.051   4.037   7.927 -0.1188 -0.0900  0.4664
  878loPI   C3A12355   1.038   4.126   8.384 -0.1607  0.1092 -0.0118
  878loPI   C4A12356   1.065   3.808   8.739  0.0279 -0.1698  0.2500
  878loPI   C5A12357   0.965   3.392   8.841 -0.0715 -0.1554 -0.0262
  878loPI   C6A12358   1.298   3.104   8.995 -0.1736  0.0904 -0.0508
  878loPI   C1B12359   0.828   3.601   7.409  0.0429 -0.2060  0.1903
  878loPI   C2B12360   0.743   3.630   7.863  0.0125 -0.1411  0.0161
  878loPI   C3B12361   0.749   3.674   8.365  0.0591  0.1453 -0.0304
  878loPI   C4B12362   0.538   3.717   8.749  0.3157  0.1342 -0.1920
  879loPI    C112363  14.920   9.129   6.394 -0.0466 -0.0883 -0.2621
  879loPI    C212364  14.797   8.796   6.209 -0.1175  0.0412 -0.4519
  879loPI    C312365  14.582   9.132   6.180 -0.3533 -0.0372  0.2092
  879loPI   PO412366  15.010   9.067   6.580 -0.4483 -0.1256 -0.1041
  879loPI   GL112367  15.207   9.007   6.962 -0.1456  0.0192 -0.0796
  879loPI   GL212368  15.108   9.299   7.033 -0.2431 -0.0020 -0.0609
  879loPI   C1A12369  15.497   8.944   7.226  0.2499 -0.0376 -0.0846
  879loPI   C2A12370  15.540   8.835   7.584 -0.1915  0.0291  0.2898
  879loPI   C3A12371  15.590   8.760   7.896 -0.4377 -0.0328  0.2216
  879loPI   C4A12372  15.472   8.949   8.256 -0.4501 -0.2479 -0.1104
  879loPI   C5A12373  15.596   8.924   8.739 -0.0342  0.1374  0.0351
  879loPI   C6A12374  15.811   9.107   9.014 -0.0392 -0.0691  0.0116
  879loPI   C1B12375  15.232   9.301   7.440 -0.0309 -0.0239  0.2090
  879loPI   C2B12376  15.405   9.278   7.868  0.0215  0.0208 -0.0455
  879loPI   C3B12377  15.459   9.428   8.276 -0.0982 -0.0225  0.0693
  879loPI   C4B12378  15.664   9.532   8.696  0.0466 -0.1054 -0.3012
  880loPI    C112379  11.082   3.783   5.923 -0.0852 -0.0376 -0.1875
  880loPI    C212380  11.070   3.994   5.583 -0.1767  0.1413 -0.0745
  880loPI    C312381  11.403   3.989   5.804 -0.1220  0.0367 -0.1587
  880loPI   PO412382  10.909   3.870   6.188  0.0763 -0.0981 -0.0250
  880loPI   GL112383  10.935   4.121   6.562  0.1826  0.0029 -0.0517
  880loPI   GL212384  10.655   4.160   6.764  0.1230 -0.1981 -0.1406
  880loPI   C1A12385  11.350   4.287   6.679 -0.1103  0.3265 -0.0608
  880loPI   C2A12386  11.666   4.531   6.807  0.1948 -0.0981  0.1801
  880loPI   C3A12387  11.752   4.657   7.255 -0.1572 -0.2736 -0.1304
  880loPI   C4A12388  11.665   4.669   7.617  0.2432 -0.0394  0.0230
  880loPI   C5A12389  11.620   4.758   8.069  0.2022 -0.0670  0.3573
  880loPI   C6A12390  11.704   4.665   8.444  0.1043 -0.1961  0.0344
  880loPI   C1B12391  10.680   4.222   7.285 -0.0715 -0.3125 -0.1437
  880loPI   C2B12392  10.797   4.177   7.767 -0.4464 -0.1083 -0.1286
  880loPI   C3B12393  10.723   4.355   8.154 -0.2880 -0.0055 -0.1050
  880loPI   C4B12394  10.984   4.413   8.489 -0.2146  0.0299 -0.4175
  881loPI    C112395  12.102   2.045   6.191 -0.0859 -0.1892 -0.1542
  881loPI    C212396  12.495   2.094   6.245 -0.1273  0.0522 -0.0580
  881loPI    C312397  12.359   1.918   5.912  0.0565  0.0714 -0.1443
  881loPI   PO412398  12.038   2.243   6.270 -0.3252  0.1652 -0.2105
  881loPI   GL112399  11.882   2.307   6.711 -0.0215  0.3044 -0.0129
  881loPI   GL212400  11.644   2.383   6.688  0.1223 -0.2938 -0.1260
  881loPI   C1A12401  12.019   2.113   7.078 -0.1460  0.2374  0.0603
  881loPI   C2A12402  12.049   2.185   7.512 -0.1011  0.4468 -0.1568
  881loPI   C3A12403  11.972   2.317   7.905 -0.0420 -0.1831  0.1214
  881loPI   C4A12404  11.890   2.430   8.393 -0.3029  0.0642 -0.0886
  881loPI   C5A12405  11.579   2.565   8.817 -0.3465 -0.1782  0.0138
  881loPI   C6A12406  11.231   2.466   9.023 -0.2435  0.0472 -0.1590
  881loPI   C1B12407  11.753   2.597   7.142  0.1620  0.1642 -0.4573
  881loPI   C2B12408  11.690   2.563   7.560  0.2311  0.1517 -0.1240
  881loPI   C3B12409  11.616   2.693   7.936  0.0080  0.3906 -0.2186
  881loPI   C4B12410  11.431   2.629   8.338 -0.1086 -0.0421  0.2237
  882loPI    C112411   6.049  11.108   6.276 -0.3014 -0.1628  0.1278
  882loPI    C212412   5.921  11.445   6.102  0.0478 -0.0474  0.0857
  882loPI    C312413   6.012  11.127   5.878  0.1373 -0.0234  0.0874
  882loPI   PO412414   5.899  11.064   6.467  0.0994 -0.0869  0.0273
  882loPI   GL112415   5.850  11.003   6.817  0.1453 -0.1989 -0.0207
  882loPI   GL212416   5.573  11.109   6.910 -0.0241  0.1739 -0.0915
  882loPI   C1A12417   5.916  11.041   7.255 -0.1819 -0.2693  0.0319
  882loPI   C2A12418   5.798  11.193   7.670 -0.1405 -0.3882  0.0663
  882loPI   C3A12419   5.594  11.476   8.064 -0.1144  0.0094 -0.4795
  882loPI   C4A12420   5.385  11.635   8.482  0.0731 -0.3969 -0.0736
  882loPI   C5A12421   5.112  11.604   8.787  0.1091 -0.0344  0.1783
  882loPI   C6A12422   4.691  11.706   8.838  0.0004 -0.0622 -0.3066
  882loPI   C1B12423   5.397  11.265   7.306 -0.1396  0.0681 -0.2471
  882loPI   C2B12424   5.278  11.249   7.730  0.1531 -0.1178  0.0159
  882loPI   C3B12425   5.107  11.284   8.178 -0.2293  0.1137  0.2200
  882loPI   C4B12426   4.945  11.071   8.501  0.0721  0.0714  0.4265
  883loPI    C112427  12.242   4.884   5.802  0.0272  0.0357 -0.0127
  883loPI    C212428  12.169   5.206   5.577  0.0999 -0.1027 -0.2378
  883loPI    C312429  12.544   5.120   5.688  0.0403  0.0903  0.1317
  883loPI   PO412430  12.159   4.928   6.012  0.0476  0.2113  0.2664
  883loPI   GL112431  12.336   4.645   6.327 -0.0549 -0.0416 -0.1007
  883loPI   GL212432  12.631   4.480   6.269  0.0953  0.1225 -0.3751
  883loPI   C1A12433  12.228   4.840   6.697  0.1584  0.0743  0.0607
  883loPI   C2A12434  12.213   4.859   7.217  0.3641 -0.1948 -0.0681
  883loPI   C3A12435  12.228   4.879   7.679  0.1725 -0.1361  0.0911
  883loPI   C4A12436  12.133   4.899   8.106 -0.1559  0.0913  0.0484
  883loPI   C5A12437  12.009   5.070   8.475 -0.0841  0.2360  0.0925
  883loPI   C6A12438  11.986   5.361   8.713  0.0161  0.2415 -0.1078
  883loPI   C1B12439  12.618   4.450   6.652  0.0942 -0.0175 -0.0210
  883loPI   C2B12440  12.619   4.582   7.108 -0.1271  0.0623 -0.2478
  883loPI   C3B12441  12.591   4.629   7.491 -0.0655  0.0551 -0.1605
  883loPI   C4B12442  12.612   4.549   7.913 -0.1249 -0.0463  0.0756
  884loPI    C112443   3.590   8.169   6.030 -0.0440 -0.0609  0.0770
  884loPI    C212444   3.801   8.377   6.298 -0.0068 -0.0814  0.0637
  884loPI    C312445   3.827   8.468   5.909  0.0024 -0.1050  0.0588
  884loPI   PO412446   3.411   8.081   6.218 -0.1235 -0.1400  0.0208
  884loPI   GL112447   3.388   7.966   6.647 -0.1678  0.0728  0.3184
  884loPI   GL212448   3.475   8.302   6.674  0.0036 -0.0561  0.2861
  884loPI   C1A12449   3.454   7.815   7.066  0.2031 -0.3212  0.2159
  884loPI   C2A12450   3.511   7.772   7.555 -0.0886 -0.2079  0.0287
  884loPI   C3A12451   3.461   7.915   7.985  0.1715  0.1084  0.1459
  884loPI   C4A12452   3.354   7.962   8.389 -0.3239  0.1031  0.2266
  884loPI   C5A12453   3.132   8.098   8.751 -0.2280 -0.1353  0.1808
  884loPI   C6A12454   3.128   7.961   9.164 -0.0415 -0.1483 -0.0676
  884loPI   C1B12455   3.407   8.371   7.035  0.1078 -0.2115  0.0115
  884loPI   C2B12456   3.433   8.415   7.512  0.0740  0.1297 -0.2537
  884loPI   C3B12457   3.430   8.414   8.000  0.4796 -0.1849  0.0607
  884loPI   C4B12458   3.407   8.475   8.385  0.2044 -0.1910  0.0534
  885loPI    C112459  14.937   0.473   6.189 -0.1684  0.2062 -0.1541
  885loPI    C212460  15.111   0.271   5.891  0.0849  0.2535 -0.0402
  885loPI    C312461  14.735   0.401   5.851 -0.0206 -0.0847 -0.1835
  885loPI   PO412462  15.214   0.572   6.317 -0.0126 -0.0103 -0.2042
  885loPI   GL112463  15.395   0.564   6.685 -0.0045 -0.0801  0.2309
  885loPI   GL212464  15.784   0.547   6.649 -0.2793  0.0378  0.0107
  885loPI   C1A12465  15.239   0.784   6.938 -0.1625 -0.1345 -0.1324
  885loPI   C2A12466  15.208   0.718   7.458  0.0994 -0.1652  0.0732
  885loPI   C3A12467  15.203   0.782   7.867 -0.0498 -0.0175 -0.1810
  885loPI   C4A12468  15.029   0.806   8.272 -0.2590 -0.1016  0.2976
  885loPI   C5A12469  15.163   0.681   8.762  0.4018  0.0306 -0.2402
  885loPI   C6A12470  15.152   0.229   8.733  0.0098 -0.0166 -0.1525
  885loPI   C1B12471  15.676   0.515   7.096  0.2965  0.0516  0.1686
  885loPI   C2B12472  15.548   0.376   7.452 -0.1257  0.1049 -0.2414
  885loPI   C3B12473  15.525   0.411   7.956 -0.0925  0.0301  0.1044
  885loPI   C4B12474  15.564   0.321   8.479 -0.0643 -0.1111  0.0407
  886loPI    C112475  11.666  10.618   6.118  0.0728  0.2056 -0.1026
  886loPI    C212476  11.445  10.424   5.847  0.0076  0.0509  0.0595
  886loPI    C312477  11.840  10.459   5.795 -0.0059  0.0297 -0.0593
  886loPI   PO412478  11.474  10.541   6.379  0.0796  0.3527 -0.0639
  886loPI   GL112479  11.252  10.630   6.809  0.1150  0.0900  0.1457
  886loPI   GL212480  11.438  10.478   7.015  0.1567  0.2920  0.0256
  886loPI   C1A12481  11.321  10.919   7.078 -0.0830  0.1818  0.2507
  886loPI   C2A12482  11.407  11.011   7.483  0.0107  0.0114  0.0711
  886loPI   C3A12483  11.371  11.061   7.953  0.0583  0.0451  0.0276
  886loPI   C4A12484  11.344  10.944   8.360 -0.1403  0.0184  0.0422
  886loPI   C5A12485  11.498  10.873   8.752 -0.0016 -0.1260 -0.1716
  886loPI   C6A12486  11.593  10.427   9.049  0.3675  0.0630  0.1486
  886loPI   C1B12487  11.380  10.478   7.423  0.1006  0.0200 -0.0977
  886loPI   C2B12488  11.334  10.547   7.888 -0.1761 -0.1184  0.0238
  886loPI   C3B12489  11.429  10.413   8.322  0.1128  0.1724  0.1945
  886loPI   C4B12490  11.182  10.427   8.677 -0.1486 -0.1096 -0.0782
  887loPI    C112491   8.517   7.341   6.074 -0.0417  0.2322 -0.0934
  887loPI    C212492   8.155   7.183   6.008 -0.0108  0.0639  0.1255
  887loPI    C312493   8.249   7.540   5.854 -0.1556 -0.0350 -0.2012
  887loPI   PO412494   8.521   7.262   6.352 -0.0388 -0.0500  0.0823
  887loPI   GL112495   8.467   7.510   6.788  0.1828 -0.2354  0.0217
  887loPI   GL212496   8.612   7.358   6.974 -0.0294 -0.3465 -0.2551
  887loPI   C1A12497   8.231   7.653   7.212  0.0471  0.1100  0.0174
  887loPI   C2A12498   8.380   7.587   7.641 -0.0115  0.1325  0.0522
  887loPI   C3A12499   8.325   7.478   8.100  0.0720 -0.1668  0.0524
  887loPI   C4A12500   8.255   7.462   8.517 -0.2752  0.0559  0.2550
  887loPI   C5A12501   8.260   7.745   8.785 -0.2287  0.1459 -0.3062
  887loPI   C6A12502   7.969   7.933   9.090 -0.2429 -0.1911  0.2210
  887loPI   C1B12503   8.731   7.285   7.407  0.0078 -0.3104 -0.0958
  887loPI   C2B12504   8.774   7.333   7.810 -0.2599 -0.0184 -0.0955
  887loPI   C3B12505   8.694   7.212   8.241 -0.2714 -0.1621 -0.0510
  887loPI   C4B12506   8.706   7.232   8.676  0.2002 -0.1049 -0.1412
  888loPI    C112507  11.409   5.454   6.059 -0.0447  0.2038 -0.2618
  888loPI    C212508  11.763   5.275   6.012 -0.0509  0.0768  0.1413
  888loPI    C312509  11.517   5.318   5.699  0.1986 -0.0893 -0.0816
  888loPI   PO412510  11.306   5.400   6.303 -0.2287  0.0279  0.2491
  888loPI   GL112511  11.218   5.144   6.596 -0.2414  0.1588  0.0801
  888loPI   GL212512  11.210   4.896   6.543 -0.3269  0.1498  0.1516
  888loPI   C1A12513  11.456   5.020   7.047  0.2950 -0.1777 -0.1480
  888loPI   C2A12514  11.260   4.834   7.391 -0.0347  0.1236 -0.3053
  888loPI   C3A12515  11.278   5.005   7.736 -0.3162  0.1162 -0.2949
  888loPI   C4A12516  11.179   4.997   8.162  0.0761 -0.3450 -0.1134
  888loPI   C5A12517  11.068   4.928   8.605  0.2073  0.0698 -0.0859
  888loPI   C6A12518  11.267   4.943   9.056  0.0527  0.0162  0.0968
  888loPI   C1B12519  11.115   4.652   6.937 -0.1736 -0.0384  0.0134
  888loPI   C2B12520  11.242   4.346   7.234 -0.1466 -0.0105  0.1246
  888loPI   C3B12521  11.232   4.384   7.696  0.2954 -0.1174  0.0027
  888loPI   C4B12522  11.152   4.541   8.037 -0.0728  0.2220 -0.1929
  889loPI    C112523  11.906  14.808   6.229  0.0581 -0.0280  0.0797
  889loPI    C212524  12.233  15.038   6.219  0.2029 -0.2346  0.0101
  889loPI    C312525  11.974  15.045   5.914  0.2693 -0.2537 -0.0469
  889loPI   PO412526  12.049  14.525   6.264  0.0231  0.2383 -0.1559
  889loPI   GL112527  12.164  14.391   6.589  0.1031 -0.2031 -0.2057
  889loPI   GL212528  11.862  14.259   6.637 -0.0124 -0.2734  0.0572
  889loPI   C1A12529  12.217  14.367   7.025  0.1037  0.2778  0.1982
  889loPI   C2A12530  12.218  14.352   7.517  0.0813  0.0168  0.1221
  889loPI   C3A12531  12.271  14.327   8.011  0.0928 -0.0435  0.0250
  889loPI   C4A12532  12.196  14.303   8.318 -0.0098 -0.1933 -0.3451
  889loPI   C5A12533  12.020  14.522   8.718 -0.1302  0.0276 -0.1982
  889loPI   C6A12534  12.121  14.491   9.208 -0.1520  0.1562 -0.1603
  889loPI   C1B12535  11.725  14.103   7.062 -0.1089 -0.2467  0.1694
  889loPI   C2B12536  11.669  14.084   7.525 -0.1166  0.1000  0.1110
  889loPI   C3B12537  11.705  14.134   7.962 -0.3167  0.2487  0.0242
  889loPI   C4B12538  11.737  14.090   8.432  0.0446  0.1442 -0.1621
  890loPI    C112539   0.616   9.040   6.091  0.1522 -0.0409 -0.0625
  890loPI    C212540   0.415   8.705   6.006  0.1647 -0.0156 -0.1937
  890loPI    C312541   0.437   8.999   5.736  0.0653  0.1348 -0.0403
  890loPI   PO412542   0.598   9.205   6.422  0.3461 -0.1894 -0.1316
  890loPI   GL112543   0.482   9.160   6.722 -0.2192  0.0107 -0.1287
  890loPI   GL212544   0.738   9.118   6.895 -0.0091  0.1091 -0.0674
  890loPI   C1A12545   0.131   9.490   7.051  0.1871  0.0807 -0.0790
  890loPI   C2A12546   0.162   9.454   7.461 -0.3438 -0.0286  0.0156
  890loPI   C3A12547   0.192   9.436   7.887 -0.1668 -0.0151  0.0591
  890loPI   C4A12548   0.151   9.423   8.299  0.2799 -0.0708 -0.1363
  890loPI   C5A12549   0.169   9.298   8.670 -0.2030 -0.0998  0.1273
  890loPI   C6A12550   0.375   9.040   9.007  0.2460 -0.2434  0.0593
  890loPI   C1B12551   0.582   9.293   7.237  0.0756  0.2109  0.0528
  890loPI   C2B12552   0.593   9.279   7.675 -0.1702  0.0766  0.0054
  890loPI   C3B12553   0.647   9.180   8.059 -0.1164  0.0525  0.1179
  890loPI   C4B12554   0.664   9.230   8.527  0.2538  0.1339  0.2060
  891loPI    C112555  11.763  13.162   6.128  0.1066 -0.1522 -0.0083
  891loPI    C212556  11.830  13.515   5.953  0.0012 -0.0800  0.0946
  891loPI    C312557  12.066  13.203   5.871 -0.0593 -0.0538 -0.1913
  891loPI   PO412558  11.697  13.325   6.439  0.1627  0.0265 -0.2522
  891loPI   GL112559  11.643  13.174   6.844  0.2041  0.2202 -0.1171
  891loPI   GL212560  11.721  13.593   6.902  0.1419  0.3419  0.0323
  891loPI   C1A12561  11.647  13.083   7.309 -0.0420  0.2913 -0.1918
  891loPI   C2A12562  11.585  13.105   7.763 -0.0891 -0.0229  0.1140
  891loPI   C3A12563  11.685  13.133   8.268  0.0236  0.4331 -0.0436
  891loPI   C4A12564  11.556  13.171   8.706  0.2558  0.2789 -0.0979
  891loPI   C5A12565  11.487  13.112   9.224  0.1070  0.0589 -0.5912
  891loPI   C6A12566  11.437  12.791   9.369 -0.1125 -0.0126  0.0327
  891loPI   C1B12567  11.750  13.540   7.330 -0.0203 -0.0588 -0.2099
  891loPI   C2B12568  11.684  13.673   7.765  0.1544  0.3271  0.2801
  891loPI   C3B12569  11.675  13.659   8.143 -0.2814  0.0360 -0.0347
  891loPI   C4B12570  11.769  13.594   8.539 -0.0835 -0.0502 -0.0300
  892loPI    C112571  10.762   0.903   6.280  0.1258  0.2456  0.1351
  892loPI    C212572  10.863   1.158   5.989  0.0919 -0.3587 -0.4303
  892loPI    C312573  10.482   1.046   6.033  0.0756 -0.1772 -0.0603
  892loPI   PO412574  11.027   0.990   6.490 -0.1409 -0.0028 -0.2257
  892loPI   GL112575  11.004   1.174   6.889  0.2620  0.1450 -0.0952
  892loPI   GL212576  11.218   1.285   6.795 -0.7289 -0.0238 -0.1472
  892loPI   C1A12577  11.156   1.155   7.293  0.1949 -0.0697 -0.1588
  892loPI   C2A12578  11.138   1.279   7.768 -0.3229  0.0114 -0.1198
  892loPI   C3A12579  11.006   1.385   8.183  0.0577  0.0168  0.0398
  892loPI   C4A12580  11.160   1.416   8.593 -0.0430 -0.2488 -0.0728
  892loPI   C5A12581  11.519   1.513   8.748 -0.0692  0.1739  0.3376
  892loPI   C6A12582  11.967   1.384   8.790 -0.0582 -0.1615  0.3128
  892loPI   C1B12583  11.513   1.447   7.087  0.2289  0.0284 -0.0097
  892loPI   C2B12584  11.552   1.448   7.508 -0.0670 -0.0129 -0.0950
  892loPI   C3B12585  11.531   1.632   7.880  0.0979 -0.0796  0.2368
  892loPI   C4B12586  11.479   1.602   8.275  0.0442  0.2145  0.0688
  893loPI    C112587   9.478  11.497   6.420  0.0223 -0.1119  0.0463
  893loPI    C212588   9.162  11.614   6.205  0.0181 -0.1116  0.0525
  893loPI    C312589   9.530  11.636   6.049  0.0336  0.0607  0.1120
  893loPI   PO412590   9.400  11.330   6.572  0.0691  0.2768 -0.0368
  893loPI   GL112591   9.308  11.228   6.979 -0.1736 -0.1689 -0.3358
  893loPI   GL212592   9.327  10.986   6.913  0.0686  0.0538 -0.1495
  893loPI   C1A12593   9.531  11.265   7.421  0.2207  0.0478  0.0201
  893loPI   C2A12594   9.676  11.171   7.799 -0.0947 -0.3263  0.0712
  893loPI   C3A12595   9.582  11.128   8.177  0.0187  0.0895 -0.1000
  893loPI   C4A12596   9.551  11.115   8.626  0.0295  0.3114  0.3141
  893loPI   C5A12597   9.869  10.976   8.857 -0.3629  0.0115 -0.0272
  893loPI   C6A12598  10.116  11.186   9.066  0.0924  0.0584  0.2022
  893loPI   C1B12599   9.445  10.762   7.304 -0.3194 -0.4341 -0.3000
  893loPI   C2B12600   9.479  10.631   7.743 -0.0450 -0.1650 -0.0659
  893loPI   C3B12601   9.512  10.614   8.185  0.1639 -0.2020  0.2242
  893loPI   C4B12602   9.579  10.558   8.579 -0.0234  0.0181  0.1265
  894loPI    C112603   9.127  15.873   6.230  0.2428 -0.0139  0.1205
  894loPI    C212604   9.167  15.524   6.039  0.1971  0.0045  0.0771
  894loPI    C312605   9.381  15.840   5.922  0.1081  0.0378  0.0029
  894loPI   PO412606   9.083  15.816   6.500  0.0491  0.2113 -0.0299
  894loPI   GL112607   9.341  15.713   6.779  0.0840  0.4446  0.0344
  894loPI   GL212608   9.248  15.521   6.978 -0.1625 -0.2478  0.1180
  894loPI   C1A12609   9.585  15.952   7.049 -0.2191 -0.1445 -0.0890
  894loPI   C2A12610   9.637  15.990   7.389  0.0501 -0.0788  0.1430
  894loPI   C3A12611   9.710  16.126   7.791  0.2122  0.0016  0.2289
  894loPI   C4A12612   9.647  16.077   8.225  0.1763  0.4305  0.1982
  894loPI   C5A12613   9.853  16.036   8.650  0.0269 -0.2721 -0.1526
  894loPI   C6A12614   9.610  16.254   9.026 -0.0703  0.0550 -0.0074
  894loPI   C1B12615   9.238  15.633   7.393  0.1466  0.1425 -0.2447
  894loPI   C2B12616   9.360  15.742   7.849 -0.0464  0.1443 -0.0926
  894loPI   C3B12617   9.262  15.768   8.305  0.3708 -0.2525  0.0103
  894loPI   C4B12618   9.348  16.029   8.652 -0.1171  0.0440  0.0813
  895loPI    C112619   7.818   2.440   6.517 -0.2295 -0.0375 -0.0467
  895loPI    C212620   7.854   2.800   6.686  0.0628  0.0211 -0.2269
  895loPI    C312621   7.752   2.769   6.301  0.1781 -0.0824 -0.2500
  895loPI   PO412622   7.925   2.309   6.679 -0.0603  0.3986  0.0628
  895loPI   GL112623   8.070   2.398   7.079  0.0279  0.1786 -0.1444
  895loPI   GL212624   8.050   2.676   7.173  0.0140 -0.1313  0.2226
  895loPI   C1A12625   8.006   2.189   7.454  0.1997  0.2170 -0.4539
  895loPI   C2A12626   8.026   2.242   7.859 -0.0477 -0.3958  0.3471
  895loPI   C3A12627   8.045   2.173   8.249  0.0090  0.2619 -0.0378
  895loPI   C4A12628   8.062   2.087   8.752  0.1770  0.1869  0.3311
  895loPI   C5A12629   7.899   1.794   9.037 -0.1055  0.0463  0.0084
  895loPI   C6A12630   7.470   1.648   9.099 -0.0361 -0.2449  0.0997
  895loPI   C1B12631   8.018   2.734   7.562 -0.0607 -0.4007 -0.0313
  895loPI   C2B12632   7.982   2.738   7.984  0.0878 -0.1859  0.2995
  895loPI   C3B12633   8.091   2.616   8.419 -0.0200  0.1474 -0.6392
  895loPI   C4B12634   8.283   2.655   8.842  0.2616 -0.1415  0.0247
  896loPI    C112635  10.831   2.934   6.180 -0.0042 -0.1915  0.1927
  896loPI    C212636  10.470   2.766   6.141 -0.0702  0.0093 -0.0940
  896loPI    C312637  10.737   2.739   5.844 -0.0005  0.2164 -0.0517
  896loPI   PO412638  10.935   2.847   6.420 -0.0783  0.1859  0.1339
  896loPI   GL112639  10.818   2.673   6.776  0.0900  0.1678 -0.1100
  896loPI   GL212640  10.647   2.376   6.862 -0.1144  0.1607 -0.1260
  896loPI   C1A12641  10.844   2.890   7.277  0.1350 -0.0040 -0.1137
  896loPI   C2A12642  10.742   3.101   7.587  0.1729 -0.3187  0.0723
  896loPI   C3A12643  10.705   3.223   7.980 -0.0852  0.0618 -0.1244
  896loPI   C4A12644  10.756   3.234   8.381 -0.1960  0.0683 -0.1765
  896loPI   C5A12645  10.560   3.197   8.866  0.1223 -0.0898  0.1328
  896loPI   C6A12646  10.446   3.483   9.226 -0.4979 -0.0375 -0.0050
  896loPI   C1B12647  10.583   2.466   7.323 -0.0390 -0.1126  0.0682
  896loPI   C2B12648  10.605   2.578   7.754  0.0623  0.0544 -0.2417
  896loPI   C3B12649  10.700   2.648   8.170  0.2691 -0.1609  0.0847
  896loPI   C4B12650  10.487   2.681   8.513  0.0984  0.3420  0.2014
  897loPI    C112651  12.431   8.880   6.336  0.2804  0.0816  0.0321
  897loPI    C212652  12.378   8.543   6.545 -0.0024  0.0542 -0.0791
  897loPI    C312653  12.639   8.552   6.243  0.3275  0.0628  0.2006
  897loPI   PO412654  12.491   9.076   6.515  0.2482 -0.1006  0.1202
  897loPI   GL112655  12.443   9.356   6.867 -0.0699 -0.1581  0.0402
  897loPI   GL212656  12.061   9.335   7.036 -0.3501  0.1313 -0.4084
  897loPI   C1A12657  12.536   9.375   7.250 -0.2423  0.0249  0.1770
  897loPI   C2A12658  12.552   9.200   7.626  0.0007 -0.0820 -0.0071
  897loPI   C3A12659  12.499   9.004   8.077 -0.0183  0.0203  0.0813
  897loPI   C4A12660  12.425   9.014   8.522 -0.0854  0.1973 -0.2513
  897loPI   C5A12661  12.345   8.911   8.865 -0.2335  0.0856 -0.0562
  897loPI   C6A12662  12.217   9.095   9.334  0.2046  0.0706  0.0482
  897loPI   C1B12663  12.047   9.320   7.471  0.0471 -0.0492  0.2124
  897loPI   C2B12664  12.102   9.288   7.896  0.2325 -0.0152 -0.0402
  897loPI   C3B12665  12.109   9.381   8.327  0.0760 -0.2545  0.1192
  897loPI   C4B12666  12.004   9.390   8.759  0.0297  0.1321 -0.1646
  898loPI    C112667  15.725   6.479   6.667 -0.0120 -0.2642 -0.0126
  898loPI    C212668  15.979   6.416   6.365 -0.0346  0.0609 -0.1027
  898loPI    C312669  15.602   6.526   6.290 -0.0553  0.0912  0.0426
  898loPI   PO412670  15.758   6.331   6.803  0.3616  0.0663 -0.2360
  898loPI   GL112671  15.965   6.242   7.154 -0.1951  0.0543 -0.2868
  898loPI   GL212672  15.749   6.010   7.173  0.0236  0.2909  0.0742
  898loPI   C1A12673  16.129   6.480   7.545  0.0017 -0.1383 -0.0024
  898loPI   C2A12674  16.218   6.378   7.943 -0.1517 -0.2450  0.1717
  898loPI   C3A12675  16.043   6.360   8.256  0.0016 -0.2275 -0.4649
  898loPI   C4A12676  15.885   6.271   8.641 -0.0157 -0.3585  0.0658
  898loPI   C5A12677  15.605   6.435   8.993  0.0865  0.2106  0.2399
  898loPI   C6A12678  15.369   6.739   9.170 -0.2700  0.0759 -0.0066
  898loPI   C1B12679  15.823   6.127   7.655  0.1671 -0.0843  0.3775
  898loPI   C2B12680  15.700   6.078   8.021  0.2542 -0.0419 -0.3035
  898loPI   C3B12681  15.599   5.982   8.404  0.0332  0.3311  0.0395
  898loPI   C4B12682  15.547   5.974   8.892 -0.2751  0.2861 -0.1253
  899loPI    C112683   2.120  12.668   6.215 -0.1405  0.0756  0.1573
  899loPI    C212684   1.941  12.852   5.908 -0.1732  0.0419  0.1562
  899loPI    C312685   1.824  12.485   6.018  0.0978 -0.1066 -0.0380
  899loPI   PO412686   2.154  12.832   6.367 -0.0230 -0.0768 -0.0210
  899loPI   GL112687   1.934  12.880   6.760  0.1631  0.1189 -0.0811
  899loPI   GL212688   2.054  13.317   6.850  0.1470  0.1993  0.2545
  899loPI   C1A12689   1.543  12.914   6.876 -0.0023  0.2059 -0.2109
  899loPI   C2A12690   1.475  13.061   7.278 -0.2444  0.3108  0.1580
  899loPI   C3A12691   1.459  13.232   7.690  0.1174 -0.2144 -0.0437
  899loPI   C4A12692   1.484  13.322   8.180 -0.2370 -0.1941  0.1800
  899loPI   C5A12693   1.575  13.098   8.513  0.0723  0.0504  0.2579
  899loPI   C6A12694   1.797  12.945   8.802  0.1895  0.1150 -0.0951
  899loPI   C1B12695   1.997  13.015   7.199 -0.0794  0.1853  0.0410
  899loPI   C2B12696   1.924  13.006   7.566  0.2330  0.0129  0.3516
  899loPI   C3B12697   1.835  12.783   8.023  0.2556  0.2411  0.0289
  899loPI   C4B12698   1.768  12.601   8.460 -0.0919  0.0048 -0.2013
  900loPI    C112699   3.279  10.254   6.092 -0.1073 -0.0559 -0.0598
  900loPI    C212700   3.575   9.987   6.131  0.0675  0.1328 -0.0794
  900loPI    C312701   3.469  10.117   5.768 -0.0497  0.0554 -0.0734
  900loPI   PO412702   3.122  10.170   6.304  0.2271 -0.2446  0.0564
  900loPI   GL112703   3.190  10.475   6.640  0.1143 -0.0006 -0.0948
  900loPI   GL212704   2.935  10.628   6.766 -0.1329  0.0983 -0.1315
  900loPI   C1A12705   3.289  10.337   6.981 -0.1878  0.1534 -0.0445
  900loPI   C2A12706   3.214  10.380   7.416  0.0511  0.1328  0.1673
  900loPI   C3A12707   3.132  10.347   7.920  0.0142 -0.0932  0.0009
  900loPI   C4A12708   2.888  10.129   8.186  0.0942 -0.1882  0.2724
  900loPI   C5A12709   2.890  10.056   8.647  0.1441 -0.2172 -0.0266
  900loPI   C6A12710   2.656  10.138   9.067  0.3485  0.0220 -0.0384
  900loPI   C1B12711   2.908  10.741   7.163  0.1769  0.0413  0.1145
  900loPI   C2B12712   2.815  10.871   7.572 -0.1198  0.0269 -0.0969
  900loPI   C3B12713   2.743  10.942   7.922  0.2885  0.0809 -0.0501
  900loPI   C4B12714   2.729  11.094   8.394  0.0062 -0.3537 -0.1841
  901loPI    C112715  16.640   2.762   6.275  0.0018  0.0293  0.0270
  901loPI    C212716  16.782   2.715   5.903  0.0454  0.0620  0.0394
  901loPI    C312717  16.520   3.007   5.983 -0.1961 -0.1329 -0.0298
  901loPI   PO412718  16.452   2.602   6.305 -0.1120  0.0324  0.0284
  901loPI   GL112719  16.310   2.733   6.710  0.2926  0.0506 -0.0428
  901loPI   GL212720  16.269   2.955   6.894  0.0536  0.1608  0.0755
  901loPI   C1A12721  16.520   2.500   7.008 -0.1462  0.2232 -0.2374
  901loPI   C2A12722  16.611   2.393   7.468 -0.0067 -0.0238 -0.2742
  901loPI   C3A12723  16.651   2.366   7.914  0.0596 -0.2883 -0.3156
  901loPI   C4A12724  16.495   2.390   8.362 -0.0098 -0.0025 -0.2921
  901loPI   C5A12725  16.222   2.185   8.677  0.3427 -0.0150 -0.0784
  901loPI   C6A12726  15.779   1.981   8.849 -0.2256 -0.3252 -0.0965
  901loPI   C1B12727  16.376   2.873   7.277  0.1757 -0.0194 -0.0229
  901loPI   C2B12728  16.521   2.882   7.675 -0.1661 -0.1347  0.1081
  901loPI   C3B12729  16.392   2.835   8.116 -0.0382  0.2111  0.2143
  901loPI   C4B12730  16.060   2.724   8.413  0.0313  0.1118 -0.0229
  902loPI    C112731  11.003   5.673   5.888  0.2288 -0.3014  0.2911
  902loPI    C212732  11.026   5.280   5.814 -0.1287 -0.2367 -0.2227
  902loPI    C312733  11.012   5.540   5.511  0.3059  0.1949  0.1109
  902loPI   PO412734  10.903   5.671   6.137  0.0903 -0.0585 -0.0493
  902loPI   GL112735  10.651   5.943   6.354 -0.1830 -0.3136  0.0383
  902loPI   GL212736  10.835   5.992   6.617  0.1868  0.2287 -0.2161
  902loPI   C1A12737  10.410   5.777   6.747 -0.0798  0.0558  0.1530
  902loPI   C2A12738  10.337   5.517   7.150  0.1867  0.0857 -0.1220
  902loPI   C3A12739  10.366   5.475   7.618 -0.0296  0.0735 -0.1050
  902loPI   C4A12740  10.214   5.529   7.986  0.1316  0.0573 -0.0820
  902loPI   C5A12741  10.241   5.580   8.455  0.0382 -0.0496  0.0711
  902loPI   C6A12742  10.050   5.259   8.743 -0.1633 -0.1625  0.0684
  902loPI   C1B12743  10.768   5.826   7.065  0.2816 -0.1122  0.0709
  902loPI   C2B12744  10.771   5.751   7.463  0.1592  0.0583 -0.1139
  902loPI   C3B12745  10.800   5.765   7.886 -0.1122 -0.3405  0.0643
  902loPI   C4B12746  10.737   5.720   8.416 -0.0352 -0.0223  0.0738
  903loPI    C112747   4.921   4.484   6.322 -0.0567 -0.2098  0.0666
  903loPI    C212748   4.645   4.265   6.133  0.0541 -0.3122  0.0228
  903loPI    C312749   4.989   4.357   5.950 -0.0372 -0.0062 -0.0008
  903loPI   PO412750   4.909   4.389   6.584  0.2333  0.0426 -0.1240
  903loPI   GL112751   5.128   4.235   6.840 -0.2962  0.1528  0.0560
  903loPI   GL212752   4.864   3.944   6.931  0.1264  0.4710 -0.0317
  903loPI   C1A12753   5.262   4.328   7.183  0.1772  0.1859  0.1759
  903loPI   C2A12754   5.377   4.261   7.591  0.2462  0.0397 -0.1204
  903loPI   C3A12755   5.324   4.163   7.957 -0.1180  0.0208  0.1315
  903loPI   C4A12756   5.417   3.936   8.344 -0.0398 -0.1969  0.0523
  903loPI   C5A12757   5.230   3.640   8.690 -0.0337 -0.4350 -0.3225
  903loPI   C6A12758   4.895   3.419   8.898  0.3088  0.0626 -0.2250
  903loPI   C1B12759   5.050   3.931   7.335  0.0671 -0.0107 -0.1374
  903loPI   C2B12760   5.042   3.799   7.825  0.0449 -0.0535 -0.1728
  903loPI   C3B12761   4.989   3.785   8.185 -0.2690  0.1594  0.0623
  903loPI   C4B12762   4.736   3.848   8.597 -0.0152 -0.1151  0.1644
  904loPI    C112763   1.840   0.304   5.938 -0.0885  0.0952 -0.1645
  904loPI    C212764   1.776   0.062   5.625 -0.0831 -0.2859  0.1219
  904loPI    C312765   1.470   0.260   5.791 -0.1042 -0.1717 -0.0507
  904loPI   PO412766   1.915   0.112   6.157  0.0089 -0.2785  0.1245
  904loPI   GL112767   1.792   0.258   6.568  0.0709 -0.0469 -0.1340
  904loPI   GL212768   1.743  -0.117   6.625 -0.0057  0.0243  0.1424
  904loPI   C1A12769   1.641   0.417   7.030  0.2416 -0.3289  0.0982
  904loPI   C2A12770   1.752   0.550   7.409 -0.2065 -0.1944 -0.2464
  904loPI   C3A12771   1.709   0.426   7.834  0.1531 -0.1266  0.2032
  904loPI   C4A12772   1.583   0.295   8.292 -0.0749  0.2133  0.1284
  904loPI   C5A12773   1.747   0.280   8.665  0.0528  0.0090  0.2197
  904loPI   C6A12774   2.085  -0.041   8.610  0.3390 -0.0375  0.1908
  904loPI   C1B12775   1.596  -0.062   6.983 -0.1079 -0.0311  0.3328
  904loPI   C2B12776   1.592   0.036   7.427  0.2613 -0.1365 -0.2156
  904loPI   C3B12777   1.567  -0.061   7.898  0.1711  0.1428 -0.1636
  904loPI   C4B12778   1.877  -0.135   8.195 -0.1507  0.3442 -0.3017
  905loPI    C112779   1.223  13.195   6.173  0.0680 -0.0020  0.0982
  905loPI    C212780   1.180  13.587   6.238  0.1321  0.0126  0.0530
  905loPI    C312781   1.457  13.380   6.439  0.2111  0.0233 -0.0439
  905loPI   PO412782   0.979  13.117   6.165  0.0371  0.0461  0.0464
  905loPI   GL112783   0.638  12.943   6.500 -0.0335 -0.0650 -0.0583
  905loPI   GL212784   0.474  13.159   6.629  0.0149  0.2091  0.1745
  905loPI   C1A12785   0.800  12.836   6.880 -0.2126 -0.0387  0.0802
  905loPI   C2A12786   0.989  12.940   7.156  0.0943 -0.0952  0.0235
  905loPI   C3A12787   1.052  13.023   7.542  0.0583 -0.0506 -0.1097
  905loPI   C4A12788   1.046  13.082   8.024  0.1665  0.0500  0.1722
  905loPI   C5A12789   0.956  13.128   8.392  0.0576 -0.0878 -0.2364
  905loPI   C6A12790   0.922  13.455   8.646  0.2564 -0.0603  0.4172
  905loPI   C1B12791   0.619  13.300   7.044  0.0665 -0.2049 -0.1128
  905loPI   C2B12792   0.645  13.358   7.492  0.0499  0.0298  0.3362
  905loPI   C3B12793   0.592  13.380   7.898  0.0475 -0.0021  0.1781
  905loPI   C4B12794   0.446  13.429   8.311  0.0832 -0.2548  0.1496
  906loPI    C112795   4.659   2.445   6.322  0.1047  0.2761  0.1254
  906loPI    C212796   4.305   2.517   6.150  0.0875 -0.1847 -0.0457
  906loPI    C312797   4.644   2.614   5.960  0.0597 -0.0708 -0.0381
  906loPI   PO412798   4.650   2.243   6.471  0.0770 -0.0791  0.1938
  906loPI   GL112799   4.593   2.238   6.903 -0.3147  0.0140 -0.1091
  906loPI   GL212800   4.835   2.254   7.000 -0.0258  0.3316 -0.2667
  906loPI   C1A12801   4.410   2.046   7.335  0.3078  0.1873  0.0456
  906loPI   C2A12802   4.426   2.038   7.776 -0.0814  0.0132  0.0004
  906loPI   C3A12803   4.323   2.018   8.261  0.0700  0.0147 -0.0917
  906loPI   C4A12804   4.345   1.898   8.702  0.1526  0.1035 -0.0806
  906loPI   C5A12805   4.157   1.564   8.947  0.1382  0.1299 -0.0567
  906loPI   C6A12806   3.622   1.646   8.938  0.0106  0.1057 -0.1224
  906loPI   C1B12807   4.789   2.393   7.371  0.1806 -0.1956  0.1593
  906loPI   C2B12808   4.783   2.423   7.821 -0.1045  0.2813 -0.3618
  906loPI   C3B12809   4.803   2.125   8.117 -0.1607  0.1698 -0.4050
  906loPI   C4B12810   4.913   2.150   8.498 -0.0180 -0.3778  0.2589
  907loPI    C112811   9.496  12.775   6.310 -0.2435 -0.1173  0.1849
  907loPI    C212812   9.179  12.575   6.170  0.1055 -0.2870 -0.3982
  907loPI    C312813   9.406  12.790   5.920  0.2798  0.0835  0.0639
  907loPI   PO412814   9.333  12.814   6.614  0.1882 -0.1409  0.1557
  907loPI   GL112815   9.218  12.874   7.042  0.1045 -0.0399 -0.3920
  907loPI   GL212816   9.293  12.574   7.023 -0.1447 -0.0462  0.0092
  907loPI   C1A12817   9.338  13.120   7.346 -0.0501 -0.1337 -0.1482
  907loPI   C2A12818   9.356  13.100   7.739  0.2192 -0.0920  0.0285
  907loPI   C3A12819   9.233  13.030   8.219 -0.0807 -0.0468 -0.1978
  907loPI   C4A12820   9.163  13.307   8.709  0.0205  0.0203  0.0415
  907loPI   C5A12821   9.285  13.682   8.916  0.1277  0.1074  0.0475
  907loPI   C6A12822   9.346  14.183   8.925 -0.0962 -0.1167 -0.0064
  907loPI   C1B12823   9.325  12.574   7.443  0.3272 -0.4933 -0.1226
  907loPI   C2B12824   9.335  12.557   7.838  0.1807  0.0706  0.1970
  907loPI   C3B12825   9.200  12.537   8.252 -0.3181  0.0959  0.1712
  907loPI   C4B12826   9.258  12.800   8.678  0.3548 -0.0601 -0.1402
  908loPI    C112827  16.085  15.675   6.109 -0.3548 -0.1475 -0.0032
  908loPI    C212828  16.143  15.939   5.815 -0.4025  0.1284  0.2300
  908loPI    C312829  15.961  15.591   5.738  0.1041 -0.0588 -0.1832
  908loPI   PO412830  16.014  15.909   6.392  0.4129 -0.1772 -0.0688
  908loPI   GL112831  16.074  16.180   6.715 -0.2087 -0.1404 -0.1109
  908loPI   GL212832  15.855  16.381   6.699  0.0837 -0.0191 -0.0951
  908loPI   C1A12833  16.015  16.032   7.160  0.1290 -0.0606  0.2671
  908loPI   C2A12834  15.927  16.174   7.601  0.4830 -0.2109  0.1138
  908loPI   C3A12835  15.893  16.251   8.034 -0.0655 -0.1176 -0.1132
  908loPI   C4A12836  16.026  16.236   8.440  0.5025 -0.1854  0.1216
  908loPI   C5A12837  16.028  15.974   8.869  0.1480 -0.1507  0.0835
  908loPI   C6A12838  15.788  15.556   8.751  0.3159  0.1450  0.0855
  908loPI   C1B12839  15.711  16.437   7.148  0.1899  0.0604 -0.0521
  908loPI   C2B12840  15.492  16.423   7.540  0.0473 -0.0069  0.6128
  908loPI   C3B12841  15.411  16.471   7.992 -0.0385  0.0167 -0.0739
  908loPI   C4B12842  15.579  16.456   8.432  0.4250  0.3871  0.0045
  909loPI    C112843  14.389   5.421   6.369  0.2636  0.1292 -0.2198
  909loPI    C212844  14.765   5.313   6.286  0.1788 -0.0639 -0.3596
  909loPI    C312845  14.574   5.572   6.048  0.3368  0.3011 -0.0984
  909loPI   PO412846  14.428   5.370   6.662 -0.0676  0.1820 -0.2756
  909loPI   GL112847  14.400   5.518   7.143 -0.1245  0.1945  0.3951
  909loPI   GL212848  14.150   5.549   7.039 -0.4788  0.0672 -0.1134
  909loPI   C1A12849  14.490   5.258   7.446 -0.1293 -0.0175  0.0297
  909loPI   C2A12850  14.396   5.115   7.842 -0.1814  0.2460 -0.3140
  909loPI   C3A12851  14.549   4.949   8.194  0.3426  0.1379  0.0555
  909loPI   C4A12852  14.413   4.855   8.573 -0.0967 -0.2587 -0.2341
  909loPI   C5A12853  14.121   4.663   8.842  0.1469 -0.1401 -0.0454
  909loPI   C6A12854  13.657   4.690   8.775  0.0226 -0.8107  0.2666
  909loPI   C1B12855  14.064   5.526   7.473  0.0944  0.1648  0.0533
  909loPI   C2B12856  14.019   5.470   7.792 -0.0799 -0.1859  0.0803
  909loPI   C3B12857  14.023   5.341   8.154  0.1263  0.0372 -0.1072
  909loPI   C4B12858  13.997   5.092   8.511 -0.0929 -0.0137  0.2048
  910loPI    C112859   9.558   5.734   6.111  0.0186 -0.1340 -0.1814
  910loPI    C212860   9.757   5.685   5.767  0.2273  0.0018 -0.0823
  910loPI    C312861   9.699   6.052   5.914 -0.1067 -0.0357 -0.1132
  910loPI   PO412862   9.704   5.590   6.265  0.0172  0.2268 -0.0219
  910loPI   GL112863   9.928   5.669   6.637  0.0998 -0.0532 -0.3402
  910loPI   GL212864   9.948   5.335   6.732 -0.1399  0.3489 -0.1232
  910loPI   C1A12865   9.996   5.884   7.068  0.4011 -0.0870 -0.2271
  910loPI   C2A12866   9.965   5.742   7.498  0.0882 -0.1207 -0.0874
  910loPI   C3A12867   9.855   5.877   7.850  0.2124 -0.1895  0.0884
  910loPI   C4A12868   9.861   5.856   8.298  0.0769 -0.0756  0.0955
  910loPI   C5A12869   9.614   5.854   8.670 -0.2229  0.2163 -0.0817
  910loPI   C6A12870   9.365   5.891   8.975  0.2015  0.3167 -0.1486
  910loPI   C1B12871   9.898   5.301   7.181 -0.2204  0.1511  0.1920
  910loPI   C2B12872   9.951   5.266   7.554 -0.0004  0.2464 -0.3698
  910loPI   C3B12873   9.768   5.356   7.843  0.1061 -0.2696  0.4062
  910loPI   C4B12874   9.795   5.387   8.257  0.1061  0.0157 -0.1879
  911loPI    C112875   7.373   4.753   6.053 -0.1982  0.1036  0.0989
  911loPI    C212876   7.240   5.130   6.036 -0.2792  0.0703 -0.0124
  911loPI    C312877   7.226   4.897   5.710  0.0722  0.0728 -0.0322
  911loPI   PO412878   7.252   4.698   6.285 -0.0787  0.1840 -0.2151
  911loPI   GL112879   7.187   4.566   6.748 -0.1830 -0.0754  0.1119
  911loPI   GL212880   7.035   4.793   6.845 -0.2032  0.2117  0.2016
  911loPI   C1A12881   7.482   4.597   7.180 -0.0145  0.1923  0.1358
  911loPI   C2A12882   7.675   4.474   7.480 -0.1865 -0.2493  0.0233
  911loPI   C3A12883   7.602   4.500   7.902 -0.0343 -0.0646  0.1536
  911loPI   C4A12884   7.516   4.489   8.269 -0.0605  0.2179  0.0612
  911loPI   C5A12885   7.347   4.552   8.676  0.0228 -0.1802 -0.1681
  911loPI   C6A12886   7.553   4.698   8.989  0.1682  0.2537  0.0535
  911loPI   C1B12887   7.099   4.878   7.226 -0.3127  0.1086  0.2358
  911loPI   C2B12888   7.029   5.001   7.510 -0.2063 -0.1991 -0.0052
  911loPI   C3B12889   7.067   4.911   7.827  0.1764  0.0271 -0.1122
  911loPI   C4B12890   6.964   4.793   8.261 -0.0655  0.2898 -0.1129
  912loPI    C112891  13.393   1.686   6.155 -0.1551 -0.0680  0.0506
  912loPI    C212892  13.304   1.754   5.771  0.1984  0.2509  0.0202
  912loPI    C312893  13.407   1.386   5.891 -0.1391  0.1000 -0.1409
  912loPI   PO412894  13.408   1.984   6.217  0.1981 -0.0566 -0.0297
  912loPI   GL112895  13.578   2.255   6.418 -0.1128  0.1709 -0.1450
  912loPI   GL212896  13.438   2.474   6.519  0.2067  0.2350  0.1764
  912loPI   C1A12897  13.708   2.082   6.825  0.1302 -0.2480 -0.3191
  912loPI   C2A12898  13.757   2.116   7.248 -0.0331  0.0862 -0.1028
  912loPI   C3A12899  13.751   2.234   7.629 -0.2523  0.1534 -0.2299
  912loPI   C4A12900  13.783   2.096   7.998 -0.0251  0.0113  0.2202
  912loPI   C5A12901  13.792   2.074   8.514  0.0575  0.0810 -0.3333
  912loPI   C6A12902  14.167   2.327   8.710  0.0598  0.1945 -0.2285
  912loPI   C1B12903  13.404   2.479   6.967 -0.0468 -0.2238 -0.2960
  912loPI   C2B12904  13.370   2.423   7.395 -0.3145 -0.1296  0.0743
  912loPI   C3B12905  13.294   2.444   7.845 -0.2424 -0.0067 -0.0514
  912loPI   C4B12906  13.320   2.537   8.274 -0.1348 -0.3199  0.3669
  913loPI    C112907  14.387   1.340   6.086  0.2550 -0.0744  0.3147
  913loPI    C212908  14.343   1.688   6.277  0.3155 -0.0696  0.3197
  913loPI    C312909  14.314   1.674   5.879  0.2467 -0.0700  0.3247
  913loPI   PO412910  14.508   1.196   6.295 -0.0947  0.1120 -0.4640
  913loPI   GL112911  14.620   1.425   6.574  0.2038  0.0470  0.0208
  913loPI   GL212912  14.429   1.280   6.795  0.1577 -0.4689 -0.0799
  913loPI   C1A12913  14.796   1.530   7.069  0.0083  0.1461  0.2385
  913loPI   C2A12914  14.767   1.497   7.478 -0.0457 -0.1820  0.1042
  913loPI   C3A12915  14.697   1.618   7.955 -0.0380  0.1201 -0.1291
  913loPI   C4A12916  14.665   1.487   8.302 -0.1566 -0.1156  0.2304
  913loPI   C5A12917  14.628   1.476   8.820  0.2097  0.1246 -0.0099
  913loPI   C6A12918  14.550   1.815   9.151  0.2199 -0.1723 -0.1400
  913loPI   C1B12919  14.348   1.321   7.238 -0.0014 -0.3249  0.0153
  913loPI   C2B12920  14.379   1.343   7.702 -0.0202  0.1133  0.2924
  913loPI   C3B12921  14.210   1.348   8.091 -0.0399 -0.0844 -0.2205
  913loPI   C4B12922  14.073   1.146   8.545  0.1853 -0.0563 -0.3363
  914loPI    C112923  14.470  16.066   5.857  0.2405  0.0335  0.1218
  914loPI    C212924  14.585  15.755   5.633 -0.2657 -0.1051  0.0424
  914loPI    C312925  14.571  16.122   5.474  0.0291 -0.0905  0.0459
  914loPI   PO412926  14.606  16.059   6.111 -0.2416  0.0762  0.1396
  914loPI   GL112927  14.510  16.211   6.535  0.1193  0.1345 -0.0863
  914loPI   GL212928  14.287  16.386   6.673 -0.0270 -0.0277  0.2420
  914loPI   C1A12929  14.706  16.044   6.881  0.0266  0.0644  0.3779
  914loPI   C2A12930  14.702  16.002   7.338 -0.4497  0.0077  0.0105
  914loPI   C3A12931  14.534  15.961   7.743 -0.2195  0.0300  0.1739
  914loPI   C4A12932  14.589  15.974   8.183 -0.0838 -0.0897 -0.0075
  914loPI   C5A12933  14.411  15.738   8.533 -0.1252  0.3053 -0.3341
  914loPI   C6A12934  14.734  15.558   8.800 -0.1668 -0.0304 -0.2270
  914loPI   C1B12935  14.292  16.263   7.086 -0.3950  0.1677  0.1330
  914loPI   C2B12936  14.168  16.269   7.497 -0.1122  0.1263 -0.0796
  914loPI   C3B12937  14.111  16.269   7.935  0.0442  0.0207  0.0191
  914loPI   C4B12938  14.203  16.261   8.312  0.0323 -0.0884 -0.3666
  915loPI    C112939  12.041   7.560   6.412  0.0792 -0.0613  0.0140
  915loPI    C212940  11.951   7.288   6.132 -0.1726  0.0693 -0.0344
  915loPI    C312941  11.862   7.673   6.073  0.0598  0.1443  0.0917
  915loPI   PO412942  11.920   7.443   6.659 -0.2162  0.0484 -0.1761
  915loPI   GL112943  11.957   7.268   7.088  0.1067 -0.0748  0.1582
  915loPI   GL212944  12.352   7.367   7.112 -0.1302 -0.0115  0.1835
  915loPI   C1A12945  11.840   7.216   7.505 -0.2623 -0.1679 -0.1681
  915loPI   C2A12946  11.803   7.163   7.885 -0.1244 -0.0314 -0.1047
  915loPI   C3A12947  11.728   7.272   8.316 -0.0264 -0.3405 -0.0804
  915loPI   C4A12948  11.956   7.425   8.698 -0.0349  0.0163 -0.0147
  915loPI   C5A12949  12.075   7.661   8.943  0.0259 -0.2845 -0.2633
  915loPI   C6A12950  12.128   8.082   9.025  0.1548 -0.1435  0.1626
  915loPI   C1B12951  12.309   7.335   7.579  0.0518  0.0500  0.0565
  915loPI   C2B12952  12.225   7.353   8.074  0.0703  0.0117 -0.0877
  915loPI   C3B12953  12.305   7.606   8.368  0.1104  0.0134  0.0892
  915loPI   C4B12954  12.501   7.841   8.683  0.0405 -0.0280  0.0147
  916loPI    C112955   9.915   2.490   5.867 -0.0045  0.1341  0.1915
  916loPI    C212956  10.250   2.627   5.698 -0.1877  0.1757 -0.1456
  916loPI    C312957  10.064   2.309   5.543 -0.3608  0.2163 -0.0237
  916loPI   PO412958  10.023   2.480   6.228  0.1792  0.2227  0.2987
  916loPI   GL112959  10.156   2.240   6.501 -0.0837  0.0959 -0.1983
  916loPI   GL212960   9.989   1.962   6.475 -0.0595 -0.3534  0.3114
  916loPI   C1A12961  10.180   2.358   6.941 -0.0239  0.1817 -0.0071
  916loPI   C2A12962  10.103   2.385   7.321 -0.1008 -0.2812 -0.2275
  916loPI   C3A12963  10.153   2.358   7.766 -0.1299  0.1003  0.0395
  916loPI   C4A12964  10.191   2.451   8.211 -0.1374 -0.1194  0.0893
  916loPI   C5A12965  10.175   2.264   8.638 -0.1847 -0.3519  0.1244
  916loPI   C6A12966  10.278   2.125   9.112 -0.0260  0.0371  0.0779
  916loPI   C1B12967   9.795   2.011   7.007 -0.1179  0.1856  0.3261
  916loPI   C2B12968   9.762   1.993   7.383  0.0485  0.2681 -0.3123
  916loPI   C3B12969   9.748   2.097   7.822  0.1821 -0.0608  0.0134
  916loPI   C4B12970   9.727   2.206   8.269  0.3835  0.2798 -0.1080
  917loPI    C112971   4.752   7.034   6.401 -0.1781  0.1434 -0.2566
  917loPI    C212972   4.729   7.021   6.002 -0.0915 -0.0945 -0.2553
  917loPI    C312973   4.721   6.682   6.214  0.1012  0.0150 -0.0683
  917loPI   PO412974   4.878   7.316   6.441  0.0590  0.0373  0.1015
  917loPI   GL112975   4.841   7.401   6.846  0.0537 -0.1868 -0.1340
  917loPI   GL212976   4.818   7.699   6.965 -0.2653  0.2329  0.2371
  917loPI   C1A12977   4.898   7.275   7.299  0.0441  0.0888  0.0893
  917loPI   C2A12978   4.906   7.137   7.774  0.0275  0.1230 -0.0771
  917loPI   C3A12979   4.819   7.104   8.237  0.2034 -0.1216  0.0252
  917loPI   C4A12980   4.660   7.117   8.567  0.0882  0.2134 -0.1459
  917loPI   C5A12981   4.395   7.172   8.948  0.2674  0.1255 -0.0645
  917loPI   C6A12982   4.044   6.961   9.217  0.1506  0.0982 -0.0483
  917loPI   C1B12983   4.725   7.851   7.336 -0.0929 -0.2990 -0.0145
  917loPI   C2B12984   4.704   7.945   7.691  0.3427  0.0704  0.0611
  917loPI   C3B12985   4.792   7.894   8.142 -0.0397 -0.1406  0.1580
  917loPI   C4B12986   4.774   7.630   8.447  0.1360  0.0425  0.1119
  918loPI    C112987   2.165   8.410   5.899 -0.0025  0.0655 -0.0980
  918loPI    C212988   2.526   8.573   5.846  0.0910 -0.1469 -0.1242
  918loPI    C312989   2.280   8.718   6.126  0.0628  0.2151 -0.3313
  918loPI   PO412990   2.124   8.138   6.010  0.2461  0.1540 -0.0596
  918loPI   GL112991   2.154   7.982   6.449  0.0190 -0.1319 -0.1318
  918loPI   GL212992   2.128   8.202   6.616  0.1128  0.2089  0.2337
  918loPI   C1A12993   2.052   7.846   6.920 -0.0369  0.0178  0.3705
  918loPI   C2A12994   1.997   8.127   7.178  0.1246 -0.1875  0.2609
  918loPI   C3A12995   2.134   8.097   7.647  0.2114 -0.0224 -0.0511
  918loPI   C4A12996   2.047   7.963   8.063 -0.1907  0.0501 -0.0919
  918loPI   C5A12997   2.082   7.955   8.532  0.0113  0.1080 -0.0156
  918loPI   C6A12998   1.809   8.322   8.791  0.0231 -0.0135  0.0355
  918loPI   C1B12999   2.551   8.301   6.933 -0.2118 -0.1363 -0.0066
  918loPI   C2B13000   2.635   8.376   7.261 -0.0479  0.2410  0.1667
  918loPI   C3B13001   2.493   8.360   7.737 -0.2387 -0.1703 -0.0896
  918loPI   C4B13002   2.420   8.290   8.131  0.1312  0.2327 -0.2947
  919loPI    C113003  13.608  12.580   6.196 -0.0768  0.0537 -0.2010
  919loPI    C213004  13.283  12.364   6.108 -0.0163  0.0263 -0.3619
  919loPI    C313005  13.583  12.389   5.845  0.1468 -0.0136 -0.1824
  919loPI   PO413006  13.598  12.616   6.478  0.1932 -0.0218 -0.0533
  919loPI   GL113007  13.427  12.798   6.893  0.0932  0.2170  0.1867
  919loPI   GL213008  13.293  12.608   6.891  0.1781  0.0183 -0.1028
  919loPI   C1A13009  13.481  12.911   7.296 -0.6190  0.0505 -0.0873
  919loPI   C2A13010  13.513  12.942   7.735  0.0642  0.2774 -0.1238
  919loPI   C3A13011  13.387  12.864   8.140 -0.4243 -0.0923 -0.0979
  919loPI   C4A13012  13.617  12.887   8.638  0.0590 -0.1774 -0.0364
  919loPI   C5A13013  13.937  12.876   8.852  0.1024 -0.1567 -0.0076
  919loPI   C6A13014  14.336  12.610   9.052  0.0332  0.4014  0.1348
  919loPI   C1B13015  13.080  12.616   7.295 -0.0360 -0.2258 -0.0808
  919loPI   C2B13016  13.009  12.655   7.716  0.3161 -0.1836  0.3251
  919loPI   C3B13017  12.875  12.708   8.114  0.0155 -0.0593 -0.3320
  919loPI   C4B13018  13.093  12.712   8.490  0.0223  0.0058 -0.0816
  920loPI    C113019   3.410   6.758   6.395 -0.0479 -0.0726 -0.0764
  920loPI    C213020   3.168   6.879   6.100  0.0352  0.1495 -0.0560
  920loPI    C313021   3.214   7.106   6.426  0.0576 -0.0245  0.0634
  920loPI   PO413022   3.326   6.554   6.494 -0.2519 -0.1049 -0.1117
  920loPI   GL113023   3.334   6.381   6.866  0.0477  0.0839 -0.1292
  920loPI   GL213024   2.929   6.397   6.870  0.1463  0.2831 -0.0359
  920loPI   C1A13025   3.558   6.246   7.310 -0.0545  0.0487  0.1485
  920loPI   C2A13026   3.604   6.246   7.789 -0.0722 -0.1226  0.3496
  920loPI   C3A13027   3.530   6.362   8.265  0.0019 -0.1024 -0.2257
  920loPI   C4A13028   3.665   6.527   8.684 -0.0066  0.1542  0.2166
  920loPI   C5A13029   3.998   6.381   9.000 -0.2801 -0.1336  0.2226
  920loPI   C6A13030   4.413   6.213   9.223 -0.2096 -0.1017  0.2511
  920loPI   C1B13031   3.055   6.459   7.334 -0.1799 -0.0195 -0.0207
  920loPI   C2B13032   2.976   6.535   7.714  0.0281  0.2782  0.0395
  920loPI   C3B13033   3.093   6.568   8.101 -0.0144  0.0789  0.4037
  920loPI   C4B13034   3.101   6.709   8.498  0.2020 -0.0218 -0.0376
  921loPI    C113035   5.361  16.834   6.541 -0.0298  0.1158 -0.2343
  921loPI    C213036   5.104  16.715   6.824  0.1270  0.1256 -0.0861
  921loPI    C313037   4.984  16.743   6.443 -0.0481 -0.0206 -0.0429
  921loPI   PO413038   5.580  16.718   6.648  0.1863 -0.2175 -0.1885
  921loPI   GL113039   5.559  16.759   7.124  0.0470 -0.1511  0.2347
  921loPI   GL213040   5.335  16.481   7.246 -0.0870 -0.1102 -0.0766
  921loPI   C1A13041   5.734  16.701   7.551  0.4625 -0.2900 -0.2803
  921loPI   C2A13042   5.721  16.683   8.072  0.0371 -0.2105 -0.2406
  921loPI   C3A13043   5.876  16.592   8.441  0.2093 -0.1994  0.1099
  921loPI   C4A13044   5.946  16.693   8.790 -0.1430 -0.1771 -0.1590
  921loPI   C5A13045   6.141  16.286   9.029 -0.2182  0.1997 -0.1029
  921loPI   C6A13046   6.231  15.868   8.945  0.3342 -0.1108  0.0156
  921loPI   C1B13047   5.324  16.423   7.660 -0.0108 -0.0704  0.2218
  921loPI   C2B13048   5.312  16.392   8.076 -0.0753 -0.1593  0.0708
  921loPI   C3B13049   5.244  16.417   8.484  0.1527 -0.0821 -0.1749
  921loPI   C4B13050   5.223  16.603   8.838  0.0409 -0.0185  0.1356
  922loPI    C113051  12.412   4.136   6.000 -0.0085 -0.0966  0.1360
  922loPI    C213052  12.058   4.301   6.089 -0.0805 -0.2031  0.0506
  922loPI    C313053  12.228   4.370   5.733  0.1418  0.1116  0.2133
  922loPI   PO413054  12.437   3.984   6.185  0.2478 -0.0425 -0.4095
  922loPI   GL113055  12.256   4.006   6.541  0.0976 -0.1746 -0.0073
  922loPI   GL213056  12.189   3.879   6.828  0.0598  0.1766 -0.0095
  922loPI   C1A13057  12.187   4.366   6.867  0.2178  0.3138  0.1166
  922loPI   C2A13058  12.153   4.357   7.337  0.1307 -0.3090  0.0387
  922loPI   C3A13059  12.091   4.415   7.717 -0.3457  0.0757 -0.2666
  922loPI   C4A13060  12.184   4.424   8.109  0.3657 -0.0296 -0.2758
  922loPI   C5A13061  12.453   4.663   8.396 -0.0312  0.0737  0.1921
  922loPI   C6A13062  12.673   4.817   8.765  0.1727 -0.0199  0.2726
  922loPI   C1B13063  12.130   3.857   7.322  0.3425  0.0208  0.0372
  922loPI   C2B13064  12.069   3.821   7.731  0.1334 -0.3378  0.0781
  922loPI   C3B13065  12.060   3.870   8.135 -0.0202 -0.1492  0.1138
  922loPI   C4B13066  11.959   4.162   8.475 -0.0028  0.3226  0.0415
  923loPI    C113067   0.923  10.604   6.040 -0.1277 -0.0744  0.0446
  923loPI    C213068   1.031  10.952   5.874 -0.0066 -0.0865  0.0966
  923loPI    C313069   0.710  10.756   5.737  0.0666 -0.0751 -0.0944
  923loPI   PO413070   0.942  10.756   6.303  0.0195 -0.1214  0.0570
  923loPI   GL113071   1.114  10.728   6.710  0.0173  0.1452  0.2940
  923loPI   GL213072   1.013  10.996   6.848 -0.1491 -0.0404 -0.1961
  923loPI   C1A13073   1.085  10.479   7.091 -0.1288  0.0697  0.1795
  923loPI   C2A13074   1.085  10.471   7.454  0.0665  0.0322  0.2343
  923loPI   C3A13075   0.947  10.514   7.877  0.3249 -0.0211  0.0324
  923loPI   C4A13076   0.937  10.566   8.381 -0.1651  0.1069  0.1682
  923loPI   C5A13077   1.141  10.651   8.813 -0.0547  0.1831  0.2419
  923loPI   C6A13078   1.180  10.903   9.108  0.2389  0.1070 -0.4479
  923loPI   C1B13079   0.945  10.966   7.213  0.1240  0.0720 -0.2746
  923loPI   C2B13080   0.982  11.043   7.738  0.2683 -0.4457 -0.2426
  923loPI   C3B13081   0.898  11.047   8.145 -0.0268 -0.6004  0.0566
  923loPI   C4B13082   0.797  11.098   8.610 -0.0048 -0.0859 -0.2626
  924loPI    C113083  16.067  13.016   5.897  0.3457  0.1032  0.2482
  924loPI    C213084  16.304  12.694   5.877 -0.0245 -0.1742  0.2316
  924loPI    C313085  16.246  12.919   5.552  0.1686 -0.1377  0.2212
  924loPI   PO413086  16.163  13.090   6.167  0.1535  0.0686 -0.2344
  924loPI   GL113087  16.207  13.350   6.611  0.2584  0.1408  0.2250
  924loPI   GL213088  16.321  13.569   6.686 -0.1461 -0.2034  0.1931
  924loPI   C1A13089  16.055  13.341   7.002  0.0942 -0.0931  0.1428
  924loPI   C2A13090  16.260  13.212   7.376  0.1737 -0.2453  0.1368
  924loPI   C3A13091  16.299  13.222   7.804 -0.3770  0.0319  0.0547
  924loPI   C4A13092  16.218  13.294   8.286  0.0305 -0.4173  0.3056
  924loPI   C5A13093  16.025  13.430   8.646  0.0379 -0.0591 -0.0712
  924loPI   C6A13094  16.346  13.512   8.938 -0.1575  0.0138  0.1102
  924loPI   C1B13095  16.346  13.707   7.154 -0.3413  0.0319  0.0761
  924loPI   C2B13096  16.173  13.657   7.655  0.2184 -0.0651 -0.2601
  924loPI   C3B13097  16.291  13.727   8.086  0.0441 -0.2970 -0.0891
  924loPI   C4B13098  16.193  13.816   8.424  0.2087 -0.2068  0.0364
  925loPI    C113099  12.892  14.771   6.036 -0.0163  0.0052  0.0984
  925loPI    C213100  12.764  14.862   5.669  0.1184  0.0011  0.0499
  925loPI    C313101  12.787  14.479   5.783 -0.1499  0.0114  0.1458
  925loPI   PO413102  12.682  14.937   6.152 -0.3490  0.0790  0.3854
  925loPI   GL113103  12.541  14.827   6.571  0.0623 -0.0768  0.1683
  925loPI   GL213104  12.309  14.883   6.657  0.1865 -0.1246  0.1326
  925loPI   C1A13105  12.700  14.668   6.884  0.2334  0.1451 -0.2217
  925loPI   C2A13106  12.627  14.658   7.324  0.1771  0.2859  0.1105
  925loPI   C3A13107  12.634  14.585   7.837 -0.0154  0.1082  0.0852
  925loPI   C4A13108  12.732  14.542   8.223 -0.0770  0.0641  0.1753
  925loPI   C5A13109  12.590  14.305   8.650 -0.1176  0.0824 -0.1479
  925loPI   C6A13110  12.726  13.889   8.777  0.0163 -0.0097 -0.1599
  925loPI   C1B13111  12.239  14.908   7.084 -0.0547  0.0542 -0.1174
  925loPI   C2B13112  12.272  14.844   7.580 -0.0081 -0.1528 -0.1903
  925loPI   C3B13113  12.253  14.826   8.059 -0.0227  0.3141  0.0580
  925loPI   C4B13114  12.380  14.731   8.482  0.2856 -0.3077 -0.2448
  926loPI    C113115   8.327   6.639   6.227 -0.1905  0.0012  0.0174
  926loPI    C213116   8.523   6.849   5.949 -0.0442 -0.0679  0.0672
  926loPI    C313117   8.502   6.450   5.921 -0.1471 -0.0639  0.0819
  926loPI   PO413118   8.345   6.787   6.444 -0.3162 -0.1458  0.1096
  926loPI   GL113119   8.444   6.964   6.789 -0.0539 -0.1192 -0.3174
  926loPI   GL213120   8.195   7.065   7.007 -0.3556  0.0209 -0.1293
  926loPI   C1A13121   8.644   6.853   7.217  0.3546 -0.1080  0.0223
  926loPI   C2A13122   8.673   6.763   7.677 -0.1091 -0.1757  0.1514
  926loPI   C3A13123   8.720   6.756   8.097  0.0539  0.1519  0.3130
  926loPI   C4A13124   8.592   6.786   8.543 -0.0563  0.1830 -0.1458
  926loPI   C5A13125   8.252   6.628   8.732 -0.1935  0.2038 -0.1109
  926loPI   C6A13126   8.010   6.282   8.831  0.2018  0.1971 -0.1646
  926loPI   C1B13127   8.299   7.109   7.486 -0.2197 -0.0052 -0.1667
  926loPI   C2B13128   8.357   7.066   7.870  0.3284  0.2082 -0.2276
  926loPI   C3B13129   8.187   7.006   8.204  0.2372  0.1942  0.1678
  926loPI   C4B13130   7.874   6.853   8.464 -0.1449  0.0140 -0.2385
  927loPI    C113131  15.875  10.180   6.341 -0.1079 -0.2773  0.0196
  927loPI    C213132  16.165  10.258   6.076  0.0731 -0.0109  0.2888
  927loPI    C313133  15.782  10.253   5.958  0.1532  0.0670  0.0169
  927loPI   PO413134  16.069   9.980   6.480 -0.1424  0.4113  0.3251
  927loPI   GL113135  16.449  10.014   6.828 -0.0330  0.3515  0.0522
  927loPI   GL213136  16.752  10.201   6.883 -0.0708 -0.0127 -0.1437
  927loPI   C1A13137  16.689   9.681   6.999  0.3010 -0.0975  0.1727
  927loPI   C2A13138  16.777   9.613   7.338 -0.1399 -0.0293 -0.0351
  927loPI   C3A13139  16.853   9.701   7.875 -0.0009 -0.3023 -0.0782
  927loPI   C4A13140  16.736   9.673   8.250 -0.0326 -0.1891 -0.0246
  927loPI   C5A13141  16.801   9.643   8.697  0.1178  0.2936 -0.1083
  927loPI   C6A13142  17.011   9.918   9.005 -0.3244 -0.1589 -0.3321
  927loPI   C1B13143  16.682  10.149   7.336  0.0256  0.0883  0.0896
  927loPI   C2B13144  16.780  10.212   7.818  0.1208 -0.1429  0.1427
  927loPI   C3B13145  16.763  10.167   8.249  0.0422 -0.0021  0.1901
  927loPI   C4B13146  16.659  10.207   8.695  0.0744  0.1089 -0.0608
  928loPI    C113147  16.890  13.625   6.110  0.0467  0.1510 -0.0222
  928loPI    C213148  16.780  13.638   5.725 -0.0091 -0.0802 -0.0155
  928loPI    C313149  17.061  13.379   5.844  0.0615  0.0426  0.0872
  928loPI   PO413150  16.699  13.478   6.322  0.2510  0.1592  0.3754
  928loPI   GL113151  16.776  13.721   6.677  0.1265 -0.2996 -0.1825
  928loPI   GL213152  16.737  13.396   6.860 -0.0608 -0.2144  0.1882
  928loPI   C1A13153  16.778  13.926   6.967 -0.0805  0.1173 -0.1543
  928loPI   C2A13154  16.819  13.786   7.457  0.0986  0.1525  0.1283
  928loPI   C3A13155  16.685  13.846   7.778 -0.0905  0.0849  0.2913
  928loPI   C4A13156  16.666  14.092   8.254 -0.1837  0.0781  0.0522
  928loPI   C5A13157  16.442  14.189   8.644 -0.1186 -0.0145  0.1721
  928loPI   C6A13158  16.211  14.418   8.980  0.1046 -0.1890  0.1819
  928loPI   C1B13159  16.687  13.384   7.170 -0.1186  0.1012 -0.2366
  928loPI   C2B13160  16.774  13.300   7.537  0.0964 -0.0492 -0.1517
  928loPI   C3B13161  16.762  13.428   7.981 -0.0621 -0.0425 -0.3536
  928loPI   C4B13162  16.701  13.545   8.415 -0.3314  0.1284  0.2958
  929loPI    C113163  14.876  16.939   5.904 -0.2101 -0.1089  0.1680
  929loPI    C213164  14.635  16.797   5.617 -0.1003  0.1098 -0.0362
  929loPI    C313165  14.926  17.054   5.524  0.0045  0.1017  0.2582
  929loPI   PO413166  14.659  17.053   6.068 -0.0305  0.4651 -0.1957
  929loPI   GL113167  14.731  16.930   6.430  0.1418  0.1562 -0.0069
  929loPI   GL213168  14.690  16.666   6.554  0.0606 -0.1614  0.1525
  929loPI   C1A13169  14.739  17.127   6.811 -0.0831 -0.0637  0.0314
  929loPI   C2A13170  14.700  17.002   7.238 -0.1989  0.0638  0.2486
  929loPI   C3A13171  14.652  17.012   7.674 -0.1096 -0.2671 -0.1019
  929loPI   C4A13172  14.515  17.040   8.136 -0.2320  0.3141  0.0191
  929loPI   C5A13173  14.411  16.951   8.546 -0.3039 -0.0343  0.1291
  929loPI   C6A13174  14.257  16.853   8.916  0.0148  0.0582 -0.0539
  929loPI   C1B13175  14.746  16.563   6.964 -0.0533 -0.1116  0.0081
  929loPI   C2B13176  14.664  16.468   7.361  0.1302 -0.1791  0.0844
  929loPI   C3B13177  14.618  16.471   7.803  0.0165  0.2301 -0.2781
  929loPI   C4B13178  14.586  16.543   8.301 -0.0272 -0.1577 -0.1462
  930loPI    C113179  16.071   1.159   6.121  0.0574  0.2121 -0.1192
  930loPI    C213180  15.976   1.258   5.745  0.0670  0.1402 -0.1409
  930loPI    C313181  16.359   1.258   5.862  0.0550  0.2690 -0.1001
  930loPI   PO413182  15.911   1.379   6.250 -0.2325  0.0448 -0.0446
  930loPI   GL113183  15.858   1.422   6.612 -0.0358  0.0080 -0.1406
  930loPI   GL213184  15.595   1.049   6.705  0.1064 -0.2688 -0.0614
  930loPI   C1A13185  15.686   1.539   6.996 -0.0917  0.1785  0.0266
  930loPI   C2A13186  15.666   1.446   7.448  0.1190 -0.1343  0.1351
  930loPI   C3A13187  15.624   1.384   7.895 -0.0842 -0.2193  0.0617
  930loPI   C4A13188  15.656   1.399   8.364  0.2213  0.1678  0.0914
  930loPI   C5A13189  15.397   1.626   8.629 -0.3606  0.0958 -0.1092
  930loPI   C6A13190  15.030   1.856   8.870 -0.1502 -0.0415  0.2061
  930loPI   C1B13191  15.689   1.042   7.179  0.0338 -0.3881  0.0388
  930loPI   C2B13192  15.635   0.882   7.625 -0.0285 -0.3135 -0.2697
  930loPI   C3B13193  15.722   0.894   8.055  0.1075  0.1367  0.1156
  930loPI   C4B13194  15.596   0.888   8.412 -0.1615  0.0063  0.0959
  931loPI    C113195  12.112  14.054   6.120  0.0853 -0.2762 -0.0149
  931loPI    C213196  12.352  14.158   5.818  0.0385  0.0513  0.0575
  931loPI    C313197  12.004  13.978   5.742  0.0862  0.0137 -0.0757
  931loPI   PO413198  12.283  13.912   6.291 -0.1751 -0.2211  0.0922
  931loPI   GL113199  12.691  13.760   6.552  0.3111 -0.2692  0.1149
  931loPI   GL213200  12.588  14.088   6.634 -0.1259 -0.2010  0.2551
  931loPI   C1A13201  12.623  13.648   6.922 -0.1332 -0.1042 -0.1026
  931loPI   C2A13202  12.522  13.418   7.278 -0.1265  0.0311  0.0790
  931loPI   C3A13203  12.494  13.381   7.614  0.0424  0.0538 -0.2760
  931loPI   C4A13204  12.594  13.570   7.995  0.1905 -0.1710  0.3575
  931loPI   C5A13205  12.600  13.417   8.436 -0.0793  0.1569  0.0664
  931loPI   C6A13206  12.749  13.408   8.755 -0.0701  0.2477  0.1733
  931loPI   C1B13207  12.659  14.144   7.027 -0.2272  0.0387  0.0486
  931loPI   C2B13208  12.683  14.192   7.507 -0.1028 -0.1124  0.1063
  931loPI   C3B13209  12.671  14.088   7.909  0.0458 -0.0217  0.1603
  931loPI   C4B13210  12.684  13.972   8.283 -0.0176  0.1095  0.0372
  932loPI    C113211   3.764   9.005   6.153  0.0977 -0.3537  0.0965
  932loPI    C213212   4.110   8.858   6.017  0.2373  0.1909 -0.1628
  932loPI    C313213   3.857   9.039   5.765 -0.0445  0.1722  0.1015
  932loPI   PO413214   3.692   8.846   6.320 -0.0299  0.3571  0.0191
  932loPI   GL113215   3.615   8.753   6.691 -0.0595 -0.1017 -0.2184
  932loPI   GL213216   3.327   8.816   6.773  0.0414 -0.2427  0.1886
  932loPI   C1A13217   3.779   8.642   7.084 -0.0307 -0.1573 -0.0359
  932loPI   C2A13218   3.868   8.636   7.433  0.2094  0.1319 -0.0234
  932loPI   C3A13219   3.786   8.703   7.800  0.2536  0.3339 -0.0322
  932loPI   C4A13220   3.800   8.732   8.157  0.3687  0.2303 -0.1427
  932loPI   C5A13221   3.913   8.864   8.612 -0.1949  0.0427  0.2739
  932loPI   C6A13222   3.822   9.028   8.964 -0.1332 -0.2983  0.1806
  932loPI   C1B13223   3.358   8.838   7.219  0.1691  0.1279 -0.0153
  932loPI   C2B13224   3.358   8.881   7.679 -0.1118 -0.0028  0.0478
  932loPI   C3B13225   3.314   8.940   8.112 -0.1922 -0.0062  0.1015
  932loPI   C4B13226   3.431   9.026   8.515  0.4640 -0.3323  0.0988
  933loPI    C113227   2.767  15.583   6.407  0.2963  0.1880 -0.1426
  933loPI    C213228   3.008  15.360   6.635 -0.0177  0.1863  0.1964
  933loPI    C313229   2.706  15.189   6.436  0.2169  0.1975 -0.1788
  933loPI   PO413230   2.681  15.772   6.602  0.4800 -0.1776 -0.0604
  933loPI   GL113231   2.307  15.994   6.780 -0.1116  0.1130  0.4285
  933loPI   GL213232   2.516  16.059   7.074 -0.2354 -0.2172  0.1426
  933loPI   C1A13233   2.043  16.124   7.093  0.1144 -0.0319 -0.0139
  933loPI   C2A13234   1.829  16.134   7.401  0.0751 -0.0020 -0.0519
  933loPI   C3A13235   1.682  16.134   7.703 -0.0004 -0.2617  0.0402
  933loPI   C4A13236   1.585  15.935   8.121  0.0898  0.3126 -0.1099
  933loPI   C5A13237   1.632  15.758   8.589 -0.1100  0.0658  0.0207
  933loPI   C6A13238   1.873  16.086   8.827 -0.1604 -0.3411  0.1630
  933loPI   C1B13239   2.332  16.011   7.495 -0.2410  0.2444  0.2123
  933loPI   C2B13240   2.304  16.092   7.887  0.2011  0.0508 -0.3092
  933loPI   C3B13241   2.061  16.201   8.205  0.1633 -0.1363  0.1266
  933loPI   C4B13242   1.904  16.532   8.514  0.2367  0.3093 -0.2784
  934loPI    C113243  11.612   1.746   6.117 -0.0447  0.2191 -0.0725
  934loPI    C213244  11.908   1.595   5.894  0.0546 -0.0720  0.2489
  934loPI    C313245  11.788   1.972   5.838  0.4487  0.0327  0.0773
  934loPI   PO413246  11.732   1.791   6.397 -0.1578  0.2473 -0.0040
  934loPI   GL113247  12.020   1.618   6.738 -0.1239  0.0280  0.1702
  934loPI   GL213248  12.202   1.920   6.660 -0.3761 -0.2006 -0.0808
  934loPI   C1A13249  11.961   1.613   7.193 -0.1292 -0.0468 -0.1160
  934loPI   C2A13250  11.995   1.714   7.639  0.2475  0.0292 -0.1795
  934loPI   C3A13251  11.949   1.837   8.043 -0.1351  0.2908 -0.1479
  934loPI   C4A13252  11.945   1.744   8.434 -0.1900 -0.1819 -0.1751
  934loPI   C5A13253  12.317   1.802   8.783 -0.3112 -0.2944 -0.2964
  934loPI   C6A13254  12.689   1.775   9.021 -0.2312  0.0094 -0.1614
  934loPI   C1B13255  12.441   1.882   7.094 -0.1802  0.0199  0.3202
  934loPI   C2B13256  12.439   1.916   7.449  0.2944  0.0078  0.0641
  934loPI   C3B13257  12.392   1.954   7.881 -0.1314  0.0985  0.0447
  934loPI   C4B13258  12.314   2.103   8.244 -0.0757  0.1457 -0.1559
  935loPI    C113259   6.485  11.284   6.229  0.0962 -0.0699 -0.0838
  935loPI    C213260   6.345  11.624   6.387 -0.0494 -0.1897  0.0483
  935loPI    C313261   6.533  11.630   6.033 -0.1807  0.0067 -0.0196
  935loPI   PO413262   6.641  11.214   6.400 -0.0005  0.0662 -0.0402
  935loPI   GL113263   6.730  11.305   6.788 -0.2985  0.1706  0.1982
  935loPI   GL213264   6.999  11.129   6.961  0.0275 -0.1882  0.2185
  935loPI   C1A13265   6.774  11.681   7.119 -0.1864 -0.0501  0.1223
  935loPI   C2A13266   6.713  11.864   7.497  0.1105  0.0986  0.3061
  935loPI   C3A13267   6.840  11.913   7.945 -0.2272 -0.0125 -0.1575
  935loPI   C4A13268   7.238  11.680   8.175  0.0101 -0.0612  0.1143
  935loPI   C5A13269   7.446  11.301   8.085 -0.1228 -0.2476 -0.0491
  935loPI   C6A13270   7.456  11.279   7.676  0.2087 -0.1085 -0.0072
  935loPI   C1B13271   7.212  10.882   7.153  0.0896  0.0859  0.3232
  935loPI   C2B13272   7.291  10.828   7.480  0.0009  0.1200 -0.2674
  935loPI   C3B13273   7.346  10.881   7.968  0.0231  0.1240  0.1325
  935loPI   C4B13274   7.381  10.878   8.361  0.0217 -0.3333 -0.1785
  936loPI    C113275  13.011  14.187   6.304 -0.0643  0.0999 -0.0537
  936loPI    C213276  13.073  14.108   5.917 -0.1399 -0.0123 -0.0435
  936loPI    C313277  12.749  13.963   6.101 -0.0426 -0.0604  0.0923
  936loPI   PO413278  13.082  14.449   6.381 -0.2633 -0.0937 -0.2068
  936loPI   GL113279  13.192  14.698   6.698  0.0689 -0.0668  0.0188
  936loPI   GL213280  13.042  15.012   6.569 -0.1812  0.0618 -0.1121
  936loPI   C1A13281  13.124  14.710   7.085 -0.0644  0.1077 -0.0423
  936loPI   C2A13282  13.096  14.746   7.537 -0.1526 -0.0258  0.1536
  936loPI   C3A13283  13.064  14.834   7.964 -0.0901 -0.0294 -0.1367
  936loPI   C4A13284  13.131  14.789   8.362  0.0904 -0.1480 -0.1571
  936loPI   C5A13285  13.447  14.897   8.552 -0.1297  0.1383  0.0226
  936loPI   C6A13286  13.790  14.686   8.920 -0.0996  0.0142 -0.2849
  936loPI   C1B13287  12.936  15.121   6.912  0.1915 -0.0893 -0.2613
  936loPI   C2B13288  12.645  15.151   7.235  0.1206 -0.1820  0.1653
  936loPI   C3B13289  12.683  15.059   7.669 -0.0219  0.0054 -0.3097
  936loPI   C4B13290  12.702  15.061   8.164  0.0277 -0.1252 -0.1889
  937loPI    C113291   4.916   6.101   6.198 -0.0662 -0.0606 -0.0247
  937loPI    C213292   5.276   6.050   6.031 -0.0882 -0.1582 -0.0431
  937loPI    C313293   4.947   5.928   5.838 -0.1324 -0.0580 -0.0319
  937loPI   PO413294   4.960   5.934   6.450 -0.1292 -0.0119 -0.1940
  937loPI   GL113295   4.990   6.020   6.895 -0.0876 -0.1449 -0.0286
  937loPI   GL213296   4.991   5.689   6.875  0.0076 -0.0591 -0.2220
  937loPI   C1A13297   4.937   6.209   7.276 -0.1559 -0.2854  0.1615
  937loPI   C2A13298   4.856   6.242   7.692  0.1791  0.1976  0.0036
  937loPI   C3A13299   5.016   6.128   8.008 -0.0084  0.1903  0.0601
  937loPI   C4A13300   4.988   6.114   8.481  0.2427 -0.1212  0.0608
  937loPI   C5A13301   4.694   6.090   8.863  0.2706  0.1489 -0.3707
  937loPI   C6A13302   4.203   5.933   8.781  0.1463  0.0238  0.0556
  937loPI   C1B13303   5.035   5.688   7.336  0.2321  0.3201  0.0835
  937loPI   C2B13304   5.079   5.698   7.716 -0.0365 -0.3507  0.0550
  937loPI   C3B13305   5.076   5.657   8.131 -0.0436  0.2563 -0.0053
  937loPI   C4B13306   5.143   5.640   8.533  0.0064  0.1468 -0.1210
  938loPI    C113307   5.026   8.167   6.242 -0.0040 -0.1650 -0.0361
  938loPI    C213308   5.216   8.278   5.907 -0.0195  0.0444  0.0232
  938loPI    C313309   5.013   7.934   5.917 -0.0952  0.0807 -0.2118
  938loPI   PO413310   5.213   8.169   6.490  0.0055  0.2710 -0.0045
  938loPI   GL113311   5.267   7.876   6.891 -0.0726 -0.0443  0.1286
  938loPI   GL213312   5.166   8.146   7.016 -0.0136 -0.0199  0.1389
  938loPI   C1A13313   5.202   7.681   7.220 -0.2589 -0.1239  0.2419
  938loPI   C2A13314   5.146   7.532   7.697 -0.0397 -0.3858  0.0491
  938loPI   C3A13315   5.110   7.445   8.135  0.2847  0.0601  0.3419
  938loPI   C4A13316   5.254   7.449   8.600  0.0912  0.0882 -0.3991
  938loPI   C5A13317   4.990   7.357   8.877  0.1322  0.0086  0.0025
  938loPI   C6A13318   4.821   6.967   9.012  0.1336  0.0440 -0.1889
  938loPI   C1B13319   5.187   8.123   7.466  0.0178  0.1020  0.1811
  938loPI   C2B13320   5.213   7.961   7.930 -0.0119  0.0759 -0.0249
  938loPI   C3B13321   5.218   7.915   8.411  0.2456  0.2688 -0.0644
  938loPI   C4B13322   5.306   7.977   8.808 -0.0911  0.1942  0.1474
  939loPI    C113323   8.361  12.938   6.280  0.1173 -0.2074  0.0267
  939loPI    C213324   8.031  13.154   6.212  0.1841 -0.0089  0.3148
  939loPI    C313325   8.002  12.760   6.274  0.0548 -0.0779 -0.1490
  939loPI   PO413326   8.579  13.101   6.468 -0.0217  0.0114 -0.0324
  939loPI   GL113327   8.783  13.126   6.784  0.5369  0.2258 -0.0775
  939loPI   GL213328   8.519  13.107   6.955  0.1143  0.0079  0.0341
  939loPI   C1A13329   8.917  13.328   7.208  0.0480  0.3354  0.2081
  939loPI   C2A13330   8.745  13.263   7.580 -0.1576  0.0948  0.2071
  939loPI   C3A13331   8.818  13.260   7.971  0.0228  0.0982  0.3277
  939loPI   C4A13332   8.919  13.521   8.337  0.0634 -0.0113  0.0085
  939loPI   C5A13333   8.738  13.519   8.702  0.1254  0.3405 -0.0933
  939loPI   C6A13334   8.808  13.796   9.142  0.2844 -0.2612 -0.0954
  939loPI   C1B13335   8.428  12.992   7.326  0.0484 -0.1028  0.1916
  939loPI   C2B13336   8.245  13.081   7.710 -0.0271  0.1191  0.0257
  939loPI   C3B13337   8.370  13.011   8.157  0.2273  0.0715 -0.0964
  939loPI   C4B13338   8.710  13.106   8.453  0.2989 -0.1702 -0.2189
  940loPI    C113339  14.849  15.313   6.005  0.0158  0.2202 -0.0246
  940loPI    C213340  14.526  15.545   6.047 -0.1683 -0.0219 -0.0854
  940loPI    C313341  14.546  15.283   5.746  0.0688 -0.0361 -0.0590
  940loPI   PO413342  14.890  15.192   6.195  0.1323  0.2392 -0.1135
  940loPI   GL113343  14.917  15.085   6.573  0.2619  0.1867 -0.3772
  940loPI   GL213344  15.208  15.101   6.745 -0.1767 -0.2725  0.1504
  940loPI   C1A13345  14.642  14.991   6.929  0.0891 -0.0815 -0.0711
  940loPI   C2A13346  14.540  14.984   7.376  0.0952 -0.2508  0.1925
  940loPI   C3A13347  14.466  15.021   7.801 -0.2190  0.0158  0.5254
  940loPI   C4A13348  14.489  14.976   8.246 -0.0625  0.0358 -0.0292
  940loPI   C5A13349  14.408  15.260   8.483 -0.0047  0.2432  0.2264
  940loPI   C6A13350  14.297  15.208   8.893 -0.1518 -0.0798  0.2835
  940loPI   C1B13351  15.103  15.078   7.232  0.0922 -0.0979 -0.2956
  940loPI   C2B13352  14.958  15.127   7.613 -0.0343  0.0244  0.2184
  940loPI   C3B13353  14.879  15.267   8.021  0.1908  0.0325 -0.1374
  940loPI   C4B13354  14.881  15.433   8.363  0.0183  0.0976  0.1634
  941loPI    C113355   3.023  14.721   6.611  0.0516  0.2601  0.1726
  941loPI    C213356   3.158  14.950   6.312 -0.0739  0.2254  0.0886
  941loPI    C313357   2.889  14.663   6.239 -0.1061  0.2174  0.2351
  941loPI   PO413358   2.898  14.864   6.776  0.0367 -0.2308  0.2867
  941loPI   GL113359   2.838  15.189   7.070  0.0671  0.0280 -0.0617
  941loPI   GL213360   2.624  15.424   6.916  0.1633  0.0440 -0.0841
  941loPI   C1A13361   2.833  15.094   7.484 -0.1894 -0.1310  0.1037
  941loPI   C2A13362   2.807  15.097   7.936 -0.1252  0.1239 -0.0402
  941loPI   C3A13363   2.718  15.086   8.370 -0.0313  0.4533  0.0692
  941loPI   C4A13364   2.444  15.034   8.740  0.3502 -0.0043  0.1815
  941loPI   C5A13365   2.105  14.950   8.976 -0.1462  0.0230 -0.0276
  941loPI   C6A13366   1.671  14.959   8.919 -0.0139  0.0188  0.2160
  941loPI   C1B13367   2.175  15.594   6.988 -0.1516  0.0705  0.0997
  941loPI   C2B13368   2.015  15.650   7.412  0.0099 -0.0265  0.1382
  941loPI   C3B13369   1.942  15.629   7.895 -0.1162 -0.1346  0.3009
  941loPI   C4B13370   2.035  15.686   8.261  0.1516  0.0953  0.0209
  942loPI    C113371  11.332   9.781   6.306 -0.1718 -0.0204 -0.1093
  942loPI    C213372  11.269   9.491   6.038 -0.0228 -0.2715  0.1217
  942loPI    C313373  11.358   9.861   5.915  0.1691 -0.4120 -0.1739
  942loPI   PO413374  11.535   9.718   6.455  0.0625 -0.0103 -0.0320
  942loPI   GL113375  11.650   9.762   6.844 -0.2428 -0.0297  0.2456
  942loPI   GL213376  11.693   9.980   7.003 -0.1358  0.0255  0.0152
  942loPI   C1A13377  11.660   9.622   7.397 -0.0024 -0.0431 -0.2184
  942loPI   C2A13378  11.709   9.630   7.856  0.1059  0.1982  0.0538
  942loPI   C3A13379  11.668   9.664   8.307  0.2214 -0.0278  0.1548
  942loPI   C4A13380  11.571   9.616   8.642 -0.2131  0.1662  0.0193
  942loPI   C5A13381  11.206   9.607   8.980 -0.0829  0.1010  0.1835
  942loPI   C6A13382  10.920   9.480   9.263 -0.0543  0.0705  0.1766
  942loPI   C1B13383  11.765  10.149   7.376  0.1489  0.1696  0.1294
  942loPI   C2B13384  11.805  10.162   7.756  0.0395  0.0411 -0.0416
  942loPI   C3B13385  11.819  10.165   8.239  0.0295  0.3738 -0.0472
  942loPI   C4B13386  11.968  10.121   8.713  0.0212 -0.0031  0.0991
  943loPI    C113387   2.362   3.230   6.382  0.1445 -0.0242  0.0289
  943loPI    C213388   2.080   3.503   6.300  0.0420 -0.1104  0.0917
  943loPI    C313389   2.465   3.585   6.228 -0.0023 -0.0058 -0.0291
  943loPI   PO413390   2.410   3.161   6.601 -0.1779 -0.3189  0.0159
  943loPI   GL113391   2.374   3.274   6.998  0.0276  0.0717  0.1954
  943loPI   GL213392   2.153   3.550   6.770  0.3340 -0.0214 -0.1335
  943loPI   C1A13393   2.481   3.582   7.334  0.0841 -0.0528 -0.0409
  943loPI   C2A13394   2.334   3.719   7.715  0.0053  0.1622  0.1374
  943loPI   C3A13395   2.444   3.808   8.166  0.0387  0.0466 -0.0151
  943loPI   C4A13396   2.485   3.812   8.583 -0.0836 -0.1061 -0.0302
  943loPI   C5A13397   2.154   3.793   8.937  0.1861  0.0735 -0.1148
  943loPI   C6A13398   1.859   3.857   9.172  0.0406  0.0307 -0.3476
  943loPI   C1B13399   1.965   3.793   7.222 -0.0657  0.1097 -0.1701
  943loPI   C2B13400   1.839   4.014   7.657 -0.0777  0.3825  0.1630
  943loPI   C3B13401   1.899   4.007   8.042  0.0951  0.2073  0.2306
  943loPI   C4B13402   1.969   4.052   8.494  0.0001 -0.1914  0.1073
  944loPI    C113403   3.358   5.982   6.055 -0.2524  0.2366 -0.2970
  944loPI    C213404   3.586   6.082   5.741 -0.1639  0.2756 -0.2207
  944loPI    C313405   3.243   5.884   5.684  0.0809 -0.1341 -0.3084
  944loPI   PO413406   3.579   6.120   6.215  0.1132 -0.5147  0.3130
  944loPI   GL113407   3.680   6.161   6.603  0.4421  0.0013  0.1955
  944loPI   GL213408   3.940   6.210   6.798 -0.0722  0.1336 -0.0828
  944loPI   C1A13409   3.577   5.882   6.942 -0.1590 -0.1123  0.3749
  944loPI   C2A13410   3.597   5.662   7.387 -0.1843 -0.0039  0.1380
  944loPI   C3A13411   3.557   5.742   7.832  0.0794  0.1280 -0.1545
  944loPI   C4A13412   3.652   5.867   8.245  0.0154  0.0195  0.0576
  944loPI   C5A13413   3.632   5.751   8.713  0.0586  0.0822  0.2860
  944loPI   C6A13414   3.748   5.667   9.101 -0.1772 -0.1491  0.0007
  944loPI   C1B13415   4.084   6.053   7.135  0.0199  0.1408  0.0714
  944loPI   C2B13416   3.917   5.989   7.524 -0.1338 -0.1028 -0.4599
  944loPI   C3B13417   4.057   6.011   7.954 -0.1335  0.0430 -0.1188
  944loPI   C4B13418   4.150   5.973   8.301 -0.1146  0.2676 -0.2602
  945loPI    C113419   5.384   9.136   6.692  0.0723  0.0076  0.0660
  945loPI    C213420   5.694   9.018   6.468 -0.1087 -0.1082 -0.1272
  945loPI    C313421   5.653   8.880   6.842  0.1350 -0.0002 -0.0583
  945loPI   PO413422   5.297   9.386   6.647  0.2122  0.1044  0.2178
  945loPI   GL113423   5.415   9.611   6.972  0.3376 -0.1588  0.0683
  945loPI   GL213424   5.555   9.391   7.144  0.1039 -0.2800  0.2548
  945loPI   C1A13425   5.328   9.964   7.273 -0.0477  0.1101  0.2279
  945loPI   C2A13426   5.402   9.872   7.656 -0.1970  0.1447  0.0100
  945loPI   C3A13427   5.551   9.949   8.088 -0.2060 -0.0713 -0.1890
  945loPI   C4A13428   5.842  10.079   8.399 -0.0596 -0.0893  0.2202
  945loPI   C5A13429   5.982  10.207   8.760 -0.0712 -0.0022  0.0115
  945loPI   C6A13430   5.724  10.378   9.139  0.0198  0.2630  0.2495
  945loPI   C1B13431   5.523   9.405   7.581  0.1442  0.0363 -0.1898
  945loPI   C2B13432   5.515   9.355   7.991 -0.1855  0.1023 -0.0298
  945loPI   C3B13433   5.833   9.243   8.369  0.2032  0.0848  0.1619
  945loPI   C4B13434   5.904   9.517   8.700 -0.0823  0.0590 -0.2779
  946loPI    C113435   3.232  10.852   6.265 -0.1628 -0.0371  0.1130
  946loPI    C213436   2.908  10.652   6.143 -0.1306 -0.1475  0.2078
  946loPI    C313437   3.231  10.672   5.908 -0.0819 -0.3293  0.2568
  946loPI   PO413438   3.170  10.956   6.423  0.2063 -0.0403 -0.1294
  946loPI   GL113439   2.989  11.109   6.836  0.0017  0.1602  0.2696
  946loPI   GL213440   3.269  11.160   6.869  0.1705  0.0502 -0.1650
  946loPI   C1A13441   2.687  11.173   7.214 -0.0108 -0.0610  0.0925
  946loPI   C2A13442   2.572  11.374   7.599  0.1727  0.4605 -0.1534
  946loPI   C3A13443   2.517  11.428   8.058  0.0528  0.0732 -0.1846
  946loPI   C4A13444   2.194  11.382   8.464 -0.0299 -0.0619 -0.0201
  946loPI   C5A13445   2.043  11.203   8.934  0.2691 -0.1418 -0.0115
  946loPI   C6A13446   2.013  11.218   9.345  0.4273  0.2928 -0.2704
  946loPI   C1B13447   3.191  11.292   7.284 -0.1849  0.1771  0.0733
  946loPI   C2B13448   3.072  11.265   7.695 -0.0966  0.0842 -0.1860
  946loPI   C3B13449   3.041  11.474   8.111 -0.0171 -0.0837 -0.0435
  946loPI   C4B13450   3.003  11.559   8.612 -0.1275  0.1296 -0.1102
  947loPI    C113451   3.760   5.182   6.226  0.0381 -0.0229  0.2125
  947loPI    C213452   3.726   5.187   5.827 -0.0445 -0.1054  0.2182
  947loPI    C313453   4.082   5.120   5.997 -0.0034 -0.0399  0.1584
  947loPI   PO413454   3.482   5.114   6.311  0.1076 -0.2154  0.0021
  947loPI   GL113455   3.116   5.082   6.582 -0.0415  0.1326 -0.0408
  947loPI   GL213456   3.317   5.366   6.750  0.0605 -0.1858  0.0179
  947loPI   C1A13457   3.297   4.937   6.982  0.0996 -0.0059 -0.1271
  947loPI   C2A13458   3.265   4.938   7.419 -0.2159  0.1339  0.1205
  947loPI   C3A13459   3.340   4.948   7.833  0.0373  0.0729  0.0020
  947loPI   C4A13460   3.341   4.943   8.271 -0.1449 -0.0661 -0.1934
  947loPI   C5A13461   3.317   4.961   8.653  0.1423  0.1447 -0.1179
  947loPI   C6A13462   2.975   4.977   9.049  0.0381 -0.1818 -0.0495
  947loPI   C1B13463   3.169   5.405   7.196 -0.1922 -0.2324  0.5498
  947loPI   C2B13464   3.105   5.413   7.593  0.0066  0.0505 -0.0175
  947loPI   C3B13465   3.137   5.548   8.009 -0.0334 -0.2165 -0.3734
  947loPI   C4B13466   3.176   5.648   8.466 -0.1562  0.2655  0.1147
  948loPI    C113467  12.562   8.045   6.475 -0.0496  0.0112 -0.1117
  948loPI    C213468  12.205   8.066   6.654  0.0635  0.0246  0.1153
  948loPI    C313469  12.229   8.075   6.255 -0.2024 -0.1557  0.0929
  948loPI   PO413470  12.704   8.148   6.679  0.0824 -0.2261 -0.3023
  948loPI   GL113471  12.866   8.339   7.000  0.0451  0.1015 -0.0076
  948loPI   GL213472  12.457   8.385   7.080  0.1397 -0.2404  0.0291
  948loPI   C1A13473  12.937   8.324   7.470  0.1687 -0.3689 -0.2084
  948loPI   C2A13474  12.860   8.240   7.926  0.2537  0.3102 -0.1362
  948loPI   C3A13475  12.890   8.191   8.379 -0.2013 -0.2997 -0.2551
  948loPI   C4A13476  12.977   7.941   8.753 -0.0488 -0.2992  0.0506
  948loPI   C5A13477  12.962   7.698   9.059 -0.0981  0.0050 -0.0255
  948loPI   C6A13478  12.888   7.363   9.287  0.0898 -0.0743  0.3139
  948loPI   C1B13479  12.434   8.226   7.390  0.1641  0.1391 -0.0438
  948loPI   C2B13480  12.363   8.282   7.854 -0.0484  0.1798 -0.0189
  948loPI   C3B13481  12.350   8.092   8.209  0.0605 -0.1518 -0.1453
  948loPI   C4B13482  12.349   8.307   8.582 -0.1744  0.2071 -0.1445
  949loPI    C113483  10.910  13.212   6.406  0.0602  0.0519  0.0393
  949loPI    C213484  11.186  13.349   6.151 -0.0057 -0.1776 -0.1591
  949loPI    C313485  10.886  13.120   6.017 -0.1380 -0.1588  0.0988
  949loPI   PO413486  10.987  13.134   6.663  0.1356  0.1797  0.0632
  949loPI   GL113487  10.930  13.134   7.002 -0.0455  0.2750  0.1279
  949loPI   GL213488  11.218  13.203   7.079  0.5984  0.0096 -0.1501
  949loPI   C1A13489  10.731  13.203   7.247 -0.0229 -0.0362 -0.1358
  949loPI   C2A13490  10.676  13.255   7.693  0.3238 -0.3217  0.1063
  949loPI   C3A13491  10.762  13.184   8.242  0.0086  0.0532  0.4243
  949loPI   C4A13492  10.675  12.968   8.578 -0.0723  0.1409 -0.1762
  949loPI   C5A13493  10.704  12.953   9.051  0.0825  0.1396 -0.0083
  949loPI   C6A13494  10.974  12.715   9.293  0.3064  0.2426 -0.0723
  949loPI   C1B13495  11.151  13.343   7.503 -0.0138  0.2645  0.1557
  949loPI   C2B13496  11.225  13.408   7.926 -0.0724 -0.1453  0.0270
  949loPI   C3B13497  11.249  13.462   8.374 -0.0654  0.1835 -0.0312
  949loPI   C4B13498  11.064  13.390   8.731  0.2542  0.0677  0.1895
  950loPI    C113499   9.827  11.132   6.061  0.1772  0.0505  0.0094
  950loPI    C213500  10.030  11.462   5.962 -0.0314  0.1213 -0.1876
  950loPI    C313501   9.731  11.333   5.729 -0.0964 -0.0826  0.0057
  950loPI   PO413502   9.928  11.152   6.384 -0.0046  0.3174 -0.0082
  950loPI   GL113503   9.828  11.141   6.779 -0.1665  0.1869  0.0786
  950loPI   GL213504   9.814  11.476   6.900  0.1108 -0.2053  0.0299
  950loPI   C1A13505   9.911  11.035   7.138  0.2735 -0.1828 -0.0120
  950loPI   C2A13506   9.904  10.821   7.521  0.1949  0.2256  0.2383
  950loPI   C3A13507   9.936  10.793   7.969 -0.0236 -0.3186  0.0373
  950loPI   C4A13508  10.097  10.888   8.398  0.1607  0.0191  0.0118
  950loPI   C5A13509  10.308  10.836   8.701  0.0459  0.1902  0.1409
  950loPI   C6A13510  10.611  10.855   8.906  0.3380 -0.0735  0.0314
  950loPI   C1B13511  10.037  11.541   7.292 -0.2432  0.1235 -0.0789
  950loPI   C2B13512  10.076  11.465   7.725 -0.1487 -0.0619 -0.1023
  950loPI   C3B13513  10.122  11.342   8.145  0.3677 -0.1189 -0.2220
  950loPI   C4B13514  10.105  11.367   8.561  0.1305  0.0411 -0.1365
  951loPI    C113515   8.924   1.159   6.004  0.1309  0.0371 -0.0088
  951loPI    C213516   8.587   1.225   5.800  0.0418 -0.0639  0.1045
  951loPI    C313517   8.754   0.861   5.799  0.0109 -0.0792  0.2552
  951loPI   PO413518   8.835   1.187   6.238  0.1191 -0.1222  0.1381
  951loPI   GL113519   8.820   1.078   6.628  0.1068 -0.3005  0.1874
  951loPI   GL213520   9.139   1.227   6.786 -0.2170 -0.0574  0.1381
  951loPI   C1A13521   8.786   1.059   7.092  0.0790 -0.0932  0.0767
  951loPI   C2A13522   8.827   1.051   7.520 -0.2393  0.0809  0.1786
  951loPI   C3A13523   8.845   1.062   8.016  0.3438  0.1416 -0.0701
  951loPI   C4A13524   8.814   1.047   8.425 -0.1444 -0.0030 -0.0951
  951loPI   C5A13525   8.785   0.870   8.734 -0.2449 -0.2918  0.1749
  951loPI   C6A13526   8.587   0.589   8.882  0.1813  0.0335  0.1951
  951loPI   C1B13527   9.280   1.276   7.222  0.0154  0.0731 -0.1755
  951loPI   C2B13528   9.237   1.286   7.739 -0.3054 -0.0534  0.1152
  951loPI   C3B13529   9.237   1.365   8.128 -0.2263  0.0713  0.0997
  951loPI   C4B13530   9.043   1.535   8.514  0.1325 -0.0749 -0.0559
  952loPI    C113531   8.169   5.243   6.324  0.0850  0.0609 -0.3485
  952loPI    C213532   7.970   5.042   6.606  0.2904  0.1363 -0.1464
  952loPI    C313533   7.873   4.995   6.221  0.1063 -0.0815 -0.0759
  952loPI   PO413534   8.339   5.365   6.462  0.2360 -0.3641 -0.2327
  952loPI   GL113535   8.312   5.456   6.862  0.0620 -0.0838  0.1448
  952loPI   GL213536   8.402   5.862   6.782 -0.2220 -0.1699 -0.0115
  952loPI   C1A13537   8.571   5.545   7.145  0.1328 -0.0910 -0.1701
  952loPI   C2A13538   8.618   5.660   7.467 -0.3335  0.3809  0.1507
  952loPI   C3A13539   8.506   5.716   7.860 -0.2690 -0.1177 -0.3359
  952loPI   C4A13540   8.536   5.664   8.279 -0.1019  0.0678 -0.1450
  952loPI   C5A13541   8.430   5.384   8.661  0.0210  0.0665  0.0530
  952loPI   C6A13542   8.643   5.033   8.697  0.0806 -0.1353  0.1138
  952loPI   C1B13543   8.552   6.045   7.211  0.0888 -0.0988  0.2080
  952loPI   C2B13544   8.659   6.236   7.732 -0.2031  0.0150 -0.1524
  952loPI   C3B13545   8.630   6.138   8.170  0.0738 -0.0202  0.0356
  952loPI   C4B13546   8.480   6.116   8.605  0.3758  0.0007 -0.0803
  953loPI    C113547  14.421   7.320   6.390  0.0569  0.0368  0.1512
  953loPI    C213548  14.638   7.095   6.141 -0.1612  0.1133 -0.1126
  953loPI    C313549  14.702   7.489   6.162  0.0289  0.0713  0.1421
  953loPI   PO413550  14.396   7.141   6.605  0.0152  0.2963  0.3316
  953loPI   GL113551  14.204   7.238   6.993  0.0264  0.0187  0.2311
  953loPI   GL213552  14.384   7.485   6.988 -0.2047  0.1796  0.0191
  953loPI   C1A13553  14.167   7.456   7.445 -0.0338  0.2019  0.2464
  953loPI   C2A13554  14.103   7.411   7.876 -0.1758 -0.1781  0.0944
  953loPI   C3A13555  14.183   7.298   8.274 -0.0391  0.1469  0.0667
  953loPI   C4A13556  14.195   7.031   8.640 -0.2714  0.1616 -0.2205
  953loPI   C5A13557  14.531   6.824   8.874  0.2440 -0.0909  0.1784
  953loPI   C6A13558  14.864   6.520   9.009 -0.3187 -0.2727  0.1844
  953loPI   C1B13559  14.365   7.917   7.293 -0.0838 -0.0615  0.0222
  953loPI   C2B13560  14.303   7.938   7.705  0.1619 -0.0080  0.2816
  953loPI   C3B13561  14.252   7.863   8.117  0.1260  0.0260 -0.2353
  953loPI   C4B13562  14.190   8.036   8.567  0.0056  0.1278  0.1161
  954loPI    C113563   7.805   5.426   6.003  0.1464 -0.0802  0.2056
  954loPI    C213564   7.888   5.807   5.917 -0.2435 -0.0491 -0.0594
  954loPI    C313565   8.183   5.538   5.937  0.0460  0.2789  0.2198
  954loPI   PO413566   7.670   5.449   6.202  0.1685  0.2706 -0.0735
  954loPI   GL113567   7.726   5.503   6.611 -0.1530  0.1531  0.1701
  954loPI   GL213568   7.488   5.578   6.765  0.2890 -0.1613  0.2085
  954loPI   C1A13569   7.867   5.374   6.972  0.0518  0.0653  0.0123
  954loPI   C2A13570   7.979   5.454   7.456 -0.0159  0.0156  0.0251
  954loPI   C3A13571   7.978   5.462   7.951  0.1425  0.2360  0.0806
  954loPI   C4A13572   7.997   5.346   8.341 -0.2052 -0.1819 -0.1786
  954loPI   C5A13573   7.879   5.159   8.703 -0.0425  0.0590 -0.3158
  954loPI   C6A13574   8.167   4.986   8.915 -0.0009  0.1510  0.0296
  954loPI   C1B13575   7.560   5.667   7.183  0.2774  0.0138  0.2911
  954loPI   C2B13576   7.623   5.717   7.629 -0.0210  0.0354 -0.0057
  954loPI   C3B13577   7.519   5.687   8.039  0.3435  0.3395  0.1509
  954loPI   C4B13578   7.448   5.508   8.457 -0.3288 -0.0852  0.0720
  955loPI    C113579  12.082  15.759   5.953  0.2724  0.0166  0.0962
  955loPI    C213580  12.068  15.536   5.622 -0.0818  0.1026  0.0486
  955loPI    C313581  12.302  15.860   5.635  0.1490 -0.0586 -0.0142
  955loPI   PO413582  12.085  15.506   6.195 -0.0753 -0.0096  0.0087
  955loPI   GL113583  12.254  15.571   6.589  0.2014  0.0459  0.0684
  955loPI   GL213584  12.480  15.381   6.784  0.1177  0.0435  0.3174
  955loPI   C1A13585  12.282  15.866   6.946 -0.2624  0.0187  0.0107
  955loPI   C2A13586  12.311  15.914   7.380 -0.3193 -0.2708  0.1456
  955loPI   C3A13587  12.329  15.861   7.841 -0.2740 -0.3028  0.0822
  955loPI   C4A13588  12.435  15.729   8.334  0.4713  0.1129  0.1153
  955loPI   C5A13589  12.480  15.688   8.686 -0.0168  0.2383  0.0673
  955loPI   C6A13590  12.814  15.558   8.912  0.1215  0.1542  0.1990
  955loPI   C1B13591  12.252  15.379   7.088  0.1119 -0.1652 -0.0460
  955loPI   C2B13592  12.302  15.401   7.520 -0.0123 -0.0577  0.1259
  955loPI   C3B13593  12.301  15.310   7.958 -0.1216 -0.0987  0.0756
  955loPI   C4B13594  12.305  15.262   8.364  0.1684  0.2249 -0.0839
  956loPI    C113595   1.049   8.579   6.037  0.0196  0.1207 -0.2800
  956loPI    C213596   0.921   8.766   5.707  0.1047  0.0388 -0.3600
  956loPI    C313597   1.278   8.585   5.709  0.0187 -0.1324 -0.2871
  956loPI   PO413598   0.876   8.533   6.223  0.0223  0.0701 -0.1921
  956loPI   GL113599   0.821   8.494   6.755 -0.3245  0.0173 -0.0639
  956loPI   GL213600   0.583   8.500   6.927 -0.0302  0.1904 -0.1616
  956loPI   C1A13601   1.074   8.489   7.165 -0.2180  0.1118 -0.1157
  956loPI   C2A13602   1.137   8.448   7.543 -0.0632 -0.3129  0.0205
  956loPI   C3A13603   1.129   8.472   7.950  0.0225 -0.1122 -0.0356
  956loPI   C4A13604   1.122   8.323   8.386  0.0685 -0.0020  0.1294
  956loPI   C5A13605   0.976   8.183   8.767 -0.1590  0.1651 -0.2846
  956loPI   C6A13606   0.598   8.159   8.916  0.1491 -0.0970  0.0006
  956loPI   C1B13607   0.626   8.667   7.315 -0.1561 -0.2814 -0.0023
  956loPI   C2B13608   0.543   8.652   7.722 -0.0183  0.0849  0.2207
  956loPI   C3B13609   0.647   8.617   8.055 -0.1358  0.0158 -0.1423
  956loPI   C4B13610   0.669   8.529   8.551 -0.1952  0.1989  0.1327
  957loPI    C113611   3.484  15.618   6.137 -0.0576 -0.0959 -0.0179
  957loPI    C213612   3.873  15.642   6.226 -0.0943 -0.0545  0.1343
  957loPI    C313613   3.758  15.578   5.848  0.0556  0.1139  0.0582
  957loPI   PO413614   3.378  15.546   6.378 -0.3279  0.1317 -0.1988
  957loPI   GL113615   3.507  15.586   6.906  0.3417 -0.0564  0.0547
  957loPI   GL213616   3.306  15.424   7.140  0.1650 -0.2034  0.0673
  957loPI   C1A13617   3.643  15.642   7.411 -0.1716  0.4654 -0.2747
  957loPI   C2A13618   3.599  15.663   7.838  0.0406  0.0207 -0.2292
  957loPI   C3A13619   3.346  15.885   8.149 -0.0572 -0.1453 -0.0800
  957loPI   C4A13620   3.021  16.089   8.442  0.0071 -0.0619 -0.1231
  957loPI   C5A13621   2.720  16.179   8.707  0.1733 -0.1374  0.2082
  957loPI   C6A13622   2.343  16.159   8.792  0.2035  0.2136  0.0747
  957loPI   C1B13623   3.348  15.215   7.516  0.0563  0.5626 -0.4910
  957loPI   C2B13624   3.434  15.153   7.953  0.0262  0.3907 -0.2439
  957loPI   C3B13625   3.518  15.443   8.343 -0.1225  0.2060 -0.1673
  957loPI   C4B13626   3.635  15.490   8.764  0.0875  0.0247  0.4969
  958loPI    C113627   5.740   3.025   6.456 -0.0851 -0.0248 -0.0624
  958loPI    C213628   5.582   2.672   6.355 -0.0830 -0.0089 -0.1218
  958loPI    C313629   5.463   3.005   6.168  0.2514 -0.0365 -0.3931
  958loPI   PO413630   5.834   2.967   6.705  0.0447 -0.0662 -0.0921
  958loPI   GL113631   6.034   3.267   7.093  0.1169 -0.4033  0.1456
  958loPI   GL213632   5.707   3.496   7.037 -0.0811  0.5484  0.3899
  958loPI   C1A13633   5.733   3.245   7.527  0.2497  0.1796 -0.1531
  958loPI   C2A13634   5.696   3.131   7.960 -0.1281 -0.0932 -0.0770
  958loPI   C3A13635   5.891   3.055   8.498  0.1393 -0.0612  0.5509
  958loPI   C4A13636   5.837   2.986   8.863  0.0560 -0.1371  0.0755
  958loPI   C5A13637   5.912   2.654   9.057 -0.1142 -0.2553 -0.1956
  958loPI   C6A13638   5.610   2.391   9.235 -0.0191  0.3248 -0.0535
  958loPI   C1B13639   5.483   3.665   7.491 -0.0376  0.0730  0.1830
  958loPI   C2B13640   5.478   3.559   7.902  0.2544  0.0338 -0.1092
  958loPI   C3B13641   5.480   3.413   8.349  0.0295  0.0719 -0.0008
  958loPI   C4B13642   5.726   3.524   8.714 -0.3584 -0.0940  0.2336
  959loPI    C113643   8.557  10.403   6.460 -0.1305  0.2833  0.0066
  959loPI    C213644   8.322  10.238   6.183  0.1109 -0.0536 -0.0042
  959loPI    C313645   8.619  10.481   6.073 -0.0063  0.0863 -0.0148
  959loPI   PO413646   8.456  10.488   6.608 -0.1925  0.0037 -0.0923
  959loPI   GL113647   8.257  10.717   6.818  0.2852  0.1054  0.0810
  959loPI   GL213648   8.085  10.499   6.987 -0.3568  0.0068  0.2374
  959loPI   C1A13649   8.539  10.724   7.231  0.0889 -0.0309 -0.3898
  959loPI   C2A13650   8.671  10.739   7.636  0.0939  0.1409  0.1809
  959loPI   C3A13651   8.634  10.734   7.996  0.0477  0.1241 -0.1142
  959loPI   C4A13652   8.682  10.703   8.426  0.0136 -0.0073  0.1626
  959loPI   C5A13653   8.705  10.691   8.790 -0.1608  0.0519 -0.0011
  959loPI   C6A13654   8.381  10.539   9.031  0.0052 -0.0191  0.0880
  959loPI   C1B13655   8.074  10.566   7.396 -0.1316  0.0834 -0.1593
  959loPI   C2B13656   8.040  10.530   7.836  0.1532 -0.0479  0.1569
  959loPI   C3B13657   8.120  10.428   8.213 -0.1976  0.3053 -0.2134
  959loPI   C4B13658   8.258  10.447   8.538  0.0082  0.0292  0.2081
  960loPI    C113659   0.611  16.259   5.836  0.2057  0.1252  0.0618
  960loPI    C213660   0.725  15.913   5.669  0.3964  0.1684  0.0998
  960loPI    C313661   0.872  16.260   5.534  0.2312  0.2336  0.0838
  960loPI   PO413662   0.644  16.254   6.127 -0.0936 -0.2406  0.1785
  960loPI   GL113663   0.593  16.231   6.565  0.0083 -0.1560  0.0924
  960loPI   GL213664   0.620  15.878   6.561  0.0863 -0.0517  0.2055
  960loPI   C1A13665   0.329  16.254   6.950 -0.3225  0.0782 -0.3815
  960loPI   C2A13666   0.236  16.276   7.303 -0.0750 -0.0845 -0.1651
  960loPI   C3A13667   0.222  16.336   7.740  0.0064  0.2966  0.1940
  960loPI   C4A13668   0.233  16.344   8.157  0.1919  0.2768  0.1129
  960loPI   C5A13669   0.285  16.292   8.551 -0.1732  0.1046 -0.0142
  960loPI   C6A13670   0.711  16.278   8.791 -0.0772  0.0106  0.0007
  960loPI   C1B13671   0.702  15.987   6.959  0.0677  0.2314 -0.0228
  960loPI   C2B13672   0.656  16.010   7.450  0.0870  0.1043  0.0440
  960loPI   C3B13673   0.677  16.023   7.863 -0.0266  0.0459 -0.1131
  960loPI   C4B13674   0.665  16.041   8.324  0.2549 -0.0688  0.1537
  961loPI    C113675  11.103   6.930   6.328 -0.0216  0.0735  0.1412
  961loPI    C213676  11.409   6.949   6.070  0.0369  0.0160  0.2061
  961loPI    C313677  11.132   6.662   6.033  0.0247  0.0305  0.1846
  961loPI   PO413678  11.266   6.964   6.551  0.1262 -0.1779  0.3922
  961loPI   GL113679  11.553   7.136   6.878 -0.1575 -0.0576 -0.3378
  961loPI   GL213680  11.517   7.531   7.027  0.0817 -0.3677 -0.0970
  961loPI   C1A13681  11.442   7.099   7.283  0.1661  0.0768  0.2708
  961loPI   C2A13682  11.359   6.987   7.661 -0.2084  0.1496  0.0100
  961loPI   C3A13683  11.321   7.096   8.066 -0.0465 -0.1521 -0.1242
  961loPI   C4A13684  11.361   7.010   8.499 -0.1365 -0.1275  0.2055
  961loPI   C5A13685  11.553   7.192   8.884  0.0465 -0.0488 -0.1148
  961loPI   C6A13686  11.639   7.571   9.213  0.3841  0.1521  0.0313
  961loPI   C1B13687  11.459   7.561   7.477 -0.2447 -0.2422 -0.2377
  961loPI   C2B13688  11.381   7.535   7.862  0.1100  0.0286 -0.0813
  961loPI   C3B13689  11.316   7.538   8.256 -0.3035 -0.2077  0.3769
  961loPI   C4B13690  11.491   7.655   8.650 -0.0396 -0.0733  0.1108
  962loPI    C113691   3.286   9.100   6.356 -0.1143 -0.1841 -0.2040
  962loPI    C213692   3.003   9.343   6.213  0.0435  0.0779 -0.0791
  962loPI    C313693   3.295   9.213   5.972 -0.0221  0.0389 -0.1380
  962loPI   PO413694   3.372   9.284   6.567  0.1373  0.0718  0.1792
  962loPI   GL113695   3.295   9.281   6.951 -0.1217 -0.2887 -0.0851
  962loPI   GL213696   3.595   9.212   7.067 -0.2613 -0.0837 -0.0513
  962loPI   C1A13697   3.281   9.346   7.377 -0.1890  0.1025  0.0436
  962loPI   C2A13698   3.314   9.351   7.810 -0.1048  0.0423 -0.1110
  962loPI   C3A13699   3.317   9.451   8.209 -0.1020  0.1758  0.1282
  962loPI   C4A13700   3.447   9.585   8.608 -0.3023 -0.0274  0.0924
  962loPI   C5A13701   3.326   9.879   8.944  0.0838 -0.3042  0.0486
  962loPI   C6A13702   2.995   9.823   9.155  0.1020 -0.0250 -0.0696
  962loPI   C1B13703   3.758   9.153   7.478  0.1770 -0.1684  0.0243
  962loPI   C2B13704   3.807   9.202   7.941 -0.0015 -0.1758 -0.1818
  962loPI   C3B13705   3.830   9.310   8.380 -0.2140 -0.2033 -0.3162
  962loPI   C4B13706   3.931   9.471   8.842 -0.1477 -0.3444 -0.0808
  963loPI    C113707  12.070   5.937   6.176 -0.0706  0.1736 -0.0724
  963loPI    C213708  11.904   6.148   5.879 -0.2135 -0.1397 -0.2196
  963loPI    C313709  12.302   6.108   5.898 -0.1642  0.3622 -0.0366
  963loPI   PO413710  11.890   5.724   6.165  0.0524 -0.2848 -0.6583
  963loPI   GL113711  11.733   5.513   6.494  0.4894 -0.0649 -0.0908
  963loPI   GL213712  11.704   5.721   6.676  0.0937  0.0413  0.0405
  963loPI   C1A13713  11.839   5.188   6.782  0.2121  0.1610  0.2705
  963loPI   C2A13714  11.816   5.217   7.286  0.0441  0.1129  0.1284
  963loPI   C3A13715  11.762   5.137   7.677 -0.0411  0.0484 -0.1670
  963loPI   C4A13716  11.706   5.312   8.148  0.3099  0.0464  0.0263
  963loPI   C5A13717  11.500   5.275   8.614  0.1864 -0.0457 -0.1440
  963loPI   C6A13718  11.555   5.377   9.020 -0.2229 -0.0350 -0.2147
  963loPI   C1B13719  11.861   5.691   7.003  0.1960  0.1670 -0.0866
  963loPI   C2B13720  11.900   5.689   7.453  0.1958 -0.0254 -0.2762
  963loPI   C3B13721  11.792   5.674   7.869 -0.0310  0.1553  0.0276
  963loPI   C4B13722  11.733   5.762   8.352  0.1140 -0.0474  0.0259
  964loPI    C113723   6.197   3.638   6.256 -0.1627  0.1039 -0.1213
  964loPI    C213724   6.074   3.936   6.494 -0.1012  0.1300 -0.1218
  964loPI    C313725   5.879   3.858   6.153 -0.1597  0.1243 -0.0872
  964loPI   PO413726   6.474   3.631   6.476  0.3258  0.2210 -0.1625
  964loPI   GL113727   6.618   3.724   6.920  0.3181  0.3131  0.2125
  964loPI   GL213728   6.476   3.447   6.951 -0.3484  0.1806 -0.0587
  964loPI   C1A13729   6.606   4.063   7.253  0.0164  0.3443  0.0365
  964loPI   C2A13730   6.617   4.086   7.642  0.1600  0.0147 -0.2756
  964loPI   C3A13731   6.644   3.956   8.047 -0.1223  0.0756  0.1958
  964loPI   C4A13732   6.689   3.940   8.523 -0.1556 -0.1260  0.2880
  964loPI   C5A13733   6.953   4.099   8.813  0.0133 -0.1114 -0.2790
  964loPI   C6A13734   7.426   4.178   9.000 -0.0665 -0.0586  0.1555
  964loPI   C1B13735   6.581   3.542   7.346 -0.1534  0.2874  0.0024
  964loPI   C2B13736   6.702   3.548   7.734  0.0230  0.0725  0.2385
  964loPI   C3B13737   6.693   3.439   8.262 -0.0370 -0.3019  0.1119
  964loPI   C4B13738   6.649   3.465   8.668  0.3074  0.2885  0.1895
  965loPI    C113739  10.639  11.911   6.172 -0.0938 -0.0859  0.0203
  965loPI    C213740  10.890  12.222   6.180  0.2337 -0.3463  0.1430
  965loPI    C313741  10.767  12.074   5.829  0.0209 -0.0404  0.0840
  965loPI   PO413742  10.391  11.897   6.364  0.1346  0.1481  0.1291
  965loPI   GL113743  10.427  11.843   6.810 -0.1082  0.1124  0.0708
  965loPI   GL213744  10.141  11.885   6.915  0.1337  0.0279 -0.0779
  965loPI   C1A13745  10.594  11.720   7.142  0.0582 -0.0472  0.1672
  965loPI   C2A13746  10.614  11.608   7.592 -0.3697 -0.0139 -0.0563
  965loPI   C3A13747  10.534  11.594   7.980  0.3045 -0.0566  0.1551
  965loPI   C4A13748  10.535  11.610   8.381 -0.0840 -0.0419  0.0141
  965loPI   C5A13749  10.556  11.536   8.736  0.1466 -0.0769  0.0077
  965loPI   C6A13750  10.324  11.663   9.103 -0.0909 -0.0277 -0.0001
  965loPI   C1B13751  10.189  12.021   7.389 -0.0897 -0.0647 -0.3253
  965loPI   C2B13752  10.205  11.936   7.749 -0.1136 -0.0451 -0.1524
  965loPI   C3B13753  10.127  11.872   8.211  0.0176 -0.0396  0.0106
  965loPI   C4B13754  10.075  11.830   8.672  0.2146 -0.0168  0.2487
  966loPI    C113755   6.665   2.637   6.347  0.1670  0.1094  0.1820
  966loPI    C213756   6.405   2.346   6.437  0.1875  0.0346  0.0041
  966loPI    C313757   6.482   2.434   6.054  0.2239  0.2368  0.0566
  966loPI   PO413758   6.894   2.677   6.390  0.0440  0.0980  0.2056
  966loPI   GL113759   7.017   2.789   6.848 -0.0245 -0.1769 -0.1021
  966loPI   GL213760   7.295   3.010   6.652 -0.0440  0.0630 -0.1841
  966loPI   C1A13761   7.091   2.830   7.278  0.2339  0.1025  0.0052
  966loPI   C2A13762   7.105   2.849   7.720 -0.2175  0.1860  0.1051
  966loPI   C3A13763   7.184   2.757   8.092 -0.1350 -0.0529 -0.3083
  966loPI   C4A13764   7.141   2.643   8.528  0.0573  0.1257  0.0330
  966loPI   C5A13765   7.419   2.618   8.884 -0.0380  0.3371 -0.0175
  966loPI   C6A13766   7.888   2.918   8.887 -0.1489 -0.1654 -0.2319
  966loPI   C1B13767   7.485   3.018   7.064 -0.2747 -0.1494 -0.0191
  966loPI   C2B13768   7.574   3.007   7.567  0.0674 -0.0683  0.0983
  966loPI   C3B13769   7.578   3.056   7.967 -0.2706 -0.1916 -0.1624
  966loPI   C4B13770   7.579   2.867   8.477  0.2129  0.2685  0.1738
  967loPI    C113771  10.579   1.738   5.967 -0.2296  0.4487  0.0218
  967loPI    C213772  10.784   1.920   5.676 -0.3909  0.0694 -0.3379
  967loPI    C313773  10.396   1.837   5.626 -0.4034 -0.0624 -0.0416
  967loPI   PO413774  10.503   1.907   6.233 -0.2062  0.0246  0.0397
  967loPI   GL113775  10.728   1.899   6.678  0.3436 -0.3165 -0.4958
  967loPI   GL213776  10.828   1.668   6.811 -0.0478 -0.0808  0.1591
  967loPI   C1A13777  10.677   2.023   7.201 -0.1708  0.1472  0.2048
  967loPI   C2A13778  10.666   1.987   7.623 -0.0952 -0.1383 -0.1520
  967loPI   C3A13779  10.715   2.181   8.062  0.1956  0.1397 -0.0386
  967loPI   C4A13780  10.621   2.147   8.529 -0.0404  0.2385  0.0867
  967loPI   C5A13781  10.563   1.828   8.747 -0.0536  0.4421 -0.1205
  967loPI   C6A13782  10.347   1.526   8.895  0.0274 -0.0713 -0.0894
  967loPI   C1B13783  10.744   1.494   7.156  0.0694  0.2022  0.2615
  967loPI   C2B13784  10.756   1.461   7.503 -0.2357 -0.2005  0.4072
  967loPI   C3B13785  10.665   1.572   7.873  0.0205 -0.2451  0.1876
  967loPI   C4B13786  10.527   1.633   8.312  0.1215 -0.1029  0.0391
  968loPI    C113787   2.487   4.128   6.355 -0.0801 -0.0089 -0.1696
  968loPI    C213788   2.512   4.480   6.544  0.0906 -0.1259  0.0296
  968loPI    C313789   2.837   4.323   6.371 -0.0691 -0.0078 -0.3891
  968loPI   PO413790   2.337   3.994   6.515 -0.2631  0.2044  0.1414
  968loPI   GL113791   2.359   4.061   6.911  0.1912 -0.1707 -0.0611
  968loPI   GL213792   2.724   4.169   6.854 -0.2026  0.0062  0.2615
  968loPI   C1A13793   2.373   4.086   7.332  0.3660 -0.1368  0.0379
  968loPI   C2A13794   2.288   4.251   7.787  0.0834 -0.2503 -0.0847
  968loPI   C3A13795   2.389   4.282   8.308  0.0677 -0.2876 -0.0216
  968loPI   C4A13796   2.311   4.270   8.764 -0.2403  0.0131 -0.0197
  968loPI   C5A13797   2.093   4.256   9.179  0.0362  0.2971  0.1997
  968loPI   C6A13798   1.704   4.396   9.338  0.0351  0.2732  0.1897
  968loPI   C1B13799   2.707   4.446   7.159  0.0274 -0.0583  0.1849
  968loPI   C2B13800   2.692   4.499   7.603  0.2005 -0.4604  0.0720
  968loPI   C3B13801   2.807   4.565   8.006  0.0064 -0.0545 -0.2683
  968loPI   C4B13802   2.963   4.643   8.404 -0.0627  0.2555  0.0823
  969loPI    C113803   8.771   2.749   6.174  0.0875 -0.0372 -0.1269
  969loPI    C213804   8.547   2.425   6.105  0.1188 -0.0465 -0.1857
  969loPI    C313805   8.905   2.461   5.930  0.1256  0.0088 -0.1604
  969loPI   PO413806   8.745   2.784   6.407 -0.0972  0.2820  0.0002
  969loPI   GL113807   8.797   2.693   6.810 -0.1403 -0.1838  0.1214
  969loPI   GL213808   8.563   2.444   7.001 -0.2902  0.0366 -0.1772
  969loPI   C1A13809   8.972   2.735   7.220 -0.1229  0.3715  0.0037
  969loPI   C2A13810   8.899   2.707   7.752 -0.0394 -0.3985  0.1458
  969loPI   C3A13811   8.933   2.729   8.174 -0.4419 -0.3100 -0.2577
  969loPI   C4A13812   8.820   2.708   8.601  0.1093  0.1390  0.2007
  969loPI   C5A13813   8.706   2.866   8.956 -0.2172 -0.2321  0.1587
  969loPI   C6A13814   8.744   3.155   9.377 -0.1210 -0.1310  0.1196
  969loPI   C1B13815   8.474   2.497   7.400 -0.2520 -0.2742  0.1424
  969loPI   C2B13816   8.460   2.467   7.777 -0.2071  0.0170  0.1727
  969loPI   C3B13817   8.494   2.403   8.223  0.0992 -0.2245 -0.2631
  969loPI   C4B13818   8.489   2.298   8.596 -0.0013 -0.0275 -0.2224
  970loPI    C113819  16.191   7.965   6.053 -0.0858  0.1322  0.1027
  970loPI    C213820  15.893   7.725   5.936  0.0654 -0.0404  0.0654
  970loPI    C313821  16.164   7.851   5.671  0.0647  0.0616  0.1124
  970loPI   PO413822  16.122   8.112   6.242  0.1472 -0.0030 -0.2350
  970loPI   GL113823  16.193   8.216   6.690  0.0520  0.2282  0.0833
  970loPI   GL213824  16.169   8.554   6.808  0.1146  0.0243 -0.2798
  970loPI   C1A13825  16.223   7.838   7.020 -0.0799  0.0707 -0.1153
  970loPI   C2A13826  16.294   7.812   7.469 -0.0821 -0.2344 -0.0088
  970loPI   C3A13827  16.385   7.796   7.929 -0.1325  0.1330  0.1833
  970loPI   C4A13828  16.446   7.689   8.250 -0.1543 -0.0947 -0.4602
  970loPI   C5A13829  16.470   7.875   8.670  0.0781 -0.1971 -0.2592
  970loPI   C6A13830  16.528   8.043   9.034  0.2418 -0.0391 -0.3179
  970loPI   C1B13831  16.248   8.305   7.217  0.1709 -0.1670  0.0963
  970loPI   C2B13832  16.408   8.472   7.617  0.0832 -0.0808 -0.0588
  970loPI   C3B13833  16.440   8.394   8.053 -0.1315 -0.1299  0.0909
  970loPI   C4B13834  16.238   8.317   8.471 -0.0928  0.0070 -0.1772
  971loPI    C113835   7.951  13.701   6.221 -0.0361 -0.2074  0.1322
  971loPI    C213836   7.660  13.752   5.951  0.2027  0.4634 -0.0177
  971loPI    C313837   8.019  13.618   5.835  0.0208 -0.1987  0.1403
  971loPI   PO413838   7.890  13.868   6.358 -0.1659  0.1130  0.1295
  971loPI   GL113839   7.852  13.935   6.728 -0.2620 -0.2314 -0.0089
  971loPI   GL213840   8.067  13.821   6.900 -0.2280  0.2592  0.1054
  971loPI   C1A13841   7.743  14.184   7.085  0.0127 -0.1771 -0.0387
  971loPI   C2A13842   7.846  14.403   7.474  0.2449 -0.0626 -0.0934
  971loPI   C3A13843   7.874  14.380   7.904  0.0541  0.0120 -0.0449
  971loPI   C4A13844   7.729  14.527   8.316 -0.0783 -0.0730  0.1301
  971loPI   C5A13845   7.605  14.701   8.688  0.0249 -0.0428 -0.1247
  971loPI   C6A13846   7.690  14.964   9.026 -0.1470  0.1543  0.0299
  971loPI   C1B13847   7.938  13.849   7.398  0.0711 -0.1649  0.0016
  971loPI   C2B13848   7.910  13.847   7.851 -0.0347 -0.0312 -0.0971
  971loPI   C3B13849   7.928  13.781   8.272  0.1578 -0.0333  0.1496
  971loPI   C4B13850   8.072  13.906   8.720 -0.0899  0.0035  0.3272
  972loPI    C113851   9.054   4.621   5.907  0.2554 -0.1597  0.0347
  972loPI    C213852   8.759   4.386   6.041  0.0082  0.0204 -0.1826
  972loPI    C313853   9.022   4.245   5.774 -0.0588 -0.0509 -0.2115
  972loPI   PO413854   9.148   4.752   6.149  0.0591  0.3140  0.0725
  972loPI   GL113855   9.131   4.480   6.416 -0.1738 -0.1445 -0.2926
  972loPI   GL213856   8.809   4.508   6.548 -0.1340  0.0542  0.2435
  972loPI   C1A13857   9.235   4.106   6.570  0.2082  0.0584 -0.1782
  972loPI   C2A13858   9.337   3.993   7.052 -0.1794  0.1356  0.3468
  972loPI   C3A13859   9.403   3.916   7.503  0.0872 -0.0063 -0.2124
  972loPI   C4A13860   9.461   4.055   7.948 -0.0404 -0.0287  0.3398
  972loPI   C5A13861   9.425   4.053   8.369 -0.2344  0.3181 -0.1841
  972loPI   C6A13862   9.530   4.155   8.809  0.3122 -0.2460  0.0399
  972loPI   C1B13863   8.887   4.326   6.949  0.0237 -0.2078  0.1782
  972loPI   C2B13864   8.913   4.229   7.383  0.0745 -0.0318 -0.0099
  972loPI   C3B13865   8.972   4.217   7.834  0.1052 -0.2420 -0.1287
  972loPI   C4B13866   8.957   4.316   8.249  0.4588 -0.1779 -0.3182
  973loPI    C113867  14.886  14.276   6.063  0.1169 -0.1742  0.0682
  973loPI    C213868  14.650  13.962   5.991 -0.1323  0.0024  0.1033
  973loPI    C313869  14.785  14.183   5.688 -0.3244  0.1253  0.1055
  973loPI   PO413870  15.108  14.090   6.300 -0.0606  0.3819  0.1018
  973loPI   GL113871  14.987  14.090   6.738  0.0957  0.0445 -0.1347
  973loPI   GL213872  15.287  13.903   6.725 -0.0002 -0.0153  0.2131
  973loPI   C1A13873  14.840  14.154   7.214  0.0331 -0.0421  0.0543
  973loPI   C2A13874  14.918  14.129   7.605  0.2767 -0.0505 -0.0162
  973loPI   C3A13875  14.899  14.156   8.092  0.1252  0.2373 -0.0656
  973loPI   C4A13876  14.798  14.201   8.537 -0.0680 -0.0885 -0.0740
  973loPI   C5A13877  14.551  14.085   8.838  0.1036 -0.1340 -0.1283
  973loPI   C6A13878  14.206  14.334   9.096 -0.1149 -0.2449 -0.0507
  973loPI   C1B13879  15.325  13.803   7.170  0.2815  0.4156  0.1914
  973loPI   C2B13880  15.415  13.811   7.521 -0.1548 -0.0245 -0.2666
  973loPI   C3B13881  15.332  13.897   7.914  0.1040  0.3476 -0.0382
  973loPI   C4B13882  15.234  13.851   8.303 -0.3948 -0.2872 -0.2253
  974loPI    C113883   7.969  12.197   6.444  0.2086  0.2205 -0.0638
  974loPI    C213884   7.734  12.343   6.155 -0.1602  0.0127  0.1248
  974loPI    C313885   8.029  12.089   6.063 -0.2546 -0.0271 -0.0729
  974loPI   PO413886   7.987  12.394   6.604  0.2042  0.0468 -0.2081
  974loPI   GL113887   7.860  12.524   6.994 -0.1523 -0.2615 -0.1437
  974loPI   GL213888   7.862  12.364   7.321  0.0405  0.1345  0.0051
  974loPI   C1A13889   7.447  12.647   7.258  0.2076 -0.2137 -0.0752
  974loPI   C2A13890   7.267  12.617   7.640  0.0313 -0.2597  0.3425
  974loPI   C3A13891   7.318  12.586   8.068 -0.0444  0.1971 -0.0001
  974loPI   C4A13892   7.480  12.582   8.531  0.3864 -0.2496  0.0343
  974loPI   C5A13893   7.702  12.893   8.834  0.0735 -0.1979 -0.2668
  974loPI   C6A13894   8.035  12.944   9.158 -0.1380 -0.0250  0.2252
  974loPI   C1B13895   7.789  12.253   7.758  0.0098 -0.1418  0.2350
  974loPI   C2B13896   7.833  12.257   8.157 -0.1208  0.0716 -0.0841
  974loPI   C3B13897   7.907  12.270   8.559 -0.0048  0.3313 -0.2484
  974loPI   C4B13898   7.965  12.424   8.953  0.2825 -0.2824  0.3066
  975loPI    C113899   0.925  11.820   5.948 -0.0232  0.1817 -0.0497
  975loPI    C213900   1.001  11.441   6.052 -0.0833  0.1847  0.0061
  975loPI    C313901   1.067  11.563   5.677 -0.0499  0.1229 -0.0082
  975loPI   PO413902   1.031  11.936   6.270  0.0684  0.2846  0.0185
  975loPI   GL113903   1.039  11.601   6.579  0.0103 -0.1493 -0.2293
  975loPI   GL213904   0.835  11.845   6.709 -0.0240 -0.1693 -0.0234
  975loPI   C1A13905   0.912  11.510   7.053 -0.0370 -0.0236 -0.0116
  975loPI   C2A13906   0.882  11.517   7.503  0.0668  0.1983  0.2260
  975loPI   C3A13907   0.991  11.499   7.931  0.2848 -0.1474 -0.1664
  975loPI   C4A13908   0.917  11.608   8.363 -0.0077 -0.2888  0.1513
  975loPI   C5A13909   0.653  11.670   8.644  0.3371 -0.1334  0.1645
  975loPI   C6A13910   0.236  11.524   8.679 -0.2586  0.2242 -0.1851
  975loPI   C1B13911   0.932  12.022   7.109  0.1027  0.0283  0.3834
  975loPI   C2B13912   0.979  12.005   7.654  0.0990 -0.2829 -0.0526
  975loPI   C3B13913   1.061  12.054   8.151 -0.0695 -0.0397 -0.1866
  975loPI   C4B13914   0.913  12.072   8.592  0.3202  0.2512 -0.1646
  976loPI    C113915   4.077   5.568   6.251  0.1694  0.0413  0.0953
  976loPI    C213916   4.136   5.596   5.856  0.3746  0.0375  0.1246
  976loPI    C313917   3.774   5.669   6.010  0.2618 -0.0864 -0.0770
  976loPI   PO413918   4.362   5.430   6.296 -0.0683 -0.4494  0.2786
  976loPI   GL113919   4.449   5.347   6.768 -0.0045  0.3357  0.0448
  976loPI   GL213920   4.591   5.560   6.706 -0.2336 -0.0157  0.2885
  976loPI   C1A13921   4.140   5.486   7.194  0.0960 -0.1102 -0.1683
  976loPI   C2A13922   4.058   5.548   7.608 -0.0667 -0.0848 -0.0700
  976loPI   C3A13923   4.165   5.536   8.016 -0.0077 -0.1342 -0.1008
  976loPI   C4A13924   4.061   5.492   8.409 -0.1139  0.0875 -0.0011
  976loPI   C5A13925   4.223   5.394   8.854 -0.0346 -0.0666  0.1611
  976loPI   C6A13926   4.470   5.712   9.192 -0.3488 -0.0389 -0.1282
  976loPI   C1B13927   4.559   5.729   7.074  0.4106  0.0685 -0.0928
  976loPI   C2B13928   4.468   5.898   7.449  0.0308 -0.0665  0.1576
  976loPI   C3B13929   4.522   5.839   7.916  0.2722  0.2972  0.2535
  976loPI   C4B13930   4.639   5.827   8.314  0.2622  0.0937 -0.1044
  977loPI    C113931   4.091  16.839   6.188  0.2264 -0.0765 -0.0177
  977loPI    C213932   4.213  17.208   6.091 -0.2849  0.0822 -0.0865
  977loPI    C313933   3.978  17.003   5.841 -0.1305 -0.2318  0.0209
  977loPI   PO413934   3.980  16.896   6.441 -0.0381  0.0198 -0.4451
  977loPI   GL113935   3.990  16.857   6.911 -0.1808  0.0227  0.3329
  977loPI   GL213936   3.852  16.631   6.992  0.2460  0.0864 -0.2895
  977loPI   C1A13937   3.895  17.011   7.287  0.0969 -0.1451 -0.2216
  977loPI   C2A13938   3.856  17.050   7.785 -0.2147 -0.1165  0.0597
  977loPI   C3A13939   3.913  17.003   8.200 -0.0755 -0.3217 -0.0551
  977loPI   C4A13940   4.033  16.979   8.551 -0.0942  0.0285 -0.0849
  977loPI   C5A13941   4.267  16.905   8.957  0.1200 -0.0010 -0.0675
  977loPI   C6A13942   4.659  16.860   8.926  0.2558 -0.1686  0.0296
  977loPI   C1B13943   4.045  16.580   7.404  0.0979 -0.1148 -0.0828
  977loPI   C2B13944   4.305  16.599   7.762  0.3008 -0.0269  0.1793
  977loPI   C3B13945   4.353  16.678   8.159  0.1525 -0.0461  0.2818
  977loPI   C4B13946   4.388  16.547   8.578 -0.3195 -0.1932  0.0999
  978loPI    C113947   6.916   9.572   6.096 -0.1528  0.0931 -0.0130
  978loPI    C213948   6.541   9.458   6.173 -0.1278 -0.0719 -0.1322
  978loPI    C313949   6.645   9.565   5.802 -0.0991  0.1415 -0.0640
  978loPI   PO413950   6.952   9.691   6.382  0.2560  0.3265  0.1889
  978loPI   GL113951   6.934   9.650   6.813 -0.2610  0.0436  0.1075
  978loPI   GL213952   6.750   9.476   6.970 -0.2084 -0.1804  0.2882
  978loPI   C1A13953   6.814   9.885   7.239  0.0465 -0.2717 -0.0126
  978loPI   C2A13954   7.084   9.892   7.513 -0.0793 -0.2156 -0.0981
  978loPI   C3A13955   7.086   9.880   7.839 -0.4161  0.2132  0.0596
  978loPI   C4A13956   7.221   9.883   8.269 -0.1949  0.0048 -0.0120
  978loPI   C5A13957   7.224   9.933   8.647  0.0019 -0.1755  0.2717
  978loPI   C6A13958   7.006  10.071   8.979 -0.2436 -0.0663  0.1372
  978loPI   C1B13959   6.768   9.461   7.393 -0.0790  0.1089  0.0452
  978loPI   C2B13960   6.822   9.502   7.797 -0.2419  0.1303  0.1132
  978loPI   C3B13961   6.773   9.616   8.194  0.3216 -0.0015 -0.5849
  978loPI   C4B13962   6.700   9.614   8.615 -0.1483  0.0935 -0.0596
  979loPI    C113963   2.931   3.182   6.563  0.0188 -0.1874  0.0398
  979loPI    C213964   2.820   3.265   6.188 -0.0059  0.0247  0.0925
  979loPI    C313965   2.772   2.895   6.334  0.0168 -0.0624 -0.1168
  979loPI   PO413966   3.159   3.374   6.611 -0.0561 -0.1474  0.0056
  979loPI   GL113967   3.421   3.404   6.926  0.1515  0.2506 -0.0940
  979loPI   GL213968   3.265   3.051   7.047 -0.1840 -0.1905 -0.2408
  979loPI   C1A13969   3.550   3.365   7.338 -0.2409 -0.2514  0.3497
  979loPI   C2A13970   3.536   3.382   7.776 -0.1281  0.0446  0.2906
  979loPI   C3A13971   3.419   3.438   8.253 -0.2369  0.1594 -0.0362
  979loPI   C4A13972   3.374   3.493   8.693 -0.2975 -0.1418 -0.2201
  979loPI   C5A13973   3.067   3.503   9.019 -0.0240 -0.0654  0.1263
  979loPI   C6A13974   2.579   3.550   9.073 -0.1731  0.1350  0.1867
  979loPI   C1B13975   3.226   3.046   7.563  0.0101  0.2424 -0.1365
  979loPI   C2B13976   3.255   2.968   8.042 -0.0492 -0.3291 -0.3207
  979loPI   C3B13977   3.093   3.005   8.455  0.0009  0.1148  0.2023
  979loPI   C4B13978   2.822   3.145   8.713 -0.0059  0.2802  0.2441
  980loPI    C113979  13.994   3.978   6.283 -0.0404 -0.0008  0.1184
  980loPI    C213980  14.145   4.084   5.928  0.2638  0.0068  0.2475
  980loPI    C313981  14.041   4.365   6.193  0.0233  0.0015  0.1614
  980loPI   PO413982  14.141   3.773   6.350  0.0557 -0.4397  0.0784
  980loPI   GL113983  14.322   3.728   6.788  0.1533  0.0525  0.2589
  980loPI   GL213984  14.643   3.859   6.861  0.1100  0.0257 -0.0112
  980loPI   C1A13985  14.456   3.594   7.270 -0.1008  0.1194 -0.0049
  980loPI   C2A13986  14.379   3.527   7.721  0.0910 -0.3304 -0.2220
  980loPI   C3A13987  14.343   3.390   8.085  0.4314 -0.0754 -0.0532
  980loPI   C4A13988  14.150   3.358   8.527 -0.0296  0.6505  0.2077
  980loPI   C5A13989  14.450   3.254   8.872  0.1147 -0.0450  0.1418
  980loPI   C6A13990  14.895   3.048   8.839  0.1949  0.0747 -0.0067
  980loPI   C1B13991  14.878   3.878   7.254 -0.0551  0.1388  0.0921
  980loPI   C2B13992  14.870   3.744   7.732 -0.0898 -0.1614 -0.2191
  980loPI   C3B13993  14.852   3.560   8.135 -0.0926 -0.0986 -0.0263
  980loPI   C4B13994  14.706   3.512   8.524  0.0396  0.1889 -0.1719
  981loPI    C113995   9.301   7.732   6.407  0.2288  0.0016  0.0844
  981loPI    C213996   9.489   7.386   6.333  0.0906 -0.0556 -0.0033
  981loPI    C313997   9.542   7.698   6.089  0.0200 -0.0924 -0.0662
  981loPI   PO413998   9.342   7.772   6.638 -0.0345 -0.2580  0.0586
  981loPI   GL113999   9.372   7.447   6.817  0.0014 -0.0797  0.2046
  981loPI   GL214000   9.548   7.680   7.033  0.2938 -0.1847 -0.0754
  981loPI   C1A14001   9.155   7.541   7.290 -0.0635  0.0840  0.0007
  981loPI   C2A14002   9.248   7.558   7.790  0.2615  0.0886 -0.3750
  981loPI   C3A14003   9.178   7.537   8.203 -0.0322  0.1306 -0.1425
  981loPI   C4A14004   9.134   7.442   8.587  0.0632  0.0616 -0.0621
  981loPI   C5A14005   9.144   7.142   8.869  0.0711 -0.0047  0.0101
  981loPI   C6A14006   8.952   6.729   8.912  0.1369  0.0651 -0.0501
  981loPI   C1B14007   9.609   7.754   7.457 -0.0910 -0.0016  0.2335
  981loPI   C2B14008   9.685   7.732   7.972  0.1649  0.0087  0.1189
  981loPI   C3B14009   9.675   7.704   8.403  0.1244  0.1641 -0.3001
  981loPI   C4B14010   9.483   7.678   8.866 -0.1179  0.0273 -0.2090
  982loPI    C114011   3.769  11.816   6.120 -0.0356  0.0508 -0.2425
  982loPI    C214012   3.416  11.695   5.977 -0.0491 -0.2163  0.0082
  982loPI    C314013   3.732  11.721   5.733 -0.1466 -0.3609 -0.1360
  982loPI   PO414014   3.691  11.828   6.422 -0.1223  0.0381  0.1408
  982loPI   GL114015   3.559  11.686   6.814 -0.3440  0.1244  0.0959
  982loPI   GL214016   3.411  11.962   6.789  0.0930  0.2864  0.1557
  982loPI   C1A14017   3.433  11.740   7.301 -0.1376 -0.0826  0.1516
  982loPI   C2A14018   3.363  11.772   7.784  0.1206 -0.3751 -0.1361
  982loPI   C3A14019   3.392  11.825   8.312 -0.3102 -0.2207 -0.1041
  982loPI   C4A14020   3.451  11.854   8.706 -0.1419  0.2204  0.1894
  982loPI   C5A14021   3.244  12.137   8.938  0.1455  0.4910  0.0379
  982loPI   C6A14022   3.014  12.543   8.860 -0.1829  0.0173  0.1078
  982loPI   C1B14023   3.459  12.192   7.018  0.0239 -0.1383 -0.2121
  982loPI   C2B14024   3.376  12.171   7.491  0.0114 -0.1785  0.1521
  982loPI   C3B14025   3.426  12.208   7.980 -0.0800  0.2996 -0.0835
  982loPI   C4B14026   3.466  12.312   8.433  0.1015 -0.1507 -0.0050
  983loPI    C114027  15.419   7.583   6.551 -0.1207  0.1959  0.1998
  983loPI    C214028  15.086   7.735   6.389 -0.0764  0.0629 -0.0209
  983loPI    C314029  15.418   7.701   6.169  0.0663  0.1358  0.1798
  983loPI   PO414030  15.328   7.391   6.692  0.0125  0.1124  0.1044
  983loPI   GL114031  15.433   7.100   7.002  0.2843 -0.3590 -0.0758
  983loPI   GL214032  15.168   6.964   6.998  0.0894  0.1663 -0.0485
  983loPI   C1A14033  15.437   7.239   7.379  0.0017 -0.1953  0.0611
  983loPI   C2A14034  15.536   7.241   7.802 -0.1753 -0.1385 -0.0454
  983loPI   C3A14035  15.585   7.261   8.127  0.2975 -0.1126  0.1239
  983loPI   C4A14036  15.608   7.222   8.583 -0.3091  0.0013  0.1609
  983loPI   C5A14037  15.739   6.950   8.966  0.1621  0.0699  0.1470
  983loPI   C6A14038  16.103   6.659   9.107 -0.0704 -0.0995  0.0930
  983loPI   C1B14039  15.066   6.850   7.385  0.3247 -0.1096  0.2078
  983loPI   C2B14040  15.061   6.868   7.840 -0.5081 -0.2297 -0.0694
  983loPI   C3B14041  15.095   6.811   8.262 -0.0138 -0.3516 -0.0310
  983loPI   C4B14042  15.002   6.918   8.774  0.0953 -0.2941  0.1580
  984loPI    C114043   8.022  10.982   6.420  0.1038  0.0654  0.0602
  984loPI    C214044   7.877  10.986   6.047 -0.1376 -0.2864  0.1457
  984loPI    C314045   8.181  10.743   6.142  0.4199  0.3297  0.0080
  984loPI   PO414046   8.089  11.190   6.488 -0.1276  0.1201 -0.2684
  984loPI   GL114047   8.259  11.248   6.842 -0.0443 -0.0356  0.0744
  984loPI   GL214048   8.548  11.162   6.858  0.0161  0.0105  0.0520
  984loPI   C1A14049   8.186  11.060   7.192 -0.0155 -0.1097 -0.2685
  984loPI   C2A14050   8.256  11.003   7.664 -0.0004 -0.0451  0.2351
  984loPI   C3A14051   8.245  11.021   7.963  0.0906  0.0027 -0.0015
  984loPI   C4A14052   8.310  10.975   8.329 -0.0110 -0.1200 -0.0233
  984loPI   C5A14053   8.190  10.910   8.735 -0.0894 -0.0942 -0.0202
  984loPI   C6A14054   8.254  11.013   9.188  0.0089  0.3183  0.1830
  984loPI   C1B14055   8.576  11.255   7.384  0.0006  0.2942 -0.0069
  984loPI   C2B14056   8.714  11.221   7.800 -0.1206  0.0889 -0.1698
  984loPI   C3B14057   8.693  11.240   8.160 -0.0437 -0.0606 -0.0253
  984loPI   C4B14058   8.677  11.215   8.597  0.3969 -0.3096  0.0350
  985loPI    C114059   5.685   9.865   6.407  0.1821  0.1676 -0.1681
  985loPI    C214060   5.354   9.700   6.255  0.0019  0.2629  0.1125
  985loPI    C314061   5.609   9.894   6.015  0.0303 -0.1011 -0.1607
  985loPI   PO414062   5.619   9.890   6.676  0.0311 -0.0260  0.1820
  985loPI   GL114063   5.632  10.262   7.068  0.3211 -0.2089 -0.0326
  985loPI   GL214064   5.672  10.578   6.956 -0.1995 -0.0567 -0.0606
  985loPI   C1A14065   5.536  10.346   7.559 -0.2075  0.0029  0.0024
  985loPI   C2A14066   5.543  10.425   8.038  0.0929 -0.0244 -0.0133
  985loPI   C3A14067   5.690  10.535   8.468  0.0644  0.3814 -0.1693
  985loPI   C4A14068   5.905  10.757   8.851  0.1478  0.3226  0.1639
  985loPI   C5A14069   6.274  10.692   8.856  0.1833 -0.0277 -0.1570
  985loPI   C6A14070   6.689  10.410   8.745  0.0228 -0.2426 -0.3472
  985loPI   C1B14071   5.498  10.773   7.286 -0.0267 -0.3992 -0.1970
  985loPI   C2B14072   5.397  10.776   7.693 -0.1907 -0.0183  0.1339
  985loPI   C3B14073   5.540  10.900   8.044  0.4301  0.3049 -0.0474
  985loPI   C4B14074   5.538  11.060   8.452  0.0886 -0.0253 -0.2695
  986loPI    C114075   6.794  13.761   6.241 -0.1719  0.4656 -0.1472
  986loPI    C214076   7.104  13.755   5.989  0.1279 -0.1857  0.2125
  986loPI    C314077   6.752  13.603   5.876  0.0491  0.1801 -0.0529
  986loPI   PO414078   6.961  13.810   6.461  0.0969 -0.0781 -0.0312
  986loPI   GL114079   7.053  14.140   6.689 -0.0557 -0.1430  0.0051
  986loPI   GL214080   7.332  13.969   6.827  0.0331 -0.1712 -0.4058
  986loPI   C1A14081   6.888  14.350   6.962  0.0677  0.0507  0.1275
  986loPI   C2A14082   6.870  14.317   7.507  0.3219 -0.1025  0.1455
  986loPI   C3A14083   6.995  14.427   7.876  0.1071 -0.2973  0.4288
  986loPI   C4A14084   7.248  14.439   8.299  0.0221 -0.0735 -0.1431
  986loPI   C5A14085   7.157  14.360   8.658  0.1614  0.0316 -0.1233
  986loPI   C6A14086   6.934  14.441   9.038  0.1113  0.0055  0.1675
  986loPI   C1B14087   7.508  13.712   7.166 -0.1195  0.1009  0.0580
  986loPI   C2B14088   7.523  13.652   7.631  0.1272  0.0382  0.0110
  986loPI   C3B14089   7.485  13.591   8.080 -0.0365  0.1073 -0.0364
  986loPI   C4B14090   7.607  13.611   8.594 -0.0567 -0.1148  0.1279
  987loPI    C114091  14.077  13.703   6.093  0.0746  0.0617 -0.0661
  987loPI    C214092  14.385  13.474   5.981 -0.0004 -0.0195 -0.1070
  987loPI    C314093  14.010  13.336   5.948 -0.0303 -0.0007  0.1355
  987loPI   PO414094  14.197  13.864   6.245 -0.2039  0.1184 -0.0218
  987loPI   GL114095  14.302  13.798   6.653 -0.1322 -0.1134 -0.0344
  987loPI   GL214096  14.460  13.928   6.807 -0.0126 -0.0753  0.0412
  987loPI   C1A14097  14.415  13.457   6.946 -0.0240  0.1199  0.0133
  987loPI   C2A14098  14.245  13.424   7.393  0.0116 -0.1787 -0.1720
  987loPI   C3A14099  14.345  13.495   7.823 -0.0158  0.1406 -0.0796
  987loPI   C4A14100  14.386  13.387   8.239 -0.0788 -0.1247 -0.0870
  987loPI   C5A14101  14.508  13.455   8.671  0.0430 -0.0949 -0.2065
  987loPI   C6A14102  14.558  13.082   9.029 -0.0346  0.0043 -0.0484
  987loPI   C1B14103  14.360  13.895   7.168 -0.1301  0.0919  0.3941
  987loPI   C2B14104  14.409  13.915   7.539  0.0482 -0.0230 -0.0547
  987loPI   C3B14105  14.387  13.935   7.954  0.1430 -0.3741  0.0566
  987loPI   C4B14106  14.359  13.887   8.422  0.0326 -0.1191 -0.2416
  988loPI    C114107   9.045  10.802   6.191 -0.3356 -0.0319  0.1584
  988loPI    C214108   8.900  11.159   6.083 -0.1989 -0.0201  0.0094
  988loPI    C314109   9.294  11.109   6.130 -0.2130 -0.1646 -0.0206
  988loPI   PO414110   8.976  10.741   6.465 -0.1134  0.4106  0.0456
  988loPI   GL114111   8.882  10.751   6.880  0.1501 -0.0897  0.1107
  988loPI   GL214112   9.154  10.435   6.864 -0.0338 -0.3095 -0.0158
  988loPI   C1A14113   8.976  11.019   7.259 -0.0551 -0.0031 -0.0490
  988loPI   C2A14114   9.162  10.991   7.662  0.2237  0.2439 -0.0166
  988loPI   C3A14115   9.122  10.910   8.033 -0.0280 -0.0071  0.0040
  988loPI   C4A14116   9.139  10.839   8.402  0.3662 -0.0088  0.1747
  988loPI   C5A14117   9.204  10.724   8.874  0.2618  0.0706 -0.0998
  988loPI   C6A14118   9.216  10.327   9.065  0.2497  0.0743  0.3303
  988loPI   C1B14119   9.038  10.482   7.340 -0.1226  0.0153 -0.1333
  988loPI   C2B14120   9.033  10.409   7.791  0.0588 -0.1739  0.0629
  988loPI   C3B14121   9.054  10.343   8.167 -0.1434 -0.4018 -0.0424
  988loPI   C4B14122   9.045  10.327   8.583 -0.1478 -0.0438 -0.1258
  989loPI    C114123  15.352  13.620   6.207  0.1353  0.2286 -0.0312
  989loPI    C214124  15.639  13.355   6.121  0.1202  0.2908 -0.2791
  989loPI    C314125  15.394  13.487   5.833 -0.2351  0.1496 -0.0487
  989loPI   PO414126  15.172  13.496   6.335 -0.2259  0.1589 -0.0730
  989loPI   GL114127  15.022  13.366   6.759 -0.2350 -0.1568 -0.0739
  989loPI   GL214128  14.738  13.138   6.696 -0.6128  0.0863  0.1069
  989loPI   C1A14129  14.849  13.659   7.016  0.1654 -0.2625  0.3404
  989loPI   C2A14130  14.757  13.612   7.375  0.1398  0.1264 -0.1558
  989loPI   C3A14131  14.857  13.730   7.785 -0.0249  0.2269  0.0825
  989loPI   C4A14132  14.793  13.691   8.280  0.0486 -0.1271  0.1371
  989loPI   C5A14133  14.951  13.731   8.702 -0.0886  0.2138  0.1910
  989loPI   C6A14134  14.990  14.047   9.047  0.1320  0.0182  0.2345
  989loPI   C1B14135  14.755  13.174   7.136 -0.0960  0.0121  0.2913
  989loPI   C2B14136  14.665  13.206   7.540  0.0177  0.0714 -0.1701
  989loPI   C3B14137  14.789  13.263   7.981 -0.1025  0.2791  0.0665
  989loPI   C4B14138  14.801  13.094   8.436 -0.1185  0.0446  0.0934
  990loPI    C114139   9.074  16.438   6.284 -0.1538  0.2436 -0.1175
  990loPI    C214140   8.780  16.240   6.100  0.0525 -0.0959 -0.0898
  990loPI    C314141   9.144  16.255   5.936  0.1486 -0.1051  0.1191
  990loPI   PO414142   9.015  16.396   6.512 -0.3143  0.0639 -0.2485
  990loPI   GL114143   9.218  16.467   6.879  0.0041 -0.0328  0.2100
  990loPI   GL214144   9.037  16.733   6.958 -0.2335 -0.0211  0.0283
  990loPI   C1A14145   9.492  16.444   7.168  0.0578  0.0521  0.1551
  990loPI   C2A14146   9.585  16.597   7.644 -0.0078  0.2400 -0.0975
  990loPI   C3A14147   9.702  16.644   8.006  0.0768  0.3157  0.2700
  990loPI   C4A14148   9.739  16.509   8.458  0.0469 -0.2491 -0.4500
  990loPI   C5A14149   9.739  16.788   8.758 -0.2582  0.0808 -0.0275
  990loPI   C6A14150   9.860  16.858   9.143 -0.3052  0.0157 -0.2979
  990loPI   C1B14151   9.149  16.839   7.430 -0.1024 -0.0198  0.0611
  990loPI   C2B14152   9.288  16.884   7.852 -0.2753 -0.0842 -0.2515
  990loPI   C3B14153   9.256  16.860   8.301 -0.2855 -0.1057 -0.0138
  990loPI   C4B14154   9.298  17.068   8.715  0.2442  0.2597 -0.0138
  991loPI    C114155  13.491   8.318   6.335 -0.3100  0.1018  0.0177
  991loPI    C214156  13.570   8.623   6.088 -0.2626  0.0926  0.0215
  991loPI    C314157  13.229   8.619   6.297 -0.0602  0.3722  0.3690
  991loPI   PO414158  13.674   8.342   6.581  0.1145  0.1433 -0.1628
  991loPI   GL114159  13.647   8.214   6.933 -0.0903 -0.1330 -0.2744
  991loPI   GL214160  14.047   8.166   6.954 -0.1944 -0.0659  0.4375
  991loPI   C1A14161  13.487   8.265   7.331 -0.3711 -0.0043  0.3245
  991loPI   C2A14162  13.391   8.312   7.721 -0.1305 -0.3876 -0.1060
  991loPI   C3A14163  13.575   8.392   8.114  0.2289 -0.1643  0.1009
  991loPI   C4A14164  13.726   8.530   8.521  0.0986 -0.1988  0.1868
  991loPI   C5A14165  13.832   8.313   8.835  0.1038  0.2823  0.1434
  991loPI   C6A14166  14.236   8.340   8.972 -0.1164  0.2345 -0.2074
  991loPI   C1B14167  14.017   8.276   7.313  0.0682  0.0198 -0.0475
  991loPI   C2B14168  13.946   8.297   7.767  0.0358 -0.1496  0.2301
  991loPI   C3B14169  14.119   8.361   8.175  0.0736  0.0382 -0.2292
  991loPI   C4B14170  14.283   8.632   8.525  0.0756 -0.0202 -0.0513
  992loPI    C114171  11.813   3.256   6.071 -0.1112  0.0982  0.0212
  992loPI    C214172  12.203   3.165   6.055 -0.1477 -0.0873  0.1547
  992loPI    C314173  11.992   3.206   5.717  0.0195  0.1584  0.0781
  992loPI   PO414174  11.776   3.207   6.367 -0.4893  0.0160 -0.1736
  992loPI   GL114175  12.017   3.237   6.734  0.0966 -0.2363  0.4189
  992loPI   GL214176  11.732   3.033   6.913  0.0587 -0.0452  0.0978
  992loPI   C1A14177  12.155   3.206   7.208 -0.1883 -0.0946  0.1888
  992loPI   C2A14178  12.129   3.296   7.637  0.0858  0.3107 -0.2504
  992loPI   C3A14179  12.096   3.361   8.020 -0.4578 -0.0326 -0.2063
  992loPI   C4A14180  11.984   3.423   8.393  0.2597 -0.2051  0.2482
  992loPI   C5A14181  12.177   3.580   8.628  0.2448  0.0096  0.0698
  992loPI   C6A14182  12.509   3.923   8.575  0.1831  0.0150  0.1916
  992loPI   C1B14183  11.739   3.055   7.381  0.0035 -0.1452  0.1214
  992loPI   C2B14184  11.687   3.142   7.792  0.0240 -0.1930 -0.1111
  992loPI   C3B14185  11.582   3.133   8.193 -0.0297 -0.0843  0.0613
  992loPI   C4B14186  11.518   3.051   8.616 -0.1858  0.0789  0.0775
  993loPI    C114187   8.035   6.236   6.137  0.0390 -0.0890  0.1754
  993loPI    C214188   7.646   6.272   6.049  0.0752  0.0282  0.0602
  993loPI    C314189   7.922   6.408   5.793  0.1921 -0.0429  0.1476
  993loPI   PO414190   7.992   6.251   6.449 -0.4032  0.2619  0.4517
  993loPI   GL114191   8.031   6.142   6.830  0.2680 -0.3069 -0.1923
  993loPI   GL214192   7.687   6.063   6.886  0.0495 -0.2348 -0.1052
  993loPI   C1A14193   8.075   5.863   7.162 -0.2563  0.1922  0.1909
  993loPI   C2A14194   8.159   5.981   7.652 -0.0448  0.1482 -0.3236
  993loPI   C3A14195   8.115   5.944   8.190  0.1014  0.0919  0.3634
  993loPI   C4A14196   8.063   5.790   8.608  0.0071 -0.1361 -0.1753
  993loPI   C5A14197   8.212   5.786   8.955  0.0349  0.0259  0.1470
  993loPI   C6A14198   8.481   5.980   9.082 -0.3845 -0.0395  0.1642
  993loPI   C1B14199   7.649   6.154   7.289 -0.2415 -0.0156  0.2658
  993loPI   C2B14200   7.629   6.190   7.677 -0.1852 -0.0428 -0.1385
  993loPI   C3B14201   7.699   6.168   8.018  0.0932 -0.0669 -0.0164
  993loPI   C4B14202   7.626   5.992   8.393  0.0157  0.0709 -0.1681
  994loPI    C114203   6.670   4.586   6.474 -0.0658 -0.0968  0.1464
  994loPI    C214204   6.375   4.572   6.204 -0.1501  0.0421  0.2298
  994loPI    C314205   6.757   4.591   6.084 -0.1720 -0.1787  0.1213
  994loPI   PO414206   6.536   4.795   6.641  0.2238  0.1754 -0.1132
  994loPI   GL114207   6.602   4.717   7.117 -0.1686 -0.2262  0.1427
  994loPI   GL214208   6.377   4.463   7.118  0.0333 -0.1023 -0.0404
  994loPI   C1A14209   6.585   4.715   7.585 -0.3147 -0.2331  0.3078
  994loPI   C2A14210   6.627   4.588   7.926  0.1538 -0.0859 -0.2958
  994loPI   C3A14211   6.630   4.401   8.372 -0.2688  0.0170 -0.1035
  994loPI   C4A14212   6.802   4.632   8.694 -0.3241 -0.1601  0.0669
  994loPI   C5A14213   7.113   5.014   8.830 -0.0796 -0.1118  0.1132
  994loPI   C6A14214   7.446   5.186   8.908 -0.0636 -0.0974 -0.0698
  994loPI   C1B14215   6.254   4.358   7.455  0.0705  0.1781  0.2663
  994loPI   C2B14216   6.244   4.229   7.903 -0.0396  0.1719  0.0606
  994loPI   C3B14217   6.203   4.158   8.326 -0.0617  0.0892  0.1309
  994loPI   C4B14218   5.852   4.029   8.633  0.1253  0.0449 -0.0841
  995loPI    C114219  12.568  11.533   6.208  0.1444 -0.0586 -0.0010
  995loPI    C214220  12.247  11.336   6.072  0.0918 -0.0720  0.1408
  995loPI    C314221  12.468  11.555   5.821 -0.0685 -0.0063  0.0554
  995loPI   PO414222  12.486  11.545   6.506  0.1442 -0.0162  0.0354
  995loPI   GL114223  12.312  11.612   6.857 -0.1331 -0.1726  0.0423
  995loPI   GL214224  12.573  11.980   7.013  0.1878 -0.2503  0.2794
  995loPI   C1A14225  12.424  11.408   7.213  0.2696 -0.1074 -0.0978
  995loPI   C2A14226  12.300  11.416   7.739 -0.1786 -0.0190  0.0019
  995loPI   C3A14227  12.326  11.444   8.182 -0.0440  0.2732 -0.0911
  995loPI   C4A14228  12.358  11.351   8.605  0.0442 -0.0856 -0.2447
  995loPI   C5A14229  12.685  11.384   8.982 -0.0073  0.1314  0.1047
  995loPI   C6A14230  12.953  11.383   9.267  0.0002 -0.0518 -0.0268
  995loPI   C1B14231  12.498  11.904   7.478  0.0419 -0.0863  0.2553
  995loPI   C2B14232  12.434  11.974   7.954  0.0597 -0.1197 -0.0635
  995loPI   C3B14233  12.381  11.955   8.354 -0.2002  0.2842 -0.0873
  995loPI   C4B14234  12.298  11.877   8.720 -0.2617 -0.1238 -0.0620
  996loPI    C114235   6.863   8.725   6.294 -0.0162 -0.0749  0.0548
  996loPI    C214236   6.485   8.757   6.421  0.0678  0.3289  0.2210
  996loPI    C314237   6.602   8.949   6.090  0.1058  0.1239  0.1137
  996loPI   PO414238   7.020   8.781   6.476 -0.0243  0.3479  0.2630
  996loPI   GL114239   7.190   8.566   6.782 -0.3211  0.0438 -0.3927
  996loPI   GL214240   6.945   8.348   7.042 -0.0734 -0.1784  0.0010
  996loPI   C1A14241   7.312   8.622   7.190  0.3687 -0.0230  0.0072
  996loPI   C2A14242   7.390   8.574   7.627 -0.0259  0.0664 -0.1220
  996loPI   C3A14243   7.537   8.570   8.075 -0.0167  0.0208  0.1192
  996loPI   C4A14244   7.570   8.634   8.482 -0.2109 -0.1331  0.2231
  996loPI   C5A14245   7.775   8.852   8.863 -0.0178 -0.0589  0.1154
  996loPI   C6A14246   8.168   9.059   8.934 -0.0315  0.0619  0.0730
  996loPI   C1B14247   6.962   8.333   7.492 -0.1251  0.1521 -0.2790
  996loPI   C2B14248   7.001   8.356   7.865  0.0259  0.0764 -0.0582
  996loPI   C3B14249   7.024   8.390   8.198 -0.1205 -0.1872  0.1279
  996loPI   C4B14250   7.157   8.373   8.593 -0.1431 -0.1978 -0.1330
  997loPI    C114251   9.589   3.678   5.693  0.1786  0.1700 -0.0745
  997loPI    C214252   9.441   4.042   5.621 -0.1532 -0.0089 -0.3195
  997loPI    C314253   9.678   3.865   5.351  0.1059  0.0715 -0.1479
  997loPI   PO414254   9.607   3.724   5.972 -0.0938  0.0030 -0.1110
  997loPI   GL114255   9.820   3.668   6.388  0.0100 -0.1592 -0.1826
  997loPI   GL214256  10.118   3.440   6.498  0.1241  0.0647 -0.2331
  997loPI   C1A14257   9.786   3.755   6.816  0.0121 -0.2295  0.0118
  997loPI   C2A14258   9.839   3.711   7.324 -0.1220  0.0180  0.1190
  997loPI   C3A14259   9.842   3.751   7.759  0.1389 -0.1166  0.2594
  997loPI   C4A14260   9.915   3.852   8.159  0.4199 -0.3141  0.0006
  997loPI   C5A14261   9.840   3.828   8.586  0.1154  0.0701  0.0107
  997loPI   C6A14262  10.036   4.156   8.861  0.2585 -0.0947  0.0297
  997loPI   C1B14263   9.795   3.306   6.925 -0.1309 -0.2349  0.3941
  997loPI   C2B14264   9.783   3.214   7.349 -0.0513  0.2431 -0.1508
  997loPI   C3B14265   9.838   3.178   7.742 -0.1326 -0.0761  0.2064
  997loPI   C4B14266   9.827   3.212   8.155  0.0892 -0.0156  0.2994
  998loPI    C114267   0.149   3.653   6.174  0.0125  0.1089 -0.1191
  998loPI    C214268   0.476   3.638   5.944 -0.0158  0.2392 -0.1693
  998loPI    C314269   0.119   3.712   5.779 -0.0754  0.0707 -0.1184
  998loPI   PO414270   0.213   3.615   6.369 -0.0405  0.2317 -0.0142
  998loPI   GL114271   0.363   3.789   6.816 -0.1083 -0.2159 -0.1792
  998loPI   GL214272   0.481   4.070   6.877  0.1964  0.2702 -0.2536
  998loPI   C1A14273   0.448   3.514   7.107  0.0801 -0.2747  0.1079
  998loPI   C2A14274   0.355   3.646   7.485 -0.4491 -0.1000 -0.1056
  998loPI   C3A14275   0.149   3.736   7.886 -0.0773 -0.0039  0.1475
  998loPI   C4A14276  -0.148   3.642   8.268 -0.1115  0.1007  0.2362
  998loPI   C5A14277  -0.478   3.859   8.555  0.2224 -0.0967 -0.3609
  998loPI   C6A14278  -0.542   3.930   8.936 -0.0510  0.1411 -0.1107
  998loPI   C1B14279   0.506   4.115   7.234 -0.1304  0.2749  0.0730
  998loPI   C2B14280   0.519   4.123   7.702  0.1372 -0.0013  0.2860
  998loPI   C3B14281   0.581   4.105   8.118 -0.0555 -0.0253 -0.1007
  998loPI   C4B14282   0.287   3.924   8.338  0.1259  0.0596 -0.2182
  999loPI    C114283  13.167   9.972   6.846 -0.0829 -0.2248 -0.0584
  999loPI    C214284  12.989   9.958   6.488  0.3214 -0.0498 -0.2733
  999loPI    C314285  12.887  10.241   6.752  0.0151 -0.1853 -0.2421
  999loPI   PO414286  13.193   9.575   6.864 -0.0651  0.0829 -0.1640
  999loPI   GL114287  12.959   9.289   6.995 -0.3496 -0.0509  0.0740
  999loPI   GL214288  12.862   9.042   7.024 -0.3461 -0.0197  0.0279
  999loPI   C1A14289  13.040   9.318   7.395  0.0471  0.0011 -0.1492
  999loPI   C2A14290  12.998   9.226   7.936 -0.3998  0.0740 -0.0862
  999loPI   C3A14291  12.850   9.285   8.373  0.3640  0.4624  0.1274
  999loPI   C4A14292  12.922   9.301   8.809 -0.2503  0.1626 -0.0902
  999loPI   C5A14293  12.532   9.407   9.096 -0.1305 -0.0058 -0.1213
  999loPI   C6A14294  12.110   9.597   9.275  0.0628 -0.4019 -0.0188
  999loPI   C1B14295  12.763   8.789   7.378  0.1594 -0.2523 -0.2323
  999loPI   C2B14296  12.685   8.648   7.782  0.0530 -0.1611 -0.1455
  999loPI   C3B14297  12.633   8.554   8.218  0.0692 -0.0246 -0.1005
  999loPI   C4B14298  12.909   8.764   8.541 -0.0072  0.1992  0.1424
 1000loPI    C114299   7.374  15.719   6.253  0.3081 -0.0652 -0.0456
 1000loPI    C214300   7.528  16.060   6.396 -0.2057  0.1629 -0.0158
 1000loPI    C314301   7.434  16.030   6.009 -0.1206  0.0377 -0.0273
 1000loPI   PO414302   7.201  15.685   6.390 -0.0742  0.0579 -0.2096
 1000loPI   GL114303   7.213  15.365   6.658  0.0846 -0.0608 -0.2401
 1000loPI   GL214304   7.031  15.132   6.553 -0.1295  0.0354  0.1178
 1000loPI   C1A14305   7.332  15.310   7.115  0.1266 -0.1825 -0.0086
 1000loPI   C2A14306   7.445  15.201   7.536  0.2281 -0.1188 -0.0537
 1000loPI   C3A14307   7.389  15.327   8.024 -0.1362 -0.2114  0.1448
 1000loPI   C4A14308   7.537  15.640   8.366  0.0858 -0.0412  0.0523
 1000loPI   C5A14309   7.454  15.901   8.638  0.0646 -0.2096  0.0523
 1000loPI   C6A14310   7.281  16.182   8.974  0.2831  0.0413 -0.2062
 1000loPI   C1B14311   7.126  14.880   6.937  0.2287 -0.3797  0.0407
 1000loPI   C2B14312   7.198  14.846   7.363 -0.0113  0.0108  0.0764
 1000loPI   C3B14313   7.502  14.741   7.672 -0.1173  0.2969  0.0984
 1000loPI   C4B14314   7.682  14.856   7.974 -0.0902  0.1065  0.0886
 1001loPI    C114315   5.022   3.361   6.239 -0.0075 -0.0915  0.0638
 1001loPI    C214316   5.002   3.021   6.028 -0.1596 -0.0107 -0.0532
 1001loPI    C314317   5.100   3.364   5.846 -0.0966  0.0247  0.0467
 1001loPI   PO414318   5.270   3.343   6.493  0.5786  0.0204 -0.1882
 1001loPI   GL114319   5.380   3.143   6.842  0.2144  0.0678 -0.1642
 1001loPI   GL214320   5.394   2.846   6.827  0.2209  0.3282  0.0302
 1001loPI   C1A14321   5.094   3.309   7.185  0.1858 -0.0483  0.0268
 1001loPI   C2A14322   4.978   3.430   7.546  0.0647 -0.0105  0.1018
 1001loPI   C3A14323   4.952   3.334   7.992 -0.2048  0.0312  0.0007
 1001loPI   C4A14324   5.057   3.207   8.417  0.0414 -0.0093  0.0936
 1001loPI   C5A14325   4.909   2.972   8.710  0.2136 -0.3013 -0.0300
 1001loPI   C6A14326   4.475   2.905   8.794 -0.2317 -0.0380 -0.1034
 1001loPI   C1B14327   5.395   2.951   7.303 -0.1217 -0.1697  0.0336
 1001loPI   C2B14328   5.291   3.075   7.669  0.0658  0.0618  0.0383
 1001loPI   C3B14329   5.246   2.938   8.062 -0.0577  0.0716  0.0629
 1001loPI   C4B14330   5.385   2.888   8.418  0.1521  0.1557 -0.0418
 1002loPI    C114331  10.155  13.664   6.586 -0.0581  0.0291 -0.2167
 1002loPI    C214332  10.314  13.851   6.270 -0.0884  0.0725 -0.2063
 1002loPI    C314333  10.088  14.055   6.530  0.0242  0.0608 -0.0982
 1002loPI   PO414334  10.121  13.341   6.578  0.0673 -0.1684 -0.4648
 1002loPI   GL114335  10.098  13.102   6.920  0.0026 -0.2974 -0.0340
 1002loPI   GL214336   9.773  12.942   6.831 -0.1426  0.1639 -0.2318
 1002loPI   C1A14337  10.196  13.093   7.336  0.1899  0.0409  0.0167
 1002loPI   C2A14338  10.160  12.948   7.790  0.0525 -0.1020  0.0331
 1002loPI   C3A14339  10.206  12.990   8.102  0.1035 -0.1225 -0.0873
 1002loPI   C4A14340  10.144  12.818   8.488  0.2380 -0.1298  0.0414
 1002loPI   C5A14341  10.051  12.712   8.861 -0.1809 -0.0500  0.0061
 1002loPI   C6A14342  10.120  12.308   8.994 -0.0726 -0.0878  0.2529
 1002loPI   C1B14343   9.703  12.821   7.241 -0.5045 -0.3075 -0.2538
 1002loPI   C2B14344   9.755  12.727   7.680  0.0944  0.1835 -0.3128
 1002loPI   C3B14345   9.718  12.743   8.166 -0.0975  0.0082 -0.1492
 1002loPI   C4B14346   9.620  12.599   8.448  0.2663  0.0968 -0.0775
 1003loPI    C114347   0.555  12.237   6.088  0.1938  0.1207 -0.0030
 1003loPI    C214348   0.228  12.255   5.858  0.2214 -0.0056 -0.0528
 1003loPI    C314349   0.538  12.497   5.785  0.3071 -0.1773 -0.2712
 1003loPI   PO414350   0.412  12.229   6.326  0.0526  0.0284  0.2176
 1003loPI   GL114351   0.356  12.067   6.587 -0.1034 -0.1662  0.1347
 1003loPI   GL214352   0.111  11.866   6.598  0.2916 -0.1572  0.0557
 1003loPI   C1A14353   0.214  12.153   6.946  0.0103 -0.2631 -0.0517
 1003loPI   C2A14354   0.152  12.137   7.459 -0.2884 -0.0995  0.1002
 1003loPI   C3A14355   0.129  12.102   7.857  0.0868 -0.1848 -0.0624
 1003loPI   C4A14356   0.012  12.034   8.261 -0.0955 -0.0904 -0.5379
 1003loPI   C5A14357  -0.071  11.941   8.657  0.2148  0.1740  0.1666
 1003loPI   C6A14358  -0.172  11.658   9.011 -0.0295 -0.1548 -0.3480
 1003loPI   C1B14359   0.447  11.746   6.992  0.0796 -0.0538  0.4305
 1003loPI   C2B14360   0.503  11.786   7.344 -0.0010  0.0851  0.0680
 1003loPI   C3B14361   0.524  11.747   7.771 -0.0023 -0.0972  0.1463
 1003loPI   C4B14362   0.418  11.853   8.222 -0.1800 -0.3713  0.0835
 1004loPI    C114363  13.478  14.177   6.129 -0.0406 -0.1737 -0.1289
 1004loPI    C214364  13.855  14.107   6.014  0.0404 -0.1210  0.0978
 1004loPI    C314365  13.598  13.803   6.051  0.0310 -0.1459 -0.1532
 1004loPI   PO414366  13.583  14.336   6.364  0.4481  0.0106 -0.2335
 1004loPI   GL114367  13.802  14.571   6.733 -0.0232  0.1107 -0.0581
 1004loPI   GL214368  13.946  14.267   6.861  0.0114  0.0153  0.0725
 1004loPI   C1A14369  13.545  14.530   7.025  0.0787 -0.0127  0.2362
 1004loPI   C2A14370  13.570  14.474   7.556  0.3302  0.1209 -0.1436
 1004loPI   C3A14371  13.583  14.528   7.994  0.1574 -0.2847 -0.1385
 1004loPI   C4A14372  13.528  14.434   8.502 -0.1486 -0.0353 -0.0233
 1004loPI   C5A14373  13.476  14.316   8.853 -0.0788  0.1558  0.1842
 1004loPI   C6A14374  13.724  14.167   9.051 -0.0995  0.1297 -0.4615
 1004loPI   C1B14375  14.023  14.288   7.279 -0.0950  0.2888 -0.0940
 1004loPI   C2B14376  13.965  14.170   7.689  0.1826 -0.1133 -0.0506
 1004loPI   C3B14377  13.945  14.248   8.220 -0.0597 -0.0297  0.1329
 1004loPI   C4B14378  13.997  14.348   8.623 -0.1132  0.0592  0.0647
 1005loPI    C114379  16.648  11.761   6.041 -0.2479 -0.0573  0.1386
 1005loPI    C214380  16.768  11.602   6.388 -0.0231  0.1266  0.1478
 1005loPI    C314381  16.843  11.412   6.044  0.1682  0.1698  0.1650
 1005loPI   PO414382  16.504  11.914   6.159  0.0291 -0.1851 -0.1474
 1005loPI   GL114383  16.633  12.023   6.613 -0.0124 -0.1566  0.0342
 1005loPI   GL214384  16.299  12.143   6.712 -0.0879 -0.1091  0.2097
 1005loPI   C1A14385  16.796  11.969   7.054  0.3823  0.1838 -0.3291
 1005loPI   C2A14386  16.702  12.267   7.495  0.2590 -0.0805  0.1108
 1005loPI   C3A14387  16.781  12.354   7.903 -0.3436 -0.0397  0.0006
 1005loPI   C4A14388  16.694  12.398   8.351  0.1980  0.1718 -0.2012
 1005loPI   C5A14389  16.328  12.410   8.721 -0.0400 -0.0235  0.0237
 1005loPI   C6A14390  16.079  12.205   8.980  0.1708 -0.0346  0.0539
 1005loPI   C1B14391  16.298  12.018   7.052  0.0580 -0.2966 -0.1295
 1005loPI   C2B14392  16.202  12.003   7.502 -0.0808 -0.0750  0.2209
 1005loPI   C3B14393  16.235  12.111   7.912 -0.2112 -0.2627  0.1391
 1005loPI   C4B14394  16.280  12.128   8.274 -0.0161 -0.1781  0.2692
 1006loPI    C114395   7.370   0.856   6.256 -0.0714  0.0003  0.0702
 1006loPI    C214396   7.212   1.223   6.245 -0.0947 -0.0110  0.0246
 1006loPI    C314397   6.997   0.909   6.122 -0.0636 -0.0360  0.0340
 1006loPI   PO414398   7.478   0.877   6.514 -0.1191  0.3857 -0.1392
 1006loPI   GL114399   7.485   0.592   6.860 -0.1811  0.2515 -0.1660
 1006loPI   GL214400   7.187   0.494   6.961 -0.2375  0.1589  0.0776
 1006loPI   C1A14401   7.498   0.127   7.066 -0.0152 -0.1252  0.1597
 1006loPI   C2A14402   7.639   0.016   7.417 -0.0875 -0.2445 -0.0805
 1006loPI   C3A14403   7.751  -0.040   7.815 -0.2605  0.0976  0.1923
 1006loPI   C4A14404   7.930  -0.002   8.124 -0.0361 -0.4573  0.0337
 1006loPI   C5A14405   7.936  -0.037   8.435  0.0800 -0.1687 -0.2497
 1006loPI   C6A14406   7.850   0.095   8.880  0.0449  0.2430 -0.1976
 1006loPI   C1B14407   7.303   0.445   7.456  0.1391  0.2123 -0.0733
 1006loPI   C2B14408   7.395   0.351   7.896 -0.2011 -0.0106 -0.1429
 1006loPI   C3B14409   7.518   0.267   8.258 -0.0009 -0.0804  0.1167
 1006loPI   C4B14410   7.443   0.308   8.680  0.0255 -0.1775 -0.1619
 1007loPI    C114411  12.545   1.211   6.158  0.0758  0.1110 -0.1658
 1007loPI    C214412  12.209   1.102   5.970  0.0690 -0.0195 -0.0791
 1007loPI    C314413  12.461   1.360   5.796  0.0707 -0.1507 -0.2744
 1007loPI   PO414414  12.611   1.045   6.248 -0.0710  0.0757  0.0868
 1007loPI   GL114415  12.496   1.003   6.696  0.0975  0.3931 -0.4191
 1007loPI   GL214416  12.220   1.181   6.665  0.1837 -0.1483  0.0012
 1007loPI   C1A14417  12.428   0.923   7.174  0.2025  0.2764  0.4347
 1007loPI   C2A14418  12.441   0.936   7.622  0.0712 -0.1193 -0.2612
 1007loPI   C3A14419  12.384   0.970   8.047  0.3067  0.3055 -0.0962
 1007loPI   C4A14420  12.290   1.036   8.520 -0.0929 -0.1592 -0.3684
 1007loPI   C5A14421  12.625   1.304   8.780  0.2692 -0.0165  0.1176
 1007loPI   C6A14422  13.024   1.483   8.645  0.0526 -0.0468 -0.2964
 1007loPI   C1B14423  12.403   1.382   6.994 -0.1630 -0.1484 -0.0222
 1007loPI   C2B14424  12.499   1.406   7.446  0.0973  0.1707  0.4323
 1007loPI   C3B14425  12.392   1.513   7.892  0.2547  0.1376  0.0932
 1007loPI   C4B14426  12.389   1.478   8.376 -0.0217 -0.0778  0.0635
 1008loPI    C114427   9.530  12.239   6.243  0.1422 -0.1592  0.1306
 1008loPI    C214428   9.822  12.097   6.009  0.0661  0.0182 -0.0753
 1008loPI    C314429   9.858  12.458   6.176  0.0634 -0.0547  0.0845
 1008loPI   PO414430   9.500  12.018   6.379  0.4327 -0.2968  0.1528
 1008loPI   GL114431   9.585  11.947   6.734  0.0209 -0.0451  0.1079
 1008loPI   GL214432   9.392  11.773   6.887  0.4086  0.0205  0.0663
 1008loPI   C1A14433   9.581  12.201   7.135 -0.0591 -0.2272  0.0216
 1008loPI   C2A14434   9.713  12.230   7.518 -0.3624 -0.0503  0.2549
 1008loPI   C3A14435   9.684  12.302   8.012 -0.2332 -0.1271  0.2291
 1008loPI   C4A14436   9.734  12.108   8.366 -0.1236  0.0244 -0.2099
 1008loPI   C5A14437   9.681  12.101   8.777  0.3227 -0.2266 -0.0676
 1008loPI   C6A14438   9.672  12.460   9.131 -0.3682  0.1492 -0.1955
 1008loPI   C1B14439   9.485  11.702   7.268 -0.0152 -0.1920 -0.1023
 1008loPI   C2B14440   9.691  11.785   7.648  0.1399 -0.1086 -0.0003
 1008loPI   C3B14441   9.682  11.653   8.016 -0.2144 -0.0446  0.1290
 1008loPI   C4B14442   9.619  11.638   8.420  0.2966  0.5998 -0.1454
 1009loPI    C114443  14.808   2.953   6.111  0.2762  0.0350 -0.0472
 1009loPI    C214444  14.499   3.155   5.957  0.0779 -0.0664  0.2101
 1009loPI    C314445  14.863   3.322   5.968 -0.0172  0.1494  0.1276
 1009loPI   PO414446  14.728   2.966   6.451  0.0112 -0.1790  0.2030
 1009loPI   GL114447  14.618   2.706   6.720 -0.2387 -0.0020 -0.0650
 1009loPI   GL214448  14.417   2.608   6.698 -0.1290 -0.1846  0.0108
 1009loPI   C1A14449  14.742   2.535   7.179  0.1455  0.0289  0.0599
 1009loPI   C2A14450  14.646   2.550   7.553 -0.1452 -0.0885  0.0297
 1009loPI   C3A14451  14.838   2.619   7.916 -0.0769 -0.0611 -0.0048
 1009loPI   C4A14452  14.781   2.539   8.406  0.1705  0.3663 -0.0875
 1009loPI   C5A14453  14.489   2.752   8.700 -0.1018  0.0466 -0.0934
 1009loPI   C6A14454  14.102   2.862   8.719  0.1178  0.0141  0.1680
 1009loPI   C1B14455  14.323   2.306   6.981  0.1930 -0.3787  0.1591
 1009loPI   C2B14456  14.195   2.307   7.421 -0.1932 -0.0875 -0.0652
 1009loPI   C3B14457  14.241   2.355   7.829 -0.1094 -0.1256  0.1799
 1009loPI   C4B14458  14.295   2.366   8.235  0.1912  0.1500  0.0411
 1010loPI    C114459   3.963   9.845   6.703  0.1786  0.1486  0.1812
 1010loPI    C214460   3.990   9.847   6.303 -0.2894  0.1293  0.1432
 1010loPI    C314461   4.012  10.191   6.507 -0.0488  0.1391  0.1044
 1010loPI   PO414462   3.712   9.682   6.757 -0.1711  0.0418 -0.0624
 1010loPI   GL114463   3.418   9.812   7.082  0.0090 -0.0325 -0.0750
 1010loPI   GL214464   3.777   9.665   7.235  0.1211  0.0152 -0.2827
 1010loPI   C1A14465   3.241   9.910   7.502  0.1678  0.1147 -0.2453
 1010loPI   C2A14466   3.294   9.826   7.899  0.2749 -0.0296 -0.2477
 1010loPI   C3A14467   3.435  10.017   8.244 -0.0493 -0.4591  0.0534
 1010loPI   C4A14468   3.262  10.508   8.367 -0.1505 -0.1610  0.2084
 1010loPI   C5A14469   3.173  10.879   8.673 -0.1144  0.0620 -0.0002
 1010loPI   C6A14470   3.195  11.175   8.951 -0.0395 -0.0217  0.0171
 1010loPI   C1B14471   3.717   9.679   7.699 -0.2858  0.0794 -0.0143
 1010loPI   C2B14472   3.765   9.717   8.039  0.1324 -0.3248 -0.1061
 1010loPI   C3B14473   3.888   9.838   8.427 -0.1038 -0.5094 -0.0992
 1010loPI   C4B14474   3.969  10.084   8.834  0.0618  0.0981 -0.1170
 1011loPI    C114475  10.088  10.124   6.073 -0.0430 -0.0179 -0.1289
 1011loPI    C214476  10.330   9.823   6.177  0.1809  0.2097  0.0210
 1011loPI    C314477  10.461  10.110   5.931  0.0086  0.2497 -0.0259
 1011loPI   PO414478  10.020  10.153   6.388  0.1032 -0.2883  0.2207
 1011loPI   GL114479   9.908  10.140   6.726  0.1129  0.0415  0.3897
 1011loPI   GL214480   9.841  10.051   6.840 -0.0179  0.0403 -0.1078
 1011loPI   C1A14481  10.222  10.128   7.101 -0.2719  0.5386 -0.2091
 1011loPI   C2A14482  10.300  10.043   7.571  0.2260 -0.0280  0.1924
 1011loPI   C3A14483  10.380  10.070   8.014  0.0383 -0.3272  0.2286
 1011loPI   C4A14484  10.362  10.093   8.488 -0.1113  0.0268 -0.4723
 1011loPI   C5A14485  10.238  10.117   8.979  0.2111  0.0432  0.2982
 1011loPI   C6A14486   9.971   9.733   9.125 -0.1443  0.1931  0.1494
 1011loPI   C1B14487   9.834   9.793   7.221 -0.1286  0.0789  0.2410
 1011loPI   C2B14488   9.848   9.828   7.659 -0.1758 -0.4258  0.0881
 1011loPI   C3B14489   9.922   9.855   8.110  0.2870  0.3196  0.1757
 1011loPI   C4B14490   9.939   9.883   8.535  0.1626  0.2391 -0.1618
 1012loPI    C114491  10.674  10.942   5.993 -0.0168  0.0920 -0.0932
 1012loPI    C214492  10.277  10.967   5.950  0.0220  0.1904 -0.4173
 1012loPI    C314493  10.486  10.710   5.727  0.0719 -0.3389  0.2088
 1012loPI   PO414494  10.723  10.972   6.250  0.3193  0.2156  0.0320
 1012loPI   GL114495  10.775  11.056   6.700 -0.2755 -0.0446 -0.0057
 1012loPI   GL214496  10.792  10.721   6.913  0.0873 -0.2578 -0.1542
 1012loPI   C1A14497  10.931  11.377   7.037  0.2089 -0.0555  0.1962
 1012loPI   C2A14498  10.987  11.266   7.428 -0.1712  0.0623  0.1086
 1012loPI   C3A14499  10.935  11.300   7.884 -0.3045  0.3039  0.0973
 1012loPI   C4A14500  10.986  11.390   8.289 -0.0875 -0.1524  0.0324
 1012loPI   C5A14501  11.040  11.173   8.767 -0.1528 -0.0715  0.1902
 1012loPI   C6A14502  10.995  11.079   9.116 -0.1249  0.0219 -0.2531
 1012loPI   C1B14503  10.786  10.803   7.286  0.0609 -0.0099 -0.2140
 1012loPI   C2B14504  10.872  10.818   7.732  0.2205  0.4990  0.3262
 1012loPI   C3B14505  10.924  10.715   8.144 -0.1734 -0.1415 -0.0867
 1012loPI   C4B14506  10.858  10.719   8.502 -0.0999 -0.1169  0.0522
 1013POPI    C114507  16.746   9.786   6.475  0.1002  0.1586 -0.0959
 1013POPI    C214508  16.910   9.529   6.216  0.1187 -0.0806  0.1491
 1013POPI    C314509  16.574   9.431   6.409  0.0685  0.1234  0.1672
 1013POPI   PO414510  16.973   9.954   6.465  0.0927 -0.3267 -0.3269
 1013POPI   GL114511  17.407   9.991   6.688  0.0368 -0.1365 -0.1760
 1013POPI   GL214512  17.290  10.363   6.707  0.0324 -0.0109 -0.0202
 1013POPI   C1A14513  17.166   9.964   7.150  0.0160  0.2797 -0.0638
 1013POPI   D2A14514  17.184   9.916   7.623 -0.2460 -0.0906  0.2923
 1013POPI   C3A14515  17.232   9.912   8.090  0.2751 -0.0664  0.1918
 1013POPI   C4A14516  17.244   9.851   8.577 -0.2100 -0.1290 -0.1293
 1013POPI   C1B14517  17.160  10.448   7.135 -0.3063 -0.3292  0.1184
 1013POPI   C2B14518  17.228  10.438   7.632 -0.0065 -0.1093 -0.0138
 1013POPI   C3B14519  17.172  10.420   8.073 -0.0087  0.0933  0.1347
 1013POPI   C4B14520  17.151  10.314   8.583  0.0722  0.0535  0.1370
 1014POPI    C114521  15.817   8.948   6.214  0.1383 -0.0484 -0.0978
 1014POPI    C214522  15.977   8.711   5.934  0.1413 -0.1328 -0.0254
 1014POPI    C314523  15.893   9.093   5.849  0.0558 -0.1825 -0.1695
 1014POPI   PO414524  15.948   8.889   6.413 -0.1609 -0.3015 -0.0084
 1014POPI   GL114525  15.795   8.876   6.842 -0.0320  0.3708  0.0663
 1014POPI   GL214526  15.976   9.048   6.865 -0.0001  0.1817  0.2329
 1014POPI   C1A14527  15.857   8.559   7.166  0.1134  0.0500  0.1425
 1014POPI   D2A14528  15.960   8.574   7.595  0.1554 -0.0694 -0.2762
 1014POPI   C3A14529  15.977   8.498   8.108  0.0029 -0.0010  0.2555
 1014POPI   C4A14530  15.808   8.567   8.471  0.0440  0.1305  0.1042
 1014POPI   C1B14531  16.229   8.832   7.245  0.0320  0.0182  0.0291
 1014POPI   C2B14532  16.320   8.945   7.694  0.3111  0.2402 -0.0957
 1014POPI   C3B14533  16.324   8.899   8.187  0.2606 -0.4303  0.0333
 1014POPI   C4B14534  16.315   8.785   8.689 -0.0678  0.2062 -0.1914
 1015POPI    C114535  14.024   3.046   5.925  0.2596  0.1004 -0.0706
 1015POPI    C214536  13.691   2.899   5.760  0.0981  0.2148  0.1484
 1015POPI    C314537  13.931   3.138   5.546  0.0739  0.0817 -0.0303
 1015POPI   PO414538  13.906   3.164   6.171 -0.1171  0.0579  0.2453
 1015POPI   GL114539  13.851   3.386   6.589  0.1953 -0.0784  0.1306
 1015POPI   GL214540  13.706   3.664   6.712  0.0493  0.0809 -0.0822
 1015POPI   C1A14541  14.005   3.381   7.046 -0.2668 -0.0035  0.3486
 1015POPI   D2A14542  14.061   3.234   7.508  0.1438 -0.3106  0.0263
 1015POPI   C3A14543  13.873   3.221   7.895  0.1687 -0.0591 -0.3232
 1015POPI   C4A14544  13.749   3.121   8.347  0.1791 -0.0889 -0.0787
 1015POPI   C1B14545  13.508   3.548   7.085  0.0093 -0.2083  0.0846
 1015POPI   C2B14546  13.607   3.458   7.545 -0.1454 -0.2162 -0.1640
 1015POPI   C3B14547  13.436   3.507   7.995 -0.2248  0.1517  0.2733
 1015POPI   C4B14548  13.364   3.487   8.391 -0.0930  0.0166  0.2593
 1016POPI    C114549  12.821  11.126   6.319 -0.3566 -0.0574  0.1807
 1016POPI    C214550  12.504  10.927   6.178 -0.2410 -0.0808 -0.0503
 1016POPI    C314551  12.872  10.824   6.062 -0.1528 -0.0028  0.1557
 1016POPI   PO414552  12.790  11.154   6.575 -0.1617 -0.0872  0.1597
 1016POPI   GL114553  12.677  11.072   6.969 -0.2114 -0.1843  0.3320
 1016POPI   GL214554  12.590  10.708   7.136 -0.1797  0.0227 -0.1006
 1016POPI   C1A14555  12.812  11.100   7.369  0.1870 -0.1353  0.0013
 1016POPI   D2A14556  12.820  11.063   7.819 -0.0412 -0.1014  0.2496
 1016POPI   C3A14557  13.210  10.839   8.026 -0.3389 -0.3513 -0.2595
 1016POPI   C4A14558  13.226  10.646   8.327  0.1424  0.1968  0.0861
 1016POPI   C1B14559  12.709  10.545   7.587 -0.0282  0.0755  0.0444
 1016POPI   C2B14560  12.735  10.630   8.026  0.1432  0.0935 -0.3312
 1016POPI   C3B14561  12.739  10.570   8.488 -0.2718 -0.0800  0.3363
 1016POPI   C4B14562  12.595  10.191   8.666 -0.2718 -0.0154  0.1826
 1017POPI    C114563   7.861   9.308   6.355  0.0307  0.0578 -0.1552
 1017POPI    C214564   8.107   9.421   6.061  0.0887  0.1558 -0.0696
 1017POPI    C314565   7.735   9.567   6.077  0.0608  0.0923 -0.1369
 1017POPI   PO414566   8.041   9.195   6.542 -0.1389  0.0556  0.1382
 1017POPI   GL114567   8.312   9.218   6.856 -0.0245 -0.1245 -0.0575
 1017POPI   GL214568   8.501   9.002   6.746  0.2231 -0.0333 -0.1449
 1017POPI   C1A14569   8.433   9.249   7.338 -0.2689  0.1117 -0.1976
 1017POPI   D2A14570   8.543   9.142   7.761  0.1246 -0.0612  0.2487
 1017POPI   C3A14571   8.427   9.105   8.155  0.1207 -0.0245 -0.0179
 1017POPI   C4A14572   8.502   9.156   8.606  0.2056  0.0737 -0.0012
 1017POPI   C1B14573   8.787   8.968   7.069 -0.2889 -0.3161  0.3310
 1017POPI   C2B14574   8.953   8.845   7.431 -0.0183 -0.0020  0.1900
 1017POPI   C3B14575   8.927   8.873   7.860 -0.0824  0.0659 -0.0590
 1017POPI   C4B14576   8.888   8.834   8.281 -0.0639 -0.2300  0.1794
 1018POPI    C114577   4.053  10.680   6.038 -0.0028  0.0489  0.1740
 1018POPI    C214578   4.021  10.284   5.997 -0.1384  0.0445  0.3134
 1018POPI    C314579   3.736  10.523   5.851  0.0083  0.0990  0.1128
 1018POPI   PO414580   4.101  10.680   6.306  0.3563  0.0737 -0.1531
 1018POPI   GL114581   3.893  10.739   6.669  0.1686 -0.1825 -0.1538
 1018POPI   GL214582   3.574  10.814   6.781 -0.1384  0.0738 -0.3573
 1018POPI   C1A14583   3.991  10.697   7.120  0.3186 -0.0227 -0.1616
 1018POPI   D2A14584   3.864  10.829   7.443 -0.1965 -0.1833 -0.2491
 1018POPI   C3A14585   3.857  10.918   7.879  0.0223 -0.3223  0.1228
 1018POPI   C4A14586   3.669  10.840   8.312 -0.1789 -0.2431  0.0142
 1018POPI   C1B14587   3.419  10.850   7.185  0.3466  0.1315 -0.1541
 1018POPI   C2B14588   3.354  10.842   7.475 -0.0698  0.0250 -0.0870
 1018POPI   C3B14589   3.284  10.820   7.794  0.1824  0.2231 -0.1325
 1018POPI   C4B14590   3.171  10.974   8.177  0.0482 -0.2768  0.0118
 1019POPI    C114591  16.603   1.966   6.405  0.2058 -0.0486 -0.0129
 1019POPI    C214592  16.773   2.253   6.185 -0.0289  0.1368  0.0442
 1019POPI    C314593  16.426   2.091   6.069  0.0967 -0.1179  0.0186
 1019POPI   PO414594  16.720   1.834   6.512 -0.1762  0.1508  0.1270
 1019POPI   GL114595  17.014   1.888   6.804  0.0322 -0.1423 -0.1845
 1019POPI   GL214596  16.747   1.967   6.996  0.1614  0.0320 -0.2914
 1019POPI   C1A14597  17.112   1.700   7.125 -0.0657 -0.0558 -0.0231
 1019POPI   D2A14598  17.096   1.587   7.595 -0.2723  0.0187  0.0947
 1019POPI   C3A14599  17.011   1.816   7.952  0.2148 -0.0758  0.0726
 1019POPI   C4A14600  16.839   2.013   8.275 -0.0567 -0.2298 -0.3642
 1019POPI   C1B14601  16.681   1.842   7.325 -0.1729 -0.0999  0.0970
 1019POPI   C2B14602  16.515   1.964   7.711  0.2546 -0.0217  0.1079
 1019POPI   C3B14603  16.367   1.968   8.079 -0.2082 -0.4971 -0.1270
 1019POPI   C4B14604  16.493   1.748   8.539 -0.0612  0.3340  0.1450
 1020POPI    C114605   5.286  13.422   6.028  0.0414  0.0693 -0.1813
 1020POPI    C214606   5.527  13.738   5.982 -0.0091  0.1367  0.0069
 1020POPI    C314607   5.572  13.416   5.749  0.2368  0.1645  0.0137
 1020POPI   PO414608   5.308  13.379   6.358 -0.3507 -0.2042  0.0197
 1020POPI   GL114609   5.123  13.477   6.668  0.1985  0.3812 -0.0543
 1020POPI   GL214610   5.349  13.559   6.823  0.1594  0.0220  0.1129
 1020POPI   C1A14611   4.702  13.668   6.829  0.2514  0.0110  0.2408
 1020POPI   D2A14612   4.649  13.888   7.234 -0.3017  0.1501 -0.0752
 1020POPI   C3A14613   4.671  13.814   7.573  0.2476 -0.0730  0.1006
 1020POPI   C4A14614   4.626  13.638   7.888  0.0806 -0.2296 -0.0083
 1020POPI   C1B14615   5.397  13.806   7.141  0.1476  0.1175  0.3157
 1020POPI   C2B14616   5.364  13.759   7.545  0.0212 -0.1114  0.0724
 1020POPI   C3B14617   5.185  13.949   7.890 -0.1595  0.2416  0.2162
 1020POPI   C4B14618   5.231  14.147   8.325 -0.0156  0.3323  0.0900
 1021POPI    C114619  16.144  14.276   5.872  0.0699  0.0267 -0.0649
 1021POPI    C214620  15.786  14.344   5.706  0.0651  0.0608 -0.0409
 1021POPI    C314621  16.120  14.397   5.491  0.0529 -0.0440 -0.0864
 1021POPI   PO414622  16.087  14.175   6.120 -0.2542 -0.0319 -0.0515
 1021POPI   GL114623  16.056  14.065   6.586  0.0490  0.1557  0.0684
 1021POPI   GL214624  15.929  14.381   6.625  0.2297  0.5359  0.2079
 1021POPI   C1A14625  16.273  14.172   6.937  0.0713 -0.3017 -0.3681
 1021POPI   D2A14626  16.488  14.219   7.352 -0.0518 -0.1293 -0.2887
 1021POPI   C3A14627  16.223  14.200   7.662 -0.1291  0.0210  0.1338
 1021POPI   C4A14628  16.184  14.304   8.118 -0.2477  0.0786 -0.0279
 1021POPI   C1B14629  15.959  14.548   7.008 -0.2145 -0.2777 -0.0657
 1021POPI   C2B14630  15.865  14.480   7.471  0.2832  0.1412  0.1201
 1021POPI   C3B14631  15.795  14.573   7.825 -0.5334  0.1797  0.2222
 1021POPI   C4B14632  15.847  14.630   8.213  0.1729 -0.0205 -0.1523
 1022POPI    C114633   8.663  15.359   6.550 -0.0033 -0.0628  0.0419
 1022POPI    C214634   8.665  15.636   6.261  0.1943  0.1377  0.2310
 1022POPI    C314635   8.776  15.261   6.179  0.0750  0.1494  0.0079
 1022POPI   PO414636   8.694  15.548   6.782  0.5004 -0.1697 -0.0296
 1022POPI   GL114637   8.731  15.646   7.227  0.1444  0.1566 -0.0325
 1022POPI   GL214638   8.608  15.944   7.428 -0.4005 -0.1199  0.0602
 1022POPI   C1A14639   8.869  15.521   7.698 -0.0137 -0.0035  0.0208
 1022POPI   D2A14640   8.863  15.486   8.134 -0.1205 -0.1211 -0.2893
 1022POPI   C3A14641   8.646  15.490   8.520  0.0596 -0.1662  0.0585
 1022POPI   C4A14642   8.501  15.420   8.921  0.1656  0.0913  0.0515
 1022POPI   C1B14643   8.710  16.005   7.873 -0.3425 -0.0001  0.0536
 1022POPI   C2B14644   8.832  16.067   8.309  0.0626  0.2480  0.0976
 1022POPI   C3B14645   8.890  16.270   8.665  0.4566 -0.2577  0.0248
 1022POPI   C4B14646   9.217  16.473   8.791  0.0533 -0.0504 -0.0969
 1023POPI    C114647  11.589  11.888   6.104 -0.0069  0.0814  0.0316
 1023POPI    C214648  11.276  12.067   5.930  0.0493  0.0272 -0.1276
 1023POPI    C314649  11.562  11.901   5.705  0.0357 -0.1983  0.0179
 1023POPI   PO414650  11.634  11.925   6.307 -0.2807  0.0519  0.4200
 1023POPI   GL114651  11.507  11.864   6.764  0.1224  0.1869  0.0985
 1023POPI   GL214652  11.612  12.185   6.888  0.1047  0.1855 -0.1685
 1023POPI   C1A14653  11.888  11.712   7.001 -0.2705 -0.0697 -0.2860
 1023POPI   D2A14654  11.968  11.705   7.442  0.4078 -0.1058  0.1463
 1023POPI   C3A14655  11.931  11.763   7.925 -0.3556 -0.0260 -0.0573
 1023POPI   C4A14656  11.913  11.670   8.388  0.0732 -0.1203  0.0546
 1023POPI   C1B14657  11.535  12.019   7.285 -0.0973 -0.0412 -0.0312
 1023POPI   C2B14658  11.542  12.032   7.722  0.1534 -0.1761 -0.0903
 1023POPI   C3B14659  11.450  12.092   8.148 -0.2101 -0.2480  0.2139
 1023POPI   C4B14660  11.463  11.978   8.570 -0.2991 -0.0674 -0.3054
 1024POPI    C114661   1.903  11.899   5.989  0.2446 -0.1596  0.2798
 1024POPI    C214662   1.910  11.499   5.993 -0.0042 -0.1772 -0.2521
 1024POPI    C314663   2.101  11.700   5.704  0.0077  0.0854 -0.0650
 1024POPI   PO414664   1.911  11.975   6.205 -0.2709 -0.0633  0.0842
 1024POPI   GL114665   1.840  12.234   6.432  0.3377 -0.0998 -0.1966
 1024POPI   GL214666   1.910  11.943   6.713  0.0914 -0.1754  0.2645
 1024POPI   C1A14667   1.697  12.351   6.815 -0.1578  0.0374  0.2990
 1024POPI   D2A14668   1.639  12.577   7.256 -0.1703  0.2959 -0.2053
 1024POPI   C3A14669   1.455  12.682   7.698 -0.4339  0.1708  0.2246
 1024POPI   C4A14670   1.373  12.767   8.179 -0.0191  0.2409  0.4145
 1024POPI   C1B14671   2.063  12.125   7.156  0.2140 -0.0838  0.2734
 1024POPI   C2B14672   1.992  12.157   7.649 -0.0804 -0.0585  0.0594
 1024POPI   C3B14673   2.119  12.360   8.007 -0.1382  0.0901 -0.0979
 1024POPI   C4B14674   2.303  12.528   8.430  0.0493 -0.1781  0.0418
 1025POPI    C114675   9.461   9.208   6.357 -0.0773  0.0284 -0.0917
 1025POPI    C214676   9.388   9.434   6.035  0.1737  0.0942 -0.1043
 1025POPI    C314677   9.661   9.142   6.017 -0.0600 -0.1310 -0.0515
 1025POPI   PO414678   9.567   9.351   6.528  0.1971 -0.1140 -0.1496
 1025POPI   GL114679   9.569   9.668   6.811 -0.1745 -0.2008  0.1346
 1025POPI   GL214680   9.372   9.964   6.796 -0.0376 -0.0098  0.0650
 1025POPI   C1A14681   9.722   9.272   7.115 -0.0442  0.2393 -0.0986
 1025POPI   D2A14682   9.910   9.280   7.539 -0.0296  0.1614 -0.1886
 1025POPI   C3A14683   9.783   9.361   7.936  0.1391 -0.0838 -0.0121
 1025POPI   C4A14684   9.824   9.292   8.325  0.1630 -0.0352  0.0867
 1025POPI   C1B14685   9.449  10.152   7.121  0.1416 -0.1098 -0.1463
 1025POPI   C2B14686   9.384  10.182   7.517 -0.2227  0.0477  0.0539
 1025POPI   C3B14687   9.465  10.126   7.924  0.0346 -0.1689  0.0464
 1025POPI   C4B14688   9.462  10.086   8.363 -0.1046 -0.1873  0.0202
 1026POPI    C114689  11.025   7.428   6.176  0.1410 -0.0383 -0.0024
 1026POPI    C214690  10.738   7.567   5.933 -0.0175 -0.0248  0.1898
 1026POPI    C314691  11.123   7.625   5.842 -0.0785  0.2244  0.0836
 1026POPI   PO414692  10.913   7.467   6.390 -0.0281  0.2795 -0.3142
 1026POPI   GL114693  10.818   7.491   6.847 -0.0170  0.1983  0.0271
 1026POPI   GL214694  11.007   7.242   6.847 -0.0757  0.0435  0.0595
 1026POPI   C1A14695  11.017   7.389   7.314  0.0631  0.0261  0.5715
 1026POPI   D2A14696  10.904   7.275   7.872 -0.1168  0.2535 -0.0240
 1026POPI   C3A14697  10.889   7.231   8.314 -0.0134  0.0178 -0.0512
 1026POPI   C4A14698  11.088   7.409   8.683  0.3697 -0.0422  0.0998
 1026POPI   C1B14699  11.005   6.893   7.187  0.2072 -0.1562 -0.4296
 1026POPI   C2B14700  10.862   6.763   7.609 -0.2911  0.0434 -0.0204
 1026POPI   C3B14701  10.841   6.797   8.050 -0.0431 -0.0739  0.1032
 1026POPI   C4B14702  10.891   6.750   8.457  0.0084 -0.0686  0.0127
 1027POPI    C114703   3.417   2.046   6.085  0.0628  0.0690  0.0147
 1027POPI    C214704   3.257   1.778   5.835  0.1365 -0.0707  0.1157
 1027POPI    C314705   3.176   2.167   5.790  0.1368 -0.0959 -0.1157
 1027POPI   PO414706   3.722   1.917   6.187 -0.0643  0.0851  0.3269
 1027POPI   GL114707   3.798   1.621   6.474 -0.0244 -0.1339  0.0634
 1027POPI   GL214708   3.638   1.805   6.734 -0.1870  0.0651  0.3822
 1027POPI   C1A14709   3.906   1.483   6.907  0.0452 -0.2083  0.1371
 1027POPI   D2A14710   3.830   1.148   7.137 -0.1114  0.1235 -0.1648
 1027POPI   C3A14711   3.673   1.173   7.541 -0.0388  0.1061  0.0224
 1027POPI   C4A14712   3.681   1.286   7.945  0.0073  0.3509 -0.2269
 1027POPI   C1B14713   3.758   1.681   7.299 -0.1632 -0.0597 -0.1428
 1027POPI   C2B14714   3.652   1.718   7.699 -0.0545 -0.1433 -0.2209
 1027POPI   C3B14715   3.739   1.701   8.124  0.4511  0.1497  0.1525
 1027POPI   C4B14716   3.867   1.729   8.505  0.0106 -0.4085 -0.1290
 1028POPI    C114717  16.171   7.433   6.228 -0.0094  0.0160  0.0462
 1028POPI    C214718  16.423   7.156   6.089 -0.0496  0.1270 -0.2548
 1028POPI    C314719  16.393   7.509   5.904 -0.1084  0.2777  0.0373
 1028POPI   PO414720  16.228   7.407   6.478  0.1243  0.1952 -0.0364
 1028POPI   GL114721  16.168   7.316   6.877 -0.2713 -0.2851 -0.3764
 1028POPI   GL214722  15.851   7.225   6.808 -0.3545  0.0315  0.4090
 1028POPI   C1A14723  16.325   7.318   7.292  0.2859 -0.0047 -0.1061
 1028POPI   D2A14724  16.377   7.321   7.740 -0.1619 -0.0512  0.0067
 1028POPI   C3A14725  16.487   7.240   8.163  0.2170  0.2064  0.0955
 1028POPI   C4A14726  16.449   7.136   8.526 -0.1033 -0.3683 -0.1453
 1028POPI   C1B14727  15.824   7.507   7.140  0.1385 -0.1023 -0.2494
 1028POPI   C2B14728  15.886   7.539   7.614 -0.0393  0.1106  0.1731
 1028POPI   C3B14729  16.013   7.505   8.024  0.1190  0.1788  0.2359
 1028POPI   C4B14730  16.016   7.447   8.391 -0.4152 -0.2274  0.0599
 1029POPI    C114731   3.675  14.927   6.277  0.0949 -0.1633  0.0961
 1029POPI    C214732   3.561  15.138   5.957 -0.1389 -0.1157  0.2089
 1029POPI    C314733   3.722  14.775   5.910 -0.3590 -0.1944  0.0452
 1029POPI   PO414734   3.783  15.208   6.465 -0.1154  0.2441 -0.0889
 1029POPI   GL114735   3.875  15.169   6.820 -0.0241  0.0189 -0.0905
 1029POPI   GL214736   3.785  14.861   6.805 -0.1476  0.1682 -0.1156
 1029POPI   C1A14737   3.801  15.113   7.299 -0.1190 -0.3013  0.1300
 1029POPI   D2A14738   3.879  15.242   7.704  0.0803 -0.0152  0.1705
 1029POPI   C3A14739   3.952  15.172   8.233  0.1234 -0.0720  0.2035
 1029POPI   C4A14740   3.589  14.934   8.394  0.1903  0.0458  0.0271
 1029POPI   C1B14741   3.872  14.684   7.151 -0.1402  0.0072  0.3566
 1029POPI   C2B14742   3.687  14.705   7.593 -0.2374  0.2615 -0.2011
 1029POPI   C3B14743   3.578  14.646   8.020  0.1445  0.3220 -0.1635
 1029POPI   C4B14744   3.602  14.378   8.352  0.0827  0.0179  0.0113
 1030POPI    C114745   4.567   8.527   6.453  0.1159 -0.0223 -0.0564
 1030POPI    C214746   4.272   8.272   6.538 -0.0583  0.1922 -0.0086
 1030POPI    C314747   4.293   8.439   6.175 -0.0655  0.2687  0.0260
 1030POPI   PO414748   4.572   8.697   6.688  0.2584  0.2654 -0.1584
 1030POPI   GL114749   4.718   8.788   7.113  0.1010  0.0056 -0.1779
 1030POPI   GL214750   4.847   8.454   7.256 -0.0597  0.2999 -0.2975
 1030POPI   C1A14751   4.590   8.883   7.451 -0.1061  0.1965  0.0068
 1030POPI   D2A14752   4.609   8.833   7.866 -0.0316  0.0030 -0.1248
 1030POPI   C3A14753   4.770   8.844   8.283  0.0622 -0.1150  0.2580
 1030POPI   C4A14754   4.850   8.804   8.693  0.1798  0.0953  0.2367
 1030POPI   C1B14755   4.890   8.463   7.633  0.0909  0.0747  0.0363
 1030POPI   C2B14756   4.777   8.406   8.100  0.0882  0.0917  0.0216
 1030POPI   C3B14757   4.751   8.254   8.542  0.0720  0.1665 -0.0636
 1030POPI   C4B14758   4.992   8.357   8.924 -0.0024  0.1197 -0.1316
 1031POPI    C114759   8.520  12.248   6.656 -0.1038 -0.0349  0.1025
 1031POPI    C214760   8.485  12.016   6.332 -0.0037 -0.1120  0.1461
 1031POPI    C314761   8.402  12.407   6.309  0.1156 -0.0948 -0.0012
 1031POPI   PO414762   8.709  12.249   6.719  0.1445  0.0337  0.2353
 1031POPI   GL114763   8.781  12.089   7.076 -0.1663  0.1203  0.0950
 1031POPI   GL214764   9.049  12.048   7.120  0.1091 -0.2255  0.0906
 1031POPI   C1A14765   8.743  12.119   7.489 -0.0994 -0.2504 -0.2501
 1031POPI   D2A14766   8.727  12.121   7.875 -0.1234 -0.0061 -0.1242
 1031POPI   C3A14767   8.866  12.231   8.353  0.3422  0.1959 -0.1812
 1031POPI   C4A14768   9.128  12.302   8.733  0.1463 -0.0583 -0.2201
 1031POPI   C1B14769   9.229  12.126   7.566  0.0548 -0.1339 -0.1426
 1031POPI   C2B14770   9.261  12.050   8.000 -0.1370 -0.2377  0.3692
 1031POPI   C3B14771   9.214  11.942   8.329 -0.2475 -0.0177  0.2245
 1031POPI   C4B14772   9.155  11.786   8.789  0.1031 -0.3293 -0.2080
 1032POPI    C114773   0.466  15.745   6.077 -0.1732 -0.2381 -0.0999
 1032POPI    C214774   0.652  15.445   5.889 -0.0746 -0.1423 -0.1566
 1032POPI    C314775   0.855  15.677   6.145 -0.1361 -0.0881 -0.1567
 1032POPI   PO414776   0.252  15.602   6.172  0.0165  0.0379  0.1338
 1032POPI   GL114777   0.140  15.287   6.563 -0.0470 -0.1977  0.1501
 1032POPI   GL214778  -0.039  15.095   6.698  0.1128 -0.1074 -0.4290
 1032POPI   C1A14779   0.201  15.327   7.029  0.3660 -0.0688 -0.2209
 1032POPI   D2A14780   0.218  15.191   7.487 -0.0303  0.0117 -0.1556
 1032POPI   C3A14781   0.115  15.187   7.924  0.3541  0.1398  0.1422
 1032POPI   C4A14782   0.198  15.341   8.344  0.1131  0.0523 -0.2079
 1032POPI   C1B14783  -0.215  15.029   7.049 -0.2299 -0.0122  0.1824
 1032POPI   C2B14784  -0.243  14.994   7.577 -0.0626 -0.1156 -0.1101
 1032POPI   C3B14785  -0.374  15.002   7.986 -0.2256  0.2058  0.3128
 1032POPI   C4B14786  -0.272  15.081   8.332 -0.0585 -0.2383  0.2177
 1033POPI    C114787  15.670  15.982   6.001 -0.1905 -0.3252 -0.0500
 1033POPI    C214788  15.452  15.825   5.705 -0.2914 -0.1342 -0.0779
 1033POPI    C314789  15.632  16.179   5.656  0.0488 -0.3016 -0.0644
 1033POPI   PO414790  15.462  15.865   6.260 -0.1420  0.0114 -0.3548
 1033POPI   GL114791  15.452  15.934   6.703 -0.0146  0.0389 -0.0055
 1033POPI   GL214792  15.664  15.907   6.843  0.1032  0.1580 -0.3119
 1033POPI   C1A14793  15.121  15.847   7.004 -0.1767  0.2230  0.0869
 1033POPI   D2A14794  15.177  15.623   7.363 -0.1204 -0.0117 -0.1122
 1033POPI   C3A14795  14.963  15.710   7.635 -0.1482 -0.2450  0.1254
 1033POPI   C4A14796  15.118  15.755   8.066 -0.1221  0.1968 -0.3130
 1033POPI   C1B14797  15.557  15.917   7.251  0.0500 -0.1169 -0.2536
 1033POPI   C2B14798  15.466  15.967   7.751  0.0846  0.2084  0.0621
 1033POPI   C3B14799  15.511  16.019   8.198  0.0466  0.0260 -0.2214
 1033POPI   C4B14800  15.544  16.008   8.702 -0.1594 -0.1887  0.1372
 1034POPI    C114801   6.485   6.810   6.498  0.0414  0.0873 -0.0318
 1034POPI    C214802   6.394   7.182   6.615 -0.2278 -0.0372  0.1643
 1034POPI    C314803   6.565   7.121   6.259 -0.0362  0.2869  0.1975
 1034POPI   PO414804   6.576   6.733   6.680 -0.0915 -0.0273 -0.1489
 1034POPI   GL114805   6.509   6.864   7.010  0.1570  0.0405 -0.0786
 1034POPI   GL214806   6.874   6.878   7.053 -0.0051  0.0197 -0.1415
 1034POPI   C1A14807   6.401   6.915   7.400 -0.0325 -0.2987  0.1907
 1034POPI   D2A14808   6.499   6.920   7.759  0.2151  0.0617  0.0064
 1034POPI   C3A14809   6.435   6.702   8.110 -0.0760 -0.0507  0.1622
 1034POPI   C4A14810   6.443   6.697   8.556 -0.0684 -0.2042 -0.1077
 1034POPI   C1B14811   7.005   6.876   7.551 -0.0432  0.0881  0.1477
 1034POPI   C2B14812   6.904   6.769   7.998  0.0139 -0.0165 -0.0807
 1034POPI   C3B14813   6.974   6.730   8.468 -0.3672  0.0167 -0.1374
 1034POPI   C4B14814   7.180   6.908   8.851 -0.3604  0.4034  0.3243
 1035POPI    C114815  14.060  15.621   5.899  0.0047  0.1599  0.1323
 1035POPI    C214816  14.136  15.283   6.099  0.0309  0.1626  0.1271
 1035POPI    C314817  14.009  15.267   5.720 -0.1425  0.1540  0.1846
 1035POPI   PO414818  13.899  15.730   6.080  0.1704 -0.1724 -0.0629
 1035POPI   GL114819  14.082  15.576   6.481 -0.0169  0.1452 -0.1646
 1035POPI   GL214820  14.273  15.747   6.410  0.0592 -0.2756 -0.0701
 1035POPI   C1A14821  13.762  15.502   6.914 -0.2076  0.0001 -0.2398
 1035POPI   D2A14822  13.665  15.620   7.271  0.0661  0.1177 -0.0407
 1035POPI   C3A14823  13.612  15.529   7.642 -0.0586 -0.2757 -0.3685
 1035POPI   C4A14824  13.556  15.539   7.998  0.1513 -0.0469 -0.0962
 1035POPI   C1B14825  14.237  15.773   6.873  0.0774  0.2401  0.1353
 1035POPI   C2B14826  14.176  15.834   7.282  0.1504 -0.0359  0.0400
 1035POPI   C3B14827  14.054  15.801   7.761  0.3190  0.3878  0.0660
 1035POPI   C4B14828  13.979  15.806   8.228 -0.3770 -0.1217 -0.0673
 1036POPI    C114829  10.818  13.845   6.228  0.2043 -0.0127  0.0142
 1036POPI    C214830  10.828  13.616   5.900 -0.2637 -0.1251  0.0717
 1036POPI    C314831  10.669  13.983   5.884  0.1836  0.0750  0.0582
 1036POPI   PO414832  10.841  13.680   6.428  0.3211  0.1258  0.1322
 1036POPI   GL114833  10.822  13.630   6.900  0.3796 -0.1247  0.0642
 1036POPI   GL214834  10.571  13.392   6.742 -0.3039 -0.1205 -0.0171
 1036POPI   C1A14835  10.777  13.676   7.346 -0.1121 -0.1462  0.1357
 1036POPI   D2A14836  10.789  13.745   7.885  0.1058 -0.0167  0.1548
 1036POPI   C3A14837  10.787  13.715   8.362 -0.0239 -0.0275 -0.0857
 1036POPI   C4A14838  10.657  13.923   8.767  0.2474  0.0952  0.0555
 1036POPI   C1B14839  10.351  13.538   7.158 -0.0690 -0.5099  0.1748
 1036POPI   C2B14840  10.281  13.550   7.643  0.2764  0.2041  0.1889
 1036POPI   C3B14841  10.277  13.469   8.094  0.2324  0.3327 -0.1622
 1036POPI   C4B14842  10.060  13.357   8.496 -0.0357  0.1687 -0.0526
 1037POPI    C114843   1.817  16.048   6.237  0.2592  0.1808  0.1437
 1037POPI    C214844   1.514  16.309   6.228 -0.0085 -0.1258  0.0774
 1037POPI    C314845   1.784  16.307   5.934 -0.0608  0.0096  0.0274
 1037POPI   PO414846   1.946  16.120   6.458 -0.0266  0.3095  0.2052
 1037POPI   GL114847   2.223  16.463   6.665  0.1754  0.0430  0.0517
 1037POPI   GL214848   1.861  16.495   6.788 -0.2370  0.0820 -0.1241
 1037POPI   C1A14849   2.240  16.528   7.128  0.0313  0.0486  0.1799
 1037POPI   D2A14850   2.251  16.502   7.563 -0.0491  0.0297 -0.0526
 1037POPI   C3A14851   2.199  16.651   8.015  0.3526 -0.1094  0.1256
 1037POPI   C4A14852   2.376  16.727   8.340 -0.2591 -0.1103  0.0627
 1037POPI   C1B14853   1.754  16.602   7.172  0.2301  0.2224 -0.1676
 1037POPI   C2B14854   1.674  16.575   7.626 -0.0102  0.1105  0.0150
 1037POPI   C3B14855   1.645  16.480   8.056  0.2046  0.0782 -0.0599
 1037POPI   C4B14856   1.492  16.286   8.476  0.1994 -0.0406 -0.2682
 1038POPI    C114857   8.948   7.048   6.149 -0.1573  0.2512  0.2711
 1038POPI    C214858   9.075   7.411   6.039  0.2565  0.0606  0.0977
 1038POPI    C314859   8.863   7.188   5.783  0.0878  0.1373  0.1687
 1038POPI   PO414860   9.197   6.974   6.262 -0.2164 -0.0337 -0.2596
 1038POPI   GL114861   9.246   6.971   6.650 -0.3442  0.1648  0.0328
 1038POPI   GL214862   8.910   6.842   6.747  0.0491 -0.2352 -0.2243
 1038POPI   C1A14863   9.478   6.731   7.063  0.1455 -0.2320 -0.0853
 1038POPI   D2A14864   9.600   6.664   7.431  0.1202 -0.1553  0.3109
 1038POPI   C3A14865   9.598   6.761   7.790 -0.0707 -0.0320 -0.0521
 1038POPI   C4A14866   9.556   6.646   8.267  0.0018  0.1146  0.0044
 1038POPI   C1B14867   9.079   7.040   7.125  0.2271  0.0524 -0.0020
 1038POPI   C2B14868   9.183   7.043   7.510  0.0107 -0.2155 -0.0627
 1038POPI   C3B14869   9.138   7.040   7.997  0.1629  0.3213 -0.0492
 1038POPI   C4B14870   9.086   6.888   8.410 -0.0261 -0.1614 -0.1426
 1039POPI    C114871  14.096   6.192   6.472  0.1234 -0.0702 -0.1661
 1039POPI    C214872  14.153   5.844   6.662  0.2348 -0.0077 -0.0841
 1039POPI    C314873  14.208   5.867   6.266  0.0219 -0.1335 -0.1226
 1039POPI   PO414874  14.048   6.351   6.694  0.0366  0.2721  0.1008
 1039POPI   GL114875  14.158   6.278   7.041 -0.0790 -0.1090 -0.0634
 1039POPI   GL214876  14.369   6.099   7.154  0.0781 -0.0146 -0.2621
 1039POPI   C1A14877  14.143   6.406   7.466 -0.0297 -0.2812  0.1702
 1039POPI   D2A14878  14.095   6.390   7.905 -0.2748 -0.1534 -0.0899
 1039POPI   C3A14879  14.398   6.190   8.257  0.2347 -0.0939 -0.0112
 1039POPI   C4A14880  14.228   6.020   8.622 -0.1467 -0.2623  0.1130
 1039POPI   C1B14881  14.379   5.995   7.668 -0.2204  0.0636 -0.0492
 1039POPI   C2B14882  14.431   5.727   7.890  0.3219  0.1217 -0.1199
 1039POPI   C3B14883  14.147   5.787   8.182  0.1687  0.0083  0.1168
 1039POPI   C4B14884  13.964   5.556   8.613 -0.1624 -0.1149  0.1193
 1040POPI    C114885   5.452  11.340   6.314  0.0218 -0.0931  0.1006
 1040POPI    C214886   5.555  11.049   6.059  0.0321 -0.0048  0.0032
 1040POPI    C314887   5.469  11.415   5.921  0.2088  0.0908  0.1420
 1040POPI   PO414888   5.293  11.236   6.479  0.0026 -0.1390  0.1014
 1040POPI   GL114889   4.807  11.075   6.528  0.0135 -0.0051 -0.1838
 1040POPI   GL214890   5.023  10.758   6.584 -0.1570 -0.3155 -0.0758
 1040POPI   C1A14891   4.637  11.031   6.933  0.1696 -0.1577  0.0146
 1040POPI   D2A14892   4.418  10.924   7.339 -0.3991 -0.2699  0.1961
 1040POPI   C3A14893   4.302  11.015   7.799  0.3175 -0.0625  0.2397
 1040POPI   C4A14894   4.461  10.916   8.143  0.1185 -0.0222  0.0961
 1040POPI   C1B14895   5.101  10.951   7.014 -0.1106 -0.2396  0.0321
 1040POPI   C2B14896   5.030  10.941   7.424  0.1732  0.1315 -0.2138
 1040POPI   C3B14897   4.967  10.835   7.897 -0.0649  0.2529  0.2088
 1040POPI   C4B14898   5.144  10.653   8.237 -0.2761  0.0338 -0.0635
 1041POPI    C114899   0.402   4.678   6.508 -0.0598  0.1966 -0.0246
 1041POPI    C214900   0.092   4.758   6.269  0.2044  0.4080 -0.3050
 1041POPI    C314901   0.441   4.644   6.112  0.2321  0.0272  0.0160
 1041POPI   PO414902   0.285   4.524   6.722 -0.2889  0.3282  0.0607
 1041POPI   GL114903   0.077   4.301   7.057 -0.2114 -0.0880 -0.0549
 1041POPI   GL214904  -0.026   4.564   7.096  0.1718 -0.3753 -0.0761
 1041POPI   C1A14905   0.095   4.292   7.512  0.1494  0.2266  0.3263
 1041POPI   D2A14906  -0.052   4.244   7.934  0.2613  0.3495  0.1201
 1041POPI   C3A14907  -0.155   4.213   8.337 -0.1635  0.3100 -0.2377
 1041POPI   C4A14908   0.057   4.221   8.724  0.0641  0.2724 -0.0924
 1041POPI   C1B14909  -0.420   4.691   7.352 -0.0662 -0.0317 -0.1725
 1041POPI   C2B14910  -0.747   4.754   7.584  0.1818 -0.0806 -0.0371
 1041POPI   C3B14911  -0.695   4.815   7.957  0.0556  0.1173  0.2046
 1041POPI   C4B14912  -0.718   4.766   8.358 -0.0502  0.1947 -0.2300
 1042POPI    C114913   4.891  12.100   6.275  0.2499 -0.0011  0.1444
 1042POPI    C214914   4.615  12.329   6.098  0.0631 -0.1107  0.2903
 1042POPI    C314915   4.882  12.131   5.876  0.1961  0.2068  0.1602
 1042POPI   PO414916   4.751  11.990   6.444  0.0581  0.0711 -0.0252
 1042POPI   GL114917   4.741  12.047   6.829  0.0179  0.4834 -0.2220
 1042POPI   GL214918   4.492  11.826   6.885  0.1055 -0.0868 -0.0359
 1042POPI   C1A14919   4.885  12.101   7.187  0.0619 -0.1437  0.0543
 1042POPI   D2A14920   4.816  11.958   7.538  0.3591  0.1117  0.1237
 1042POPI   C3A14921   4.763  12.040   7.991 -0.0826 -0.0657 -0.0128
 1042POPI   C4A14922   4.825  12.226   8.410 -0.4677 -0.1711 -0.2677
 1042POPI   C1B14923   4.466  11.677   7.284  0.1659  0.0580  0.0039
 1042POPI   C2B14924   4.421  11.761   7.716  0.0342  0.2525  0.0227
 1042POPI   C3B14925   4.340  11.826   8.079  0.0371 -0.0621 -0.0400
 1042POPI   C4B14926   4.300  11.997   8.534 -0.2661  0.2736 -0.1711
 1043POPI    C114927   5.744   5.495   6.380  0.0015  0.0291 -0.0783
 1043POPI    C214928   6.058   5.518   6.133  0.0026 -0.0769 -0.0867
 1043POPI    C314929   5.697   5.419   5.991 -0.1441  0.5340 -0.1672
 1043POPI   PO414930   5.918   5.261   6.636 -0.1864  0.2259  0.1936
 1043POPI   GL114931   5.863   5.103   7.005 -0.2221 -0.1170 -0.1872
 1043POPI   GL214932   6.168   4.953   6.953  0.0498  0.3082  0.1242
 1043POPI   C1A14933   5.777   5.033   7.489 -0.0783 -0.0947 -0.1760
 1043POPI   D2A14934   5.632   5.022   7.889  0.2664  0.0785  0.1543
 1043POPI   C3A14935   5.871   5.066   8.217  0.2429 -0.0503  0.1278
 1043POPI   C4A14936   5.990   5.085   8.703 -0.3834 -0.1464  0.3200
 1043POPI   C1B14937   6.212   4.865   7.353  0.4138 -0.2531 -0.2474
 1043POPI   C2B14938   6.145   4.846   7.814  0.1317 -0.1447  0.2382
 1043POPI   C3B14939   6.188   4.649   8.218  0.1620 -0.0618  0.0821
 1043POPI   C4B14940   6.130   4.504   8.639 -0.1065 -0.2138 -0.0144
 1044POPI    C114941   1.023   9.455   6.447  0.1998  0.0619  0.0802
 1044POPI    C214942   1.256   9.746   6.304  0.1194  0.1025  0.0311
 1044POPI    C314943   0.971   9.586   6.073  0.1598 -0.0116  0.0598
 1044POPI   PO414944   1.128   9.383   6.671 -0.0597 -0.2279  0.1447
 1044POPI   GL114945   0.976   9.554   7.028 -0.0804  0.0359 -0.0568
 1044POPI   GL214946   0.727   9.584   6.801  0.0391  0.1953 -0.1186
 1044POPI   C1A14947   1.031   9.556   7.479 -0.1647  0.1337 -0.2948
 1044POPI   D2A14948   1.202   9.598   7.860 -0.0508  0.1240 -0.1404
 1044POPI   C3A14949   1.064   9.439   8.218  0.0114 -0.0034 -0.2797
 1044POPI   C4A14950   1.026   9.589   8.668  0.1369 -0.2283  0.0711
 1044POPI   C1B14951   0.562   9.766   7.084 -0.1373  0.2967  0.0266
 1044POPI   C2B14952   0.551   9.756   7.468  0.0846 -0.1152 -0.1647
 1044POPI   C3B14953   0.731   9.718   7.900 -0.2494 -0.4469  0.0095
 1044POPI   C4B14954   0.619   9.761   8.310 -0.0835  0.0502 -0.0463
 1045POPI    C114955  13.243   0.915   5.904  0.1707  0.2395 -0.0385
 1045POPI    C214956  12.890   1.075   5.808  0.0731  0.1721  0.1993
 1045POPI    C314957  13.184   1.060   5.537 -0.2425 -0.1564 -0.1371
 1045POPI   PO414958  13.255   0.880   6.149 -0.1764 -0.0067  0.1526
 1045POPI   GL114959  13.206   0.894   6.585  0.1688 -0.0953 -0.0728
 1045POPI   GL214960  12.962   0.862   6.548 -0.4278 -0.1815  0.0852
 1045POPI   C1A14961  13.295   0.847   7.080  0.0436 -0.2349  0.4223
 1045POPI   D2A14962  13.395   0.863   7.562 -0.0187 -0.0189 -0.0010
 1045POPI   C3A14963  13.359   0.968   7.997  0.0347 -0.1084  0.0872
 1045POPI   C4A14964  13.596   1.150   8.347  0.0014 -0.2650 -0.1591
 1045POPI   C1B14965  12.881   1.134   6.971 -0.0544 -0.0216 -0.1430
 1045POPI   C2B14966  12.933   1.106   7.406  0.0228  0.0395  0.0972
 1045POPI   C3B14967  12.815   1.247   7.807 -0.3031  0.0799 -0.1862
 1045POPI   C4B14968  12.785   1.183   8.284 -0.3670 -0.3059 -0.0521
 1046POPI    C114969  14.359   7.927   6.584  0.0532  0.1222 -0.2284
 1046POPI    C214970  14.295   7.832   6.201 -0.0217 -0.0643 -0.1705
 1046POPI    C314971  14.013   8.026   6.408 -0.0704 -0.1581 -0.1483
 1046POPI   PO414972  14.641   7.742   6.643  0.0564 -0.3697  0.1636
 1046POPI   GL114973  14.801   7.729   7.082 -0.3470  0.3422 -0.1994
 1046POPI   GL214974  15.013   7.473   7.148 -0.1664  0.0145  0.1942
 1046POPI   C1A14975  14.675   7.611   7.490 -0.3167  0.5736  0.1239
 1046POPI   D2A14976  14.715   7.701   7.944 -0.1457 -0.0472  0.0660
 1046POPI   C3A14977  14.613   7.666   8.421 -0.0192 -0.2537  0.1834
 1046POPI   C4A14978  14.285   7.551   8.785  0.2952  0.0390  0.3240
 1046POPI   C1B14979  15.075   7.376   7.663 -0.1150 -0.0127  0.1088
 1046POPI   C2B14980  15.133   7.309   8.109  0.0188  0.0311  0.0704
 1046POPI   C3B14981  15.154   7.449   8.544  0.1902  0.2252  0.2019
 1046POPI   C4B14982  15.163   7.777   8.787  0.0152  0.0433 -0.3596
 1047POPI    C114983   0.119   1.558   6.094  0.1427 -0.1739 -0.0217
 1047POPI    C214984   0.006   1.920   5.968  0.2018 -0.1442  0.0100
 1047POPI    C314985  -0.266   1.630   6.011  0.0875  0.0095  0.3681
 1047POPI   PO414986   0.166   1.615   6.342 -0.0250 -0.0898 -0.0561
 1047POPI   GL114987   0.084   1.451   6.627  0.0267  0.4096 -0.1067
 1047POPI   GL214988  -0.257   1.400   6.787  0.0352  0.0243  0.1561
 1047POPI   C1A14989   0.319   1.344   6.982 -0.3177 -0.2461 -0.0538
 1047POPI   D2A14990   0.430   1.273   7.326 -0.0674  0.1561  0.4243
 1047POPI   C3A14991   0.411   1.301   7.806  0.2672  0.0108 -0.2462
 1047POPI   C4A14992   0.199   1.467   8.173  0.0298 -0.2062  0.2043
 1047POPI   C1B14993  -0.372   1.408   7.166 -0.3042 -0.2349 -0.2512
 1047POPI   C2B14994  -0.521   1.419   7.571  0.0822 -0.0275 -0.3711
 1047POPI   C3B14995  -0.541   1.438   8.034 -0.0457 -0.0189  0.0552
 1047POPI   C4B14996  -0.279   1.391   8.359  0.0522 -0.0306 -0.2511
 1048POPI    C114997   1.604   3.491   6.509 -0.1215  0.1190  0.1621
 1048POPI    C214998   1.441   3.269   6.219  0.0682  0.1535  0.0266
 1048POPI    C314999   1.455   3.666   6.181 -0.1102  0.1767  0.1877
 1048POPI   PO415000   1.578   3.465   6.727  0.1216  0.2981  0.0939
 1048POPI   GL115001   1.816   3.296   7.158 -0.1103  0.2828 -0.3127
 1048POPI   GL215002   2.014   3.028   7.216 -0.0775 -0.2001 -0.1973
 1048POPI   C1A15003   1.975   3.443   7.593  0.2377  0.0662  0.1778
 1048POPI   D2A15004   1.974   3.501   8.011 -0.1924 -0.0438  0.2405
 1048POPI   C3A15005   1.830   3.510   8.269 -0.1236 -0.2928 -0.1608
 1048POPI   C4A15006   1.869   3.448   8.691  0.4693 -0.0407 -0.3043
 1048POPI   C1B15007   2.313   3.116   7.505 -0.2074  0.1347 -0.1874
 1048POPI   C2B15008   2.447   3.248   7.896  0.2489  0.2922 -0.0195
 1048POPI   C3B15009   2.318   3.279   8.321  0.2059 -0.0248 -0.0253
 1048POPI   C4B15010   2.335   3.251   8.773  0.2266  0.0196  0.2127
 1049POPI    C115011  11.662   9.212   6.190 -0.1983 -0.0342  0.0452
 1049POPI    C215012  12.056   9.192   6.121 -0.2329 -0.1606 -0.1243
 1049POPI    C315013  11.809   8.933   5.944 -0.3608 -0.2875  0.2307
 1049POPI   PO415014  11.546   9.173   6.408 -0.1599  0.2354  0.0838
 1049POPI   GL115015  11.613   9.270   6.878 -0.0594 -0.0840 -0.0646
 1049POPI   GL215016  11.345   9.303   6.942  0.0337 -0.0781 -0.1098
 1049POPI   C1A15017  11.611   9.128   7.336 -0.2522  0.0464  0.0168
 1049POPI   D2A15018  11.621   9.122   7.727  0.2394 -0.0485 -0.0812
 1049POPI   C3A15019  11.740   9.080   8.185 -0.1145 -0.1416 -0.1752
 1049POPI   C4A15020  11.584   9.151   8.569 -0.0177 -0.1219  0.0448
 1049POPI   C1B15021  11.200   9.410   7.341  0.1639 -0.1629 -0.0103
 1049POPI   C2B15022  11.154   9.470   7.753  0.1537 -0.2300  0.1271
 1049POPI   C3B15023  11.240   9.487   8.161 -0.1843  0.1434  0.0754
 1049POPI   C4B15024  11.144   9.397   8.556 -0.0533  0.0165 -0.0013
 1050POPI    C115025   4.880   0.266   6.411  0.0417  0.1654 -0.0965
 1050POPI    C215026   4.849   0.651   6.515 -0.1960  0.1657 -0.1632
 1050POPI    C315027   4.558   0.477   6.303 -0.0297 -0.0167 -0.2445
 1050POPI   PO415028   4.879   0.147   6.659  0.0754 -0.3669  0.1036
 1050POPI   GL115029   4.863   0.401   6.994  0.2942 -0.2475 -0.3076
 1050POPI   GL215030   5.067   0.596   6.997  0.1741 -0.0412  0.0115
 1050POPI   C1A15031   4.907   0.339   7.482 -0.1242  0.1110  0.1382
 1050POPI   D2A15032   4.946   0.335   7.904 -0.1312  0.0006 -0.1406
 1050POPI   C3A15033   4.951   0.208   8.282 -0.3873 -0.1619  0.2348
 1050POPI   C4A15034   5.174   0.217   8.659 -0.0038 -0.0285  0.0280
 1050POPI   C1B15035   4.984   0.808   7.450 -0.2408 -0.0990 -0.0231
 1050POPI   C2B15036   4.969   0.859   7.831  0.0249 -0.2606 -0.0264
 1050POPI   C3B15037   5.039   0.852   8.223  0.0042 -0.0111  0.1003
 1050POPI   C4B15038   5.143   0.767   8.665 -0.0086  0.0061  0.1921
 1051POPI    C115039   3.454  14.531   6.400 -0.0599 -0.0413 -0.1406
 1051POPI    C215040   3.822  14.438   6.275  0.0314  0.1950 -0.0520
 1051POPI    C315041   3.506  14.356   6.044  0.1477  0.0838 -0.1730
 1051POPI   PO415042   3.416  14.459   6.633 -0.0522  0.1985 -0.0775
 1051POPI   GL115043   3.404  14.625   7.021  0.0609 -0.1860 -0.1443
 1051POPI   GL215044   3.215  14.787   7.293 -0.1120  0.2140  0.2908
 1051POPI   C1A15045   3.254  14.292   7.335 -0.0833  0.1566 -0.0972
 1051POPI   D2A15046   2.995  14.190   7.576  0.0404 -0.0183  0.0717
 1051POPI   C3A15047   2.831  14.082   7.936  0.1778 -0.0204 -0.1542
 1051POPI   C4A15048   2.714  13.975   8.368  0.1482  0.0638  0.2227
 1051POPI   C1B15049   3.198  14.722   7.755  0.0574 -0.2682 -0.2855
 1051POPI   C2B15050   3.104  14.778   8.264 -0.1341 -0.1012  0.4918
 1051POPI   C3B15051   3.209  14.582   8.595 -0.1562  0.1009  0.2530
 1051POPI   C4B15052   3.487  14.492   8.866 -0.0429  0.1226  0.2508
 1052POPI    C115053   7.453   3.152   6.107 -0.1552  0.1988 -0.1576
 1052POPI    C215054   7.297   2.785   6.076  0.0216  0.1232 -0.1683
 1052POPI    C315055   7.057   3.102   6.125 -0.1197 -0.0186  0.0774
 1052POPI   PO415056   7.554   3.254   6.329 -0.0650  0.2457  0.0606
 1052POPI   GL115057   7.799   3.374   6.726  0.2475 -0.2117 -0.2916
 1052POPI   GL215058   8.017   3.357   6.634  0.0539 -0.1283 -0.5433
 1052POPI   C1A15059   7.583   3.481   7.055 -0.1115 -0.0291  0.0070
 1052POPI   D2A15060   7.559   3.469   7.421 -0.0326 -0.4548 -0.0247
 1052POPI   C3A15061   7.606   3.539   7.830 -0.2313  0.0238 -0.2716
 1052POPI   C4A15062   7.559   3.481   8.363  0.3035  0.0513  0.1872
 1052POPI   C1B15063   7.965   3.185   7.144  0.2592  0.0958  0.2525
 1052POPI   C2B15064   8.062   3.282   7.514 -0.0018  0.3626  0.1613
 1052POPI   C3B15065   8.063   3.302   7.957 -0.0060  0.0811  0.0728
 1052POPI   C4B15066   7.952   3.184   8.389 -0.2308  0.0532 -0.1258
 1053POPI    C115067  16.236  15.236   5.886  0.0215  0.0788  0.0286
 1053POPI    C215068  16.593  15.191   5.712  0.0200  0.2554 -0.0208
 1053POPI    C315069  16.260  15.170   5.493 -0.0118 -0.1144  0.0580
 1053POPI   PO415070  16.266  15.219   6.136 -0.1747 -0.1928 -0.0465
 1053POPI   GL115071  16.372  15.501   6.496  0.1734 -0.1150  0.0228
 1053POPI   GL215072  16.413  15.769   6.677 -0.0514  0.1646  0.1017
 1053POPI   C1A15073  16.382  15.207   6.806  0.0507 -0.2861 -0.0394
 1053POPI   D2A15074  16.482  15.279   7.291  0.0325 -0.0153 -0.0995
 1053POPI   C3A15075  16.376  15.234   7.642  0.2611 -0.0516  0.3368
 1053POPI   C4A15076  16.282  15.418   8.023 -0.1071 -0.1153 -0.1373
 1053POPI   C1B15077  16.422  15.786   7.224  0.1090  0.1813  0.1183
 1053POPI   C2B15078  16.354  15.803   7.696  0.1901  0.2065 -0.1630
 1053POPI   C3B15079  16.334  15.948   8.071 -0.0328 -0.3029 -0.4405
 1053POPI   C4B15080  16.442  15.884   8.533 -0.0133 -0.3395  0.0275
 1054POPI    C115081   7.998  15.999   6.563 -0.0390 -0.0787 -0.1369
 1054POPI    C215082   8.262  15.703   6.509 -0.1816 -0.2916  0.2843
 1054POPI    C315083   7.908  15.693   6.322  0.0099 -0.1218 -0.1007
 1054POPI   PO415084   8.157  16.186   6.664 -0.1436  0.0434  0.0794
 1054POPI   GL115085   8.390  16.028   6.997  0.1087  0.1898 -0.2362
 1054POPI   GL215086   8.300  15.764   6.983  0.3143  0.5947 -0.0068
 1054POPI   C1A15087   8.470  16.359   7.289  0.1760 -0.1111  0.0336
 1054POPI   D2A15088   8.651  16.482   7.750 -0.3105  0.2815  0.1832
 1054POPI   C3A15089   8.787  16.550   8.111  0.2094 -0.1154 -0.1470
 1054POPI   C4A15090   8.848  16.745   8.562 -0.1855 -0.0330  0.0473
 1054POPI   C1B15091   8.185  15.679   7.426  0.2391 -0.0127  0.4274
 1054POPI   C2B15092   8.364  15.629   7.797 -0.0254 -0.0381  0.0123
 1054POPI   C3B15093   8.334  15.821   8.244  0.1422 -0.1721 -0.0351
 1054POPI   C4B15094   8.439  15.882   8.699  0.2654  0.3575  0.1976
 1055POPI    C115095   5.598   7.708   6.522 -0.0669 -0.3418  0.0297
 1055POPI    C215096   5.496   7.827   6.154  0.0723 -0.2995  0.0040
 1055POPI    C315097   5.221   7.666   6.395 -0.1350  0.1223  0.0590
 1055POPI   PO415098   5.684   7.881   6.632  0.0720 -0.0320  0.2728
 1055POPI   GL115099   5.834   7.815   7.010 -0.1735 -0.0680  0.1788
 1055POPI   GL215100   5.661   8.021   7.181 -0.0238  0.3813  0.2476
 1055POPI   C1A15101   6.092   7.802   7.320 -0.2272 -0.0230 -0.1423
 1055POPI   D2A15102   6.073   7.753   7.774 -0.1998 -0.0538 -0.2163
 1055POPI   C3A15103   6.158   7.929   8.175 -0.0386  0.2832 -0.1093
 1055POPI   C4A15104   6.129   7.992   8.652 -0.1350  0.1589 -0.0534
 1055POPI   C1B15105   5.635   8.034   7.610  0.2544 -0.4003 -0.1224
 1055POPI   C2B15106   5.675   8.092   8.084 -0.1332  0.1093  0.1657
 1055POPI   C3B15107   5.670   8.279   8.541 -0.0711  0.3409  0.0901
 1055POPI   C4B15108   5.659   8.319   8.925 -0.0468  0.1636  0.0104
 1056POPI    C115109   4.245  12.947   6.169  0.1705  0.0801  0.0660
 1056POPI    C215110   4.282  13.088   5.796  0.0630  0.1700  0.0886
 1056POPI    C315111   4.529  12.802   5.928  0.1323  0.1721 -0.0353
 1056POPI   PO415112   4.309  13.128   6.353 -0.0525 -0.3560 -0.1906
 1056POPI   GL115113   4.522  13.128   6.726 -0.1394  0.2279  0.1766
 1056POPI   GL215114   4.779  13.155   6.855  0.2638 -0.1035 -0.3937
 1056POPI   C1A15115   4.248  12.888   7.139 -0.0098 -0.1142  0.0650
 1056POPI   D2A15116   4.328  12.664   7.547  0.2015  0.1827  0.0301
 1056POPI   C3A15117   4.228  12.813   7.912  0.0108 -0.1878  0.0078
 1056POPI   C4A15118   4.274  12.969   8.360  0.0143  0.1040  0.1896
 1056POPI   C1B15119   4.693  13.046   7.324  0.0482  0.0681  0.0420
 1056POPI   C2B15120   4.631  13.025   7.703 -0.1160 -0.0195  0.1462
 1056POPI   C3B15121   4.624  13.220   8.056  0.1207  0.0107 -0.1016
 1056POPI   C4B15122   4.644  13.443   8.382 -0.0489  0.0033 -0.1715
 1057POPI    C115123   2.099   1.263   6.165  0.1063  0.3969 -0.0420
 1057POPI    C215124   2.049   1.050   5.830  0.0135  0.0332  0.1973
 1057POPI    C315125   2.001   1.447   5.824  0.1603  0.0493 -0.2497
 1057POPI   PO415126   1.936   1.203   6.392 -0.0277  0.1287  0.0196
 1057POPI   GL115127   1.779   1.282   6.746  0.0233  0.1464 -0.0238
 1057POPI   GL215128   1.389   1.155   6.913  0.0542  0.1605  0.0159
 1057POPI   C1A15129   1.778   1.494   7.106  0.1837  0.1457 -0.1498
 1057POPI   D2A15130   1.921   1.480   7.521  0.1077 -0.1501  0.0397
 1057POPI   C3A15131   1.825   1.422   7.930 -0.0595  0.0718 -0.0425
 1057POPI   C4A15132   1.938   1.495   8.274  0.1548 -0.0260 -0.1497
 1057POPI   C1B15133   1.313   1.306   7.241  0.1266  0.0309  0.2344
 1057POPI   C2B15134   1.385   1.260   7.666 -0.0743 -0.4674 -0.0989
 1057POPI   C3B15135   1.286   1.190   8.094 -0.0468  0.0478 -0.0640
 1057POPI   C4B15136   1.054   1.212   8.400 -0.1359 -0.2620 -0.1210
 1058POPI    C115137  15.520  10.756   6.383  0.0623  0.2947 -0.2968
 1058POPI    C215138  15.395  10.387   6.288 -0.0450  0.2454  0.0259
 1058POPI    C315139  15.427  10.666   6.004 -0.2714  0.0773 -0.1687
 1058POPI   PO415140  15.699  10.726   6.529 -0.1305  0.1058 -0.3938
 1058POPI   GL115141  15.694  10.662   6.967 -0.1865  0.2536 -0.0752
 1058POPI   GL215142  15.521  10.511   7.205  0.1527 -0.1654  0.2926
 1058POPI   C1A15143  16.019  10.785   7.347 -0.2854  0.0344  0.3706
 1058POPI   D2A15144  16.269  10.832   7.625  0.0579  0.1594  0.0510
 1058POPI   C3A15145  16.301  10.930   8.052  0.1317 -0.1667 -0.0631
 1058POPI   C4A15146  16.183  11.109   8.436  0.2772 -0.1452 -0.1923
 1058POPI   C1B15147  15.710  10.551   7.649  0.0167  0.1261  0.1903
 1058POPI   C2B15148  15.890  10.723   7.966  0.0703 -0.2977  0.1091
 1058POPI   C3B15149  15.889  10.706   8.428 -0.1732 -0.2611 -0.0373
 1058POPI   C4B15150  15.672  10.549   8.829 -0.1250  0.0599  0.1201
 1059POPI    C115151   1.981   4.387   6.621 -0.0376  0.0323 -0.1346
 1059POPI    C215152   1.726   4.498   6.334  0.0425  0.1030 -0.1791
 1059POPI    C315153   2.099   4.388   6.239  0.0807  0.1618 -0.0988
 1059POPI   PO415154   1.854   4.685   6.812 -0.0789 -0.0345 -0.0727
 1059POPI   GL115155   1.782   4.827   7.200 -0.0221 -0.0617 -0.0918
 1059POPI   GL215156   1.891   4.989   7.377  0.2698  0.0418 -0.0146
 1059POPI   C1A15157   1.452   4.762   7.562 -0.3720  0.1581 -0.0273
 1059POPI   D2A15158   1.409   4.749   7.978  0.0507  0.1185  0.1118
 1059POPI   C3A15159   1.595   4.787   8.448 -0.0371  0.0692  0.0281
 1059POPI   C4A15160   1.575   4.831   8.924 -0.1985  0.1858  0.0851
 1059POPI   C1B15161   1.913   4.983   7.805  0.2487  0.1354 -0.2025
 1059POPI   C2B15162   1.963   5.071   8.264  0.0159 -0.2258 -0.0467
 1059POPI   C3B15163   1.968   5.044   8.677  0.1418 -0.2371 -0.0171
 1059POPI   C4B15164   1.995   5.084   9.067  0.1465 -0.0627  0.2491
 1060POPI    C115165  16.939   6.614   6.226 -0.1635 -0.0447  0.0497
 1060POPI    C215166  17.097   6.720   5.873  0.0165 -0.1849  0.0863
 1060POPI    C315167  16.716   6.811   5.958 -0.0019 -0.0745 -0.1089
 1060POPI   PO415168  17.098   6.722   6.481  0.3637 -0.1355  0.1989
 1060POPI   GL115169  17.050   6.875   6.873 -0.1586  0.0216  0.0817
 1060POPI   GL215170  16.824   7.051   7.031 -0.0921  0.1281  0.0489
 1060POPI   C1A15171  17.336   6.883   7.262  0.1848 -0.1341  0.0337
 1060POPI   D2A15172  17.352   6.833   7.661 -0.0449 -0.1251  0.1610
 1060POPI   C3A15173  17.420   6.775   8.090  0.0049 -0.2218  0.2606
 1060POPI   C4A15174  17.421   6.717   8.550 -0.1336  0.0148  0.0966
 1060POPI   C1B15175  16.811   7.059   7.484  0.0474  0.1293 -0.1662
 1060POPI   C2B15176  16.818   7.040   7.862 -0.2011  0.1076  0.2905
 1060POPI   C3B15177  16.928   7.017   8.308  0.0875  0.0921 -0.0904
 1060POPI   C4B15178  16.929   6.942   8.735 -0.1149 -0.2236  0.3562
 1061POPI    C115179   2.797  12.104   6.149 -0.0230 -0.0512 -0.3156
 1061POPI    C215180   2.955  11.738   6.120  0.0709 -0.0330 -0.0601
 1061POPI    C315181   3.054  12.020   5.855 -0.0498 -0.2079 -0.2956
 1061POPI   PO415182   2.810  12.162   6.368 -0.1672 -0.1256 -0.2559
 1061POPI   GL115183   2.735  12.519   6.619 -0.1548  0.1886  0.0509
 1061POPI   GL215184   2.936  12.357   6.806  0.2801 -0.1123 -0.1153
 1061POPI   C1A15185   2.548  12.533   7.032 -0.1029 -0.2643 -0.0517
 1061POPI   D2A15186   2.243  12.565   7.350  0.1616 -0.0960  0.1143
 1061POPI   C3A15187   2.392  12.685   7.691  0.2376  0.0008  0.2803
 1061POPI   C4A15188   2.488  12.819   8.063  0.3845  0.0080 -0.0091
 1061POPI   C1B15189   2.974  12.392   7.221  0.3300 -0.1545 -0.1198
 1061POPI   C2B15190   2.974  12.367   7.707 -0.0641  0.0589 -0.2065
 1061POPI   C3B15191   3.018  12.465   8.068  0.1702  0.2405  0.0511
 1061POPI   C4B15192   2.780  12.601   8.430  0.1001 -0.0502 -0.0601
 1062POPI    C115193   5.593  11.849   6.247 -0.0982 -0.2183  0.0448
 1062POPI    C215194   5.382  12.092   6.010  0.2742  0.2167  0.1457
 1062POPI    C315195   5.651  11.842   5.851  0.1013  0.0801  0.0653
 1062POPI   PO415196   5.425  11.819   6.399 -0.1963 -0.1241 -0.0164
 1062POPI   GL115197   5.461  11.615   6.840 -0.1826 -0.2672  0.2644
 1062POPI   GL215198   5.720  11.661   7.065 -0.1473  0.0567  0.4932
 1062POPI   C1A15199   5.283  11.739   7.246  0.3409  0.1689 -0.3072
 1062POPI   D2A15200   5.369  11.722   7.625 -0.0490  0.0623 -0.0797
 1062POPI   C3A15201   5.212  11.725   7.985  0.0701  0.5732 -0.1044
 1062POPI   C4A15202   4.920  11.712   8.318  0.2530  0.0522  0.1191
 1062POPI   C1B15203   5.839  11.596   7.351  0.0199  0.0926  0.0301
 1062POPI   C2B15204   5.911  11.708   7.733  0.1692 -0.2503  0.0877
 1062POPI   C3B15205   5.994  11.856   8.182  0.1880  0.2669 -0.1110
 1062POPI   C4B15206   5.877  11.890   8.592  0.2050 -0.0988  0.2333
 1063POPI    C115207  13.877  16.496   5.899 -0.0189  0.0458  0.0649
 1063POPI    C215208  14.212  16.448   5.685 -0.0991 -0.0566 -0.0389
 1063POPI    C315209  13.946  16.150   5.710 -0.1253 -0.0191  0.1442
 1063POPI   PO415210  13.861  16.657   6.147 -0.0254  0.1848  0.0544
 1063POPI   GL115211  14.191  16.818   6.363  0.0713  0.1894  0.1218
 1063POPI   GL215212  14.342  17.167   6.537 -0.1210 -0.2480  0.2544
 1063POPI   C1A15213  14.281  16.838   6.870 -0.3527 -0.0602 -0.0505
 1063POPI   D2A15214  14.260  16.717   7.258 -0.2313 -0.1802  0.3077
 1063POPI   C3A15215  14.183  16.817   7.717  0.2253 -0.0224  0.1340
 1063POPI   C4A15216  14.122  16.807   8.167 -0.1421  0.2197 -0.2879
 1063POPI   C1B15217  14.255  17.366   6.911  0.1748 -0.0768  0.0156
 1063POPI   C2B15218  14.258  17.315   7.419 -0.1144 -0.0431  0.1969
 1063POPI   C3B15219  14.198  17.389   7.856  0.0798  0.2124  0.1392
 1063POPI   C4B15220  14.212  17.392   8.298 -0.0626  0.2357  0.0974
 1064POPI    C115221  16.807   4.992   6.515  0.1685  0.1260  0.0339
 1064POPI    C215222  16.894   5.269   6.240  0.2314  0.0160 -0.0576
 1064POPI    C315223  16.700   4.935   6.134 -0.1134  0.1598  0.1059
 1064POPI   PO415224  17.031   4.973   6.768 -0.0370  0.1522  0.1128
 1064POPI   GL115225  17.355   5.012   6.918 -0.1799 -0.0544 -0.3761
 1064POPI   GL215226  17.557   5.200   7.220 -0.1291  0.1142 -0.0088
 1064POPI   C1A15227  17.183   4.945   7.352 -0.4958  0.0792 -0.2017
 1064POPI   D2A15228  17.093   4.954   7.691 -0.1171 -0.1558  0.0902
 1064POPI   C3A15229  16.902   4.731   7.856  0.0690 -0.1140 -0.1839
 1064POPI   C4A15230  16.796   4.700   8.321  0.2607 -0.0630  0.3201
 1064POPI   C1B15231  17.575   5.252   7.640  0.1502  0.2986  0.0570
 1064POPI   C2B15232  17.503   5.223   7.976  0.0851 -0.1984 -0.0390
 1064POPI   C3B15233  17.683   5.137   8.395 -0.1469  0.2440 -0.2518
 1064POPI   C4B15234  17.657   5.172   8.804  0.0970  0.2446 -0.0561
 1065POPI    C115235  11.767   8.651   6.361 -0.0278 -0.2325  0.1346
 1065POPI    C215236  11.439   8.706   6.583 -0.0877 -0.0670  0.0076
 1065POPI    C315237  11.417   8.732   6.184  0.0875 -0.0161  0.0005
 1065POPI   PO415238  11.837   8.485   6.445 -0.1804 -0.0195  0.2004
 1065POPI   GL115239  11.986   8.524   6.821 -0.1839  0.1501 -0.0340
 1065POPI   GL215240  11.725   8.750   6.972  0.0954 -0.0542 -0.0172
 1065POPI   C1A15241  11.987   8.310   7.213 -0.2248 -0.2139  0.2157
 1065POPI   D2A15242  11.968   8.283   7.594  0.0127 -0.0004  0.1094
 1065POPI   C3A15243  11.862   8.191   7.997 -0.1768 -0.1805  0.2048
 1065POPI   C4A15244  11.849   8.313   8.287 -0.0498 -0.1369  0.3013
 1065POPI   C1B15245  11.588   8.584   7.223 -0.0800  0.1877 -0.0605
 1065POPI   C2B15246  11.518   8.528   7.542  0.0997  0.1252 -0.1678
 1065POPI   C3B15247  11.620   8.682   7.980  0.2825  0.0925 -0.0448
 1065POPI   C4B15248  11.581   8.696   8.452 -0.0374  0.0347  0.1141
 1066POPI    C115249  16.023   3.233   6.502  0.1444  0.0019 -0.0845
 1066POPI    C215250  16.167   3.375   6.156  0.2875  0.2419  0.0702
 1066POPI    C315251  15.779   3.284   6.189  0.2824  0.1708 -0.1672
 1066POPI   PO415252  16.074   3.368   6.700  0.1170  0.0483  0.0606
 1066POPI   GL115253  15.884   3.686   7.007 -0.0224  0.1348 -0.2559
 1066POPI   GL215254  16.061   3.821   6.950  0.1700  0.1341 -0.2168
 1066POPI   C1A15255  15.853   3.637   7.411 -0.0820 -0.1666 -0.0762
 1066POPI   D2A15256  15.822   3.543   7.764 -0.0665 -0.0298 -0.1581
 1066POPI   C3A15257  15.650   3.515   8.238 -0.0799 -0.0377 -0.0274
 1066POPI   C4A15258  15.703   3.443   8.645  0.0820 -0.0526 -0.1113
 1066POPI   C1B15259  16.231   3.998   7.292  0.0085  0.0727 -0.1175
 1066POPI   C2B15260  16.111   3.940   7.731  0.0362 -0.1917  0.1029
 1066POPI   C3B15261  15.947   3.925   8.124 -0.0952  0.1633  0.1621
 1066POPI   C4B15262  15.803   4.036   8.556  0.2370  0.0567  0.3087
 1067POPI    C115263  10.848  15.485   5.961  0.2173  0.1024  0.2224
 1067POPI    C215264  10.903  15.098   6.046  0.1637  0.0762  0.1399
 1067POPI    C315265  11.147  15.282   5.789  0.0087  0.0190 -0.0509
 1067POPI   PO415266  10.903  15.645   6.239 -0.1462  0.2563 -0.0463
 1067POPI   GL115267  10.919  15.712   6.715 -0.1397  0.1186  0.1142
 1067POPI   GL215268  11.227  15.747   6.768  0.4389 -0.1502 -0.3862
 1067POPI   C1A15269  10.862  15.728   7.181 -0.2573  0.3434  0.0375
 1067POPI   D2A15270  10.758  15.772   7.532  0.2418 -0.2481  0.0961
 1067POPI   C3A15271  10.957  15.694   7.894  0.1687 -0.0203  0.1034
 1067POPI   C4A15272  11.090  15.649   8.310 -0.3096  0.0556 -0.1953
 1067POPI   C1B15273  11.481  15.899   7.070 -0.1642 -0.0944 -0.0307
 1067POPI   C2B15274  11.511  15.967   7.502 -0.2405 -0.2216  0.0422
 1067POPI   C3B15275  11.399  15.894   7.932 -0.1145 -0.0553 -0.1355
 1067POPI   C4B15276  11.556  15.902   8.413  0.1950 -0.0626  0.1444
 1068POPI    C115277  13.164   3.445   5.903  0.0383 -0.1231  0.3150
 1068POPI    C215278  13.390   3.147   6.046  0.3541  0.1643  0.4277
 1068POPI    C315279  13.530   3.383   5.755 -0.0352 -0.0145  0.0840
 1068POPI   PO415280  13.111   3.655   6.177 -0.2761  0.1415 -0.0333
 1068POPI   GL115281  13.249   3.775   6.491  0.0545 -0.1381  0.0014
 1068POPI   GL215282  13.269   3.445   6.593 -0.1787  0.0762  0.0763
 1068POPI   C1A15283  13.170   3.867   6.909  0.4733  0.0513  0.2027
 1068POPI   D2A15284  13.049   3.741   7.309 -0.1521 -0.2951 -0.1513
 1068POPI   C3A15285  13.077   3.798   7.747  0.2029  0.2784 -0.2880
 1068POPI   C4A15286  12.967   3.741   8.132 -0.0348  0.1226  0.1703
 1068POPI   C1B15287  13.032   3.369   6.909  0.1951 -0.1489 -0.0595
 1068POPI   C2B15288  13.050   3.265   7.347 -0.2742 -0.1890 -0.0761
 1068POPI   C3B15289  12.937   3.225   7.802 -0.2589 -0.1215 -0.0695
 1068POPI   C4B15290  12.994   3.276   8.164 -0.2434  0.1793 -0.0246
 1069POPI    C115291   7.713  15.189   6.411  0.1516 -0.1485 -0.0317
 1069POPI    C215292   7.628  15.124   6.796 -0.0601  0.0593 -0.0412
 1069POPI    C315293   7.451  14.904   6.512 -0.3637  0.3037 -0.0469
 1069POPI   PO415294   8.006  15.188   6.405 -0.3868  0.3658 -0.0886
 1069POPI   GL115295   8.189  15.255   6.766 -0.1057 -0.1013  0.0545
 1069POPI   GL215296   8.348  15.200   7.012  0.1816 -0.2301 -0.2434
 1069POPI   C1A15297   7.901  15.480   7.052 -0.1956  0.0822 -0.1155
 1069POPI   D2A15298   7.704  15.624   7.327  0.0985  0.1201 -0.0205
 1069POPI   C3A15299   7.649  15.684   7.712  0.4039  0.0251 -0.0563
 1069POPI   C4A15300   7.938  15.684   8.021 -0.0142  0.0847 -0.4435
 1069POPI   C1B15301   8.501  15.173   7.426 -0.3549  0.0213  0.1745
 1069POPI   C2B15302   8.590  15.127   7.823  0.2777 -0.2005 -0.1423
 1069POPI   C3B15303   8.582  15.026   8.254 -0.0681 -0.2393  0.0920
 1069POPI   C4B15304   8.610  15.011   8.665  0.1274 -0.0051 -0.0563
 1070POPI    C115305  15.617   0.291   6.004  0.0079 -0.2623  0.0645
 1070POPI    C215306  15.857   0.230   5.690 -0.0268 -0.0116 -0.0131
 1070POPI    C315307  15.552   0.486   5.661 -0.0021  0.0495  0.2402
 1070POPI   PO415308  15.744   0.319   6.210  0.1126  0.0314  0.3877
 1070POPI   GL115309  16.063   0.078   6.491  0.0662 -0.0281  0.1156
 1070POPI   GL215310  16.293  -0.222   6.549  0.0935 -0.1070 -0.0879
 1070POPI   C1A15311  15.973   0.177   6.888 -0.1405  0.3725  0.0045
 1070POPI   D2A15312  16.082   0.168   7.309 -0.0909 -0.1125  0.1401
 1070POPI   C3A15313  15.984   0.151   7.691 -0.1324 -0.3794 -0.2378
 1070POPI   C4A15314  15.891   0.116   8.069 -0.0631 -0.1262  0.0895
 1070POPI   C1B15315  16.123  -0.378   6.964  0.1477 -0.0297 -0.0102
 1070POPI   C2B15316  16.082  -0.341   7.427  0.2369  0.3521  0.0169
 1070POPI   C3B15317  15.990  -0.396   7.843  0.3465 -0.0349 -0.0849
 1070POPI   C4B15318  15.968  -0.342   8.225 -0.2162  0.0892  0.0222
 1071POPI    C115319   6.951   6.702   6.246 -0.2484 -0.1962 -0.1768
 1071POPI    C215320   7.292   6.692   6.036 -0.1838 -0.2004 -0.0725
 1071POPI    C315321   6.955   6.822   5.864 -0.0473  0.1786 -0.0622
 1071POPI   PO415322   7.012   6.583   6.468  0.1064  0.0455 -0.0174
 1071POPI   GL115323   7.302   6.773   6.838  0.0741  0.0659 -0.0238
 1071POPI   GL215324   7.259   6.449   7.029 -0.1396 -0.1887  0.1589
 1071POPI   C1A15325   7.324   7.007   7.160  0.0794 -0.1764 -0.1138
 1071POPI   D2A15326   7.384   7.149   7.627 -0.4367  0.1188  0.3748
 1071POPI   C3A15327   7.397   7.043   7.991 -0.1813  0.3122  0.0660
 1071POPI   C4A15328   7.434   6.959   8.330  0.0549  0.0243 -0.1408
 1071POPI   C1B15329   7.273   6.533   7.341 -0.1387  0.2301  0.3295
 1071POPI   C2B15330   7.317   6.530   7.701  0.1580  0.1670  0.0038
 1071POPI   C3B15331   7.258   6.454   8.084  0.0527 -0.1473 -0.1603
 1071POPI   C4B15332   7.462   6.508   8.474 -0.2428  0.1428  0.0022
 1072POPI    C115333  10.769  10.130   6.384 -0.0178 -0.1528 -0.1603
 1072POPI    C215334  11.094  10.240   6.178  0.0763  0.0314  0.0822
 1072POPI    C315335  10.941  10.484   6.456 -0.1076 -0.1716  0.1617
 1072POPI   PO415336  10.883   9.900   6.535 -0.0283  0.3673 -0.0297
 1072POPI   GL115337  10.790   9.708   6.910 -0.3792  0.0943 -0.0600
 1072POPI   GL215338  11.141   9.763   6.903 -0.0767 -0.1086  0.1668
 1072POPI   C1A15339  10.828   9.738   7.364  0.0068  0.2268  0.2773
 1072POPI   D2A15340  10.699   9.710   7.763 -0.4631 -0.2586 -0.1398
 1072POPI   C3A15341  10.774   9.733   8.200 -0.2928  0.0510  0.0506
 1072POPI   C4A15342  10.707   9.578   8.748  0.0444 -0.2363 -0.1000
 1072POPI   C1B15343  11.266   9.992   7.256  0.0777  0.1764  0.0971
 1072POPI   C2B15344  11.274   9.944   7.689 -0.0687  0.0153 -0.0672
 1072POPI   C3B15345  11.411   9.970   7.993  0.1740 -0.1496  0.1407
 1072POPI   C4B15346  11.243   9.932   8.458  0.0574 -0.0736  0.0032
 1073POPI    C115347   7.718  10.046   6.218  0.0195 -0.1421  0.1426
 1073POPI    C215348   7.337   9.960   6.133 -0.0735  0.3530  0.0304
 1073POPI    C315349   7.577  10.106   5.849  0.2441 -0.0851  0.0645
 1073POPI   PO415350   7.833   9.926   6.383 -0.1387 -0.0424  0.0066
 1073POPI   GL115351   7.770   9.981   6.805 -0.0316 -0.1248 -0.1379
 1073POPI   GL215352   7.796   9.710   6.872 -0.1662  0.1999 -0.1707
 1073POPI   C1A15353   7.942  10.089   7.242  0.2268  0.2792  0.3240
 1073POPI   D2A15354   7.991  10.070   7.669  0.1907  0.0165  0.3424
 1073POPI   C3A15355   8.036   9.914   8.093  0.3079  0.3198  0.3071
 1073POPI   C4A15356   8.061   9.941   8.495 -0.1631 -0.1303 -0.0248
 1073POPI   C1B15357   7.824   9.430   7.190 -0.0089 -0.1893 -0.1626
 1073POPI   C2B15358   7.831   9.409   7.653  0.2447  0.0430 -0.1182
 1073POPI   C3B15359   7.971   9.362   8.073 -0.0080 -0.0411 -0.0770
 1073POPI   C4B15360   8.094   9.369   8.439  0.0704  0.1389  0.2286
 1074POPI    C115361   4.146  13.852   5.941 -0.0527  0.0518  0.0394
 1074POPI    C215362   4.495  14.044   5.974 -0.1074  0.1142  0.2745
 1074POPI    C315363   4.436  13.785   5.674  0.0484  0.2933  0.0866
 1074POPI   PO415364   4.035  13.965   6.232 -0.0035  0.3232 -0.0264
 1074POPI   GL115365   4.224  14.009   6.569 -0.1482  0.2394 -0.1321
 1074POPI   GL215366   3.945  14.317   6.752 -0.2084  0.0213 -0.0846
 1074POPI   C1A15367   4.224  13.895   6.990 -0.0276  0.1696 -0.4101
 1074POPI   D2A15368   4.073  13.908   7.367  0.1173 -0.0462 -0.2629
 1074POPI   C3A15369   4.184  13.861   7.706  0.0492 -0.0098 -0.0775
 1074POPI   C4A15370   4.325  13.869   8.204 -0.0581 -0.0353 -0.1042
 1074POPI   C1B15371   3.712  14.189   7.157  0.1005 -0.0290 -0.0526
 1074POPI   C2B15372   3.657  14.076   7.604  0.0760  0.2035 -0.0176
 1074POPI   C3B15373   3.440  14.185   7.868 -0.4706  0.3667 -0.1237
 1074POPI   C4B15374   3.155  14.277   8.225  0.0585  0.0994 -0.1944
 1075POPI    C115375  15.094  11.350   6.377 -0.0427  0.3211  0.2229
 1075POPI    C215376  15.129  11.604   6.070 -0.0360  0.3738  0.2672
 1075POPI    C315377  15.113  11.210   6.003  0.1284  0.3759  0.2102
 1075POPI   PO415378  15.282  11.568   6.563 -0.1577 -0.2133 -0.0278
 1075POPI   GL115379  15.155  11.918   6.890 -0.2954 -0.1114 -0.0390
 1075POPI   GL215380  15.002  12.237   6.764  0.1628  0.0875  0.1118
 1075POPI   C1A15381  15.364  12.032   7.286  0.1703  0.2665  0.0753
 1075POPI   D2A15382  15.387  11.935   7.704 -0.4360  0.1714 -0.0123
 1075POPI   C3A15383  15.541  12.153   8.003 -0.0538  0.2609  0.0208
 1075POPI   C4A15384  15.490  12.271   8.443  0.0455 -0.1928  0.2235
 1075POPI   C1B15385  14.948  12.219   7.224  0.2020 -0.0172  0.0719
 1075POPI   C2B15386  15.053  12.343   7.620  0.1371  0.0328  0.1460
 1075POPI   C3B15387  15.025  12.226   8.089 -0.1222 -0.1965 -0.0539
 1075POPI   C4B15388  14.990  12.113   8.488 -0.0217 -0.1265  0.0260
 1076POPI    C115389   5.779   0.118   6.692 -0.0389  0.0095  0.1611
 1076POPI    C215390   5.838   0.354   6.374  0.0033  0.1061  0.2404
 1076POPI    C315391   5.803  -0.041   6.326  0.1001  0.1111  0.1251
 1076POPI   PO415392   5.990   0.143   6.878 -0.1110  0.0848 -0.0292
 1076POPI   GL115393   5.950  -0.050   7.240 -0.3190 -0.2742  0.1413
 1076POPI   GL215394   6.116  -0.283   7.186 -0.0511 -0.0737  0.1228
 1076POPI   C1A15395   5.960   0.058   7.584 -0.1354  0.3066 -0.1913
 1076POPI   D2A15396   5.836   0.180   7.909 -0.4065  0.3014 -0.1596
 1076POPI   C3A15397   6.055   0.235   8.233  0.4005  0.0677  0.1217
 1076POPI   C4A15398   5.919   0.047   8.534  0.0731  0.0212  0.1490
 1076POPI   C1B15399   6.257  -0.370   7.614  0.0671  0.0613  0.0983
 1076POPI   C2B15400   6.213  -0.269   8.069  0.2806 -0.0063  0.0246
 1076POPI   C3B15401   6.383  -0.348   8.534 -0.1417  0.0641  0.1011
 1076POPI   C4B15402   6.586  -0.584   8.940  0.3200  0.0165 -0.1576
 1077POPI    C115403  11.622  15.784   6.186 -0.0883  0.0604  0.0892
 1077POPI    C215404  11.646  15.471   5.939  0.0293  0.1080  0.0400
 1077POPI    C315405  11.334  15.720   5.916  0.1073  0.1896 -0.1535
 1077POPI   PO415406  11.632  15.678   6.431  0.3094  0.0542 -0.0707
 1077POPI   GL115407  11.783  15.535   6.819  0.1058  0.0766 -0.3634
 1077POPI   GL215408  11.886  15.259   6.898  0.0673  0.0955  0.1224
 1077POPI   C1A15409  11.889  15.658   7.296  0.3261  0.1387  0.0706
 1077POPI   D2A15410  11.897  15.615   7.744 -0.0235 -0.0349  0.0787
 1077POPI   C3A15411  11.897  15.596   8.201 -0.0253  0.3074  0.1127
 1077POPI   C4A15412  11.941  15.593   8.670 -0.0036 -0.0171  0.0532
 1077POPI   C1B15413  11.822  15.183   7.346 -0.1105 -0.1442  0.0285
 1077POPI   C2B15414  11.854  15.128   7.776 -0.0340 -0.0029  0.1421
 1077POPI   C3B15415  11.831  15.094   8.203  0.3042 -0.3074  0.1783
 1077POPI   C4B15416  11.930  14.992   8.562 -0.0984  0.0628  0.2011
 1078POPI    C115417  12.314   9.670   6.305 -0.0036  0.4351  0.1364
 1078POPI    C215418  12.018   9.517   6.525  0.0928 -0.1275 -0.1090
 1078POPI    C315419  11.940   9.670   6.164  0.0199  0.2792  0.0730
 1078POPI   PO415420  12.475   9.771   6.476  0.1259 -0.0551  0.1017
 1078POPI   GL115421  12.685   9.789   6.898  0.0217  0.1102  0.0913
 1078POPI   GL215422  12.850   9.762   7.198  0.2087  0.0210 -0.0198
 1078POPI   C1A15423  12.572  10.165   7.118 -0.0369  0.1984  0.0158
 1078POPI   D2A15424  12.297  10.477   7.424 -0.1379  0.1161  0.0373
 1078POPI   C3A15425  12.302  10.361   7.812 -0.1232 -0.0618  0.2845
 1078POPI   C4A15426  12.333  10.407   8.252  0.2508 -0.0299 -0.0979
 1078POPI   C1B15427  12.782   9.616   7.717  0.0419  0.2255  0.3521
 1078POPI   C2B15428  12.510   9.519   8.098  0.3736 -0.1354  0.0120
 1078POPI   C3B15429  12.498   9.495   8.627  0.1075  0.0017  0.0175
 1078POPI   C4B15430  12.388   9.802   8.897 -0.0524 -0.0685  0.2982
 1079POPI    C115431  15.000   2.062   6.112  0.2360 -0.0392 -0.1016
 1079POPI    C215432  15.184   1.754   5.934  0.2481  0.0731 -0.2856
 1079POPI    C315433  14.801   1.721   6.046  0.1914  0.0561 -0.4810
 1079POPI   PO415434  15.094   2.132   6.344  0.0903  0.2609 -0.0461
 1079POPI   GL115435  15.209   2.081   6.736 -0.0990  0.0841 -0.2285
 1079POPI   GL215436  14.965   2.382   6.766  0.1352  0.3278 -0.1498
 1079POPI   C1A15437  15.269   1.825   7.044 -0.2571 -0.0854 -0.2235
 1079POPI   D2A15438  15.283   1.715   7.499  0.0434 -0.0726  0.1348
 1079POPI   C3A15439  15.095   1.874   7.805  0.2058  0.2948 -0.1442
 1079POPI   C4A15440  15.061   1.762   8.305 -0.2113 -0.1808  0.2550
 1079POPI   C1B15441  15.181   2.296   7.153  0.1292  0.2196  0.3355
 1079POPI   C2B15442  15.129   2.380   7.535 -0.1481  0.0008 -0.0077
 1079POPI   C3B15443  15.242   2.308   7.974  0.2532 -0.0901  0.3582
 1079POPI   C4B15444  15.258   2.241   8.415  0.2554  0.0368 -0.1371
 1080POPI    C115445   6.610  13.011   6.432 -0.1607 -0.0921  0.2098
 1080POPI    C215446   6.231  13.105   6.343 -0.1018 -0.0266  0.0230
 1080POPI    C315447   6.532  13.272   6.139  0.0280 -0.0877  0.1621
 1080POPI   PO415448   6.560  12.956   6.688  0.0120 -0.1556 -0.5464
 1080POPI   GL115449   6.769  12.721   7.043 -0.0246  0.1334  0.0380
 1080POPI   GL215450   6.461  12.700   7.159  0.1517 -0.2975 -0.2358
 1080POPI   C1A15451   6.897  12.832   7.391 -0.1308 -0.3714  0.0066
 1080POPI   D2A15452   6.869  12.987   7.809 -0.0157  0.0006  0.0808
 1080POPI   C3A15453   6.919  12.874   8.242 -0.0479  0.1479  0.1076
 1080POPI   C4A15454   6.861  12.920   8.672  0.2088 -0.1055 -0.4408
 1080POPI   C1B15455   6.477  12.849   7.577  0.2453 -0.0687  0.0922
 1080POPI   C2B15456   6.508  12.596   8.009  0.0224  0.1041  0.1035
 1080POPI   C3B15457   6.403  12.691   8.477 -0.0387  0.1123  0.2448
 1080POPI   C4B15458   6.045  12.664   8.824  0.1242 -0.2835  0.0111
 1081POPI    C115459  15.053  10.004   6.495  0.1370 -0.2461 -0.1064
 1081POPI    C215460  14.858  10.352   6.462  0.2285 -0.1799  0.0367
 1081POPI    C315461  14.924  10.128   6.138 -0.0291 -0.1736 -0.0224
 1081POPI   PO415462  15.259  10.033   6.606  0.1702 -0.0637 -0.0998
 1081POPI   GL115463  15.503  10.039   6.952 -0.1121 -0.0893 -0.0804
 1081POPI   GL215464  15.690  10.186   6.771 -0.2803  0.0512 -0.0570
 1081POPI   C1A15465  15.709  10.030   7.297  0.2191 -0.3770 -0.1759
 1081POPI   D2A15466  15.960   9.910   7.733 -0.0042  0.0806 -0.1395
 1081POPI   C3A15467  15.946  10.237   8.108 -0.0431 -0.1664  0.2258
 1081POPI   C4A15468  15.955  10.127   8.541 -0.2634  0.0476  0.1562
 1081POPI   C1B15469  16.078  10.353   7.035 -0.0183 -0.0425 -0.0696
 1081POPI   C2B15470  16.273  10.370   7.421 -0.2284  0.0144 -0.1522
 1081POPI   C3B15471  16.322  10.362   7.842  0.0104 -0.2467  0.1219
 1081POPI   C4B15472  16.343  10.419   8.299  0.0874 -0.0053 -0.3553
 1082POPI    C115473  13.594   5.266   6.141 -0.1137 -0.1068  0.1211
 1082POPI    C215474  13.325   5.055   5.932  0.0018 -0.2309  0.0966
 1082POPI    C315475  13.655   5.194   5.753 -0.1407  0.0932  0.0789
 1082POPI   PO415476  13.550   5.117   6.386  0.2575 -0.0142 -0.1213
 1082POPI   GL115477  13.628   4.787   6.670  0.2333  0.0164 -0.0773
 1082POPI   GL215478  13.583   5.054   6.900  0.0220  0.0887 -0.1563
 1082POPI   C1A15479  13.461   4.571   7.053  0.1683  0.0640  0.0609
 1082POPI   D2A15480  13.440   4.504   7.502 -0.1346 -0.0669 -0.0076
 1082POPI   C3A15481  13.554   4.533   7.911  0.0886  0.0216 -0.2814
 1082POPI   C4A15482  13.453   4.472   8.347 -0.1347  0.0865 -0.0377
 1082POPI   C1B15483  13.444   5.005   7.344  0.1515  0.0333 -0.1906
 1082POPI   C2B15484  13.412   4.989   7.861 -0.0030  0.1153 -0.3494
 1082POPI   C3B15485  13.605   5.010   8.227  0.1212 -0.0739  0.0681
 1082POPI   C4B15486  13.581   5.244   8.655 -0.2066  0.0824 -0.0383
 1083POPI    C115487   4.420  15.055   5.983  0.0754  0.1069 -0.1297
 1083POPI    C215488   4.160  14.842   6.201  0.1910  0.2191  0.1220
 1083POPI    C315489   4.042  15.179   6.021  0.0295 -0.0076 -0.2067
 1083POPI   PO415490   4.674  14.944   6.196  0.1407  0.0743  0.0792
 1083POPI   GL115491   4.630  14.784   6.638 -0.0035  0.2406  0.0925
 1083POPI   GL215492   4.310  14.689   6.693 -0.2374 -0.0966  0.0791
 1083POPI   C1A15493   4.751  14.816   7.099 -0.4676 -0.1391 -0.0243
 1083POPI   D2A15494   4.685  14.745   7.429 -0.1448  0.4544 -0.0341
 1083POPI   C3A15495   4.689  14.720   7.811  0.1044 -0.1041 -0.1038
 1083POPI   C4A15496   4.603  14.809   8.238  0.2102  0.0815 -0.1098
 1083POPI   C1B15497   4.282  14.897   7.086  0.1242  0.0754  0.2406
 1083POPI   C2B15498   4.193  14.897   7.457  0.2340  0.0994 -0.2176
 1083POPI   C3B15499   4.074  14.828   7.891 -0.0149 -0.2465  0.0945
 1083POPI   C4B15500   4.026  14.680   8.296  0.1203 -0.1049  0.0643
 1084POPI    C115501   0.720   5.032   6.635  0.0260  0.2155  0.0563
 1084POPI    C215502   0.900   4.766   6.396 -0.1674 -0.1209  0.2767
 1084POPI    C315503   0.699   5.074   6.238  0.3186  0.0777  0.0231
 1084POPI   PO415504   0.940   5.088   6.853  0.0344  0.3107 -0.3007
 1084POPI   GL115505   0.968   4.871   7.246  0.1597  0.1589  0.1441
 1084POPI   GL215506   1.114   4.552   7.262  0.0197 -0.1690 -0.1317
 1084POPI   C1A15507   0.993   5.008   7.572  0.0204  0.1941 -0.0151
 1084POPI   D2A15508   0.915   5.060   7.966 -0.0619  0.1167 -0.0804
 1084POPI   C3A15509   1.128   5.014   8.374 -0.2012  0.0486  0.0467
 1084POPI   C4A15510   1.155   5.007   8.810 -0.1883 -0.1100 -0.1447
 1084POPI   C1B15511   1.009   4.554   7.738  0.0785 -0.2153  0.5137
 1084POPI   C2B15512   0.926   4.615   8.105  0.2678  0.1651  0.0902
 1084POPI   C3B15513   0.758   4.605   8.564 -0.1073  0.2539 -0.0145
 1084POPI   C4B15514   0.553   4.271   8.708 -0.0115 -0.1813 -0.3577
 1085POPI    C115515  14.372  10.057   6.817 -0.0789 -0.2236 -0.1053
 1085POPI    C215516  14.321  10.152   6.432  0.1005  0.1284 -0.0470
 1085POPI    C315517  14.596   9.880   6.536 -0.0634 -0.0913 -0.1771
 1085POPI   PO415518  14.065  10.166   6.878  0.1872  0.1892 -0.0406
 1085POPI   GL115519  13.891  10.307   7.222 -0.1470  0.1384 -0.1505
 1085POPI   GL215520  13.530  10.335   7.285  0.0160 -0.1925  0.0205
 1085POPI   C1A15521  13.992  10.184   7.637  0.0777 -0.2400  0.0684
 1085POPI   D2A15522  14.262  10.200   8.045 -0.0820 -0.0914 -0.0931
 1085POPI   C3A15523  14.128   9.970   8.273  0.2968 -0.2096  0.1805
 1085POPI   C4A15524  14.065  10.081   8.623 -0.1103  0.0218 -0.2477
 1085POPI   C1B15525  13.484  10.201   7.645 -0.1170 -0.2091  0.1742
 1085POPI   C2B15526  13.589  10.169   8.015 -0.2692  0.3032 -0.2244
 1085POPI   C3B15527  13.587  10.214   8.419 -0.1400  0.0078 -0.1426
 1085POPI   C4B15528  13.641  10.302   8.923 -0.3081  0.0966  0.1151
 1086POPI    C115529  16.572   0.117   6.070  0.0993 -0.0691  0.1490
 1086POPI    C215530  16.284   0.328   5.891  0.0446 -0.2103  0.0689
 1086POPI    C315531  16.638   0.280   5.711  0.1475  0.0308  0.2029
 1086POPI   PO415532  16.535   0.136   6.250  0.2430 -0.0267  0.1551
 1086POPI   GL115533  16.678   0.493   6.488 -0.1283  0.2284 -0.1237
 1086POPI   GL215534  16.869   0.768   6.517  0.2313 -0.0006 -0.5302
 1086POPI   C1A15535  16.497   0.429   6.924  0.1268 -0.1723 -0.0421
 1086POPI   D2A15536  16.547   0.322   7.320  0.0416 -0.0027 -0.1209
 1086POPI   C3A15537  16.446   0.430   7.635 -0.0161  0.0031 -0.0410
 1086POPI   C4A15538  16.501   0.454   8.068  0.2434  0.2168  0.1964
 1086POPI   C1B15539  17.013   0.981   6.734 -0.2955  0.0488  0.0409
 1086POPI   C2B15540  17.082   0.921   7.070 -0.0070  0.1225  0.1901
 1086POPI   C3B15541  17.028   1.105   7.436 -0.0664  0.0142  0.3678
 1086POPI   C4B15542  16.970   1.196   7.868 -0.4261 -0.1400 -0.4915
 1087POPI    C115543   8.338   4.717   6.054  0.0257 -0.0711  0.0514
 1087POPI    C215544   8.287   5.052   5.842 -0.3011 -0.0720  0.1242
 1087POPI    C315545   8.626   4.843   5.806 -0.1770  0.1574 -0.0721
 1087POPI   PO415546   8.361   4.668   6.327 -0.0657  0.4041  0.2521
 1087POPI   GL115547   8.389   4.402   6.755 -0.0473  0.0185  0.1363
 1087POPI   GL215548   8.090   4.600   6.870 -0.2369  0.1283  0.0928
 1087POPI   C1A15549   8.501   4.506   7.216 -0.4446  0.0611 -0.0353
 1087POPI   D2A15550   8.586   4.561   7.681 -0.3473  0.1367  0.1825
 1087POPI   C3A15551   8.480   4.486   8.090  0.0509  0.1402  0.3016
 1087POPI   C4A15552   8.379   4.580   8.581 -0.0446  0.1219  0.1796
 1087POPI   C1B15553   8.027   4.763   7.353  0.0318  0.0230 -0.3470
 1087POPI   C2B15554   8.086   4.809   7.760 -0.0488  0.0539  0.1089
 1087POPI   C3B15555   8.006   4.739   8.173 -0.0817  0.2171 -0.0908
 1087POPI   C4B15556   7.883   4.647   8.561 -0.0696 -0.0415 -0.0999
 1088POPI    C115557   7.474  11.384   6.225 -0.0811  0.0713 -0.0011
 1088POPI    C215558   7.824  11.473   6.054  0.0586  0.0082  0.2470
 1088POPI    C315559   7.516  11.354   5.828  0.1850  0.0980  0.0236
 1088POPI   PO415560   7.595  11.319   6.451  0.0727  0.3587 -0.2467
 1088POPI   GL115561   7.534  11.139   6.836  0.2625  0.0163  0.2053
 1088POPI   GL215562   7.735  10.932   6.917 -0.1799 -0.0428  0.0188
 1088POPI   C1A15563   7.306  11.398   7.200  0.1857 -0.2060 -0.1521
 1088POPI   D2A15564   7.019  11.281   7.457  0.0781 -0.0020 -0.1795
 1088POPI   C3A15565   7.006  11.444   7.745  0.1556 -0.1403 -0.1040
 1088POPI   C4A15566   7.230  11.723   7.655 -0.1473 -0.2799  0.2158
 1088POPI   C1B15567   7.683  11.025   7.314  0.1839 -0.2250  0.0566
 1088POPI   C2B15568   7.786  10.927   7.678  0.1644 -0.1526 -0.1803
 1088POPI   C3B15569   7.793  10.939   8.086  0.3405 -0.0391  0.0053
 1088POPI   C4B15570   7.850  11.142   8.414  0.0601  0.1167 -0.1367
 1089POPI    C115571   3.052   3.889   6.390 -0.0880 -0.0873  0.0660
 1089POPI    C215572   3.331   4.005   6.127  0.1267 -0.1232  0.2751
 1089POPI    C315573   3.054   3.736   6.020  0.0895  0.0122  0.0248
 1089POPI   PO415574   3.182   4.035   6.633  0.0389 -0.1603 -0.3004
 1089POPI   GL115575   3.183   3.911   7.012 -0.2182 -0.1207 -0.0033
 1089POPI   GL215576   3.466   3.921   7.011 -0.5278  0.2526 -0.0068
 1089POPI   C1A15577   2.819   3.956   7.278  0.1506 -0.1627  0.1429
 1089POPI   D2A15578   2.788   3.953   7.715 -0.0732  0.0561  0.4888
 1089POPI   C3A15579   2.966   4.097   8.067 -0.0190 -0.0318  0.0329
 1089POPI   C4A15580   2.876   4.127   8.444  0.1010  0.1315  0.1144
 1089POPI   C1B15581   3.423   3.859   7.544  0.2248 -0.3766 -0.0574
 1089POPI   C2B15582   3.475   3.842   7.948  0.3825 -0.2356 -0.0506
 1089POPI   C3B15583   3.354   3.919   8.363  0.2274 -0.1095  0.0202
 1089POPI   C4B15584   3.279   4.124   8.762  0.2348 -0.1386 -0.0206
 1090POPI    C115585   0.948   3.401   6.299  0.0691 -0.1283 -0.0188
 1090POPI    C215586   0.728   3.699   6.450 -0.1476 -0.2267 -0.1361
 1090POPI    C315587   0.943   3.757   6.117  0.1078 -0.0931  0.0484
 1090POPI   PO415588   1.038   3.243   6.549  0.0681 -0.0398 -0.4726
 1090POPI   GL115589   0.947   3.244   6.937 -0.0477 -0.1032  0.0022
 1090POPI   GL215590   1.277   3.228   7.072  0.1364 -0.0699 -0.0539
 1090POPI   C1A15591   0.712   3.146   7.300  0.0608  0.0464 -0.3708
 1090POPI   D2A15592   0.538   3.206   7.694 -0.1598  0.1088  0.1059
 1090POPI   C3A15593   0.642   3.212   8.062 -0.1106  0.5268 -0.1016
 1090POPI   C4A15594   0.689   3.186   8.460  0.1269  0.0162  0.1083
 1090POPI   C1B15595   1.196   3.248   7.461  0.0732 -0.2231  0.1706
 1090POPI   C2B15596   1.067   3.239   7.788 -0.0452  0.0433 -0.1961
 1090POPI   C3B15597   1.113   3.359   8.208 -0.3378 -0.1615 -0.0096
 1090POPI   C4B15598   1.376   3.330   8.575  0.1158  0.1650  0.1559
 1091POPI    C115599   9.303  13.540   6.250  0.1602 -0.0324  0.0383
 1091POPI    C215600   9.349  13.704   5.888  0.0602  0.2721  0.1608
 1091POPI    C315601   9.506  13.345   5.966 -0.1096  0.1018 -0.2535
 1091POPI   PO415602   9.385  13.707   6.427 -0.0520  0.0204  0.1964
 1091POPI   GL115603   9.627  13.714   6.718  0.3964  0.1889  0.0832
 1091POPI   GL215604   9.860  13.900   6.923 -0.3860 -0.0785 -0.0834
 1091POPI   C1A15605   9.710  13.385   7.125 -0.0560  0.0717  0.1874
 1091POPI   D2A15606   9.813  13.322   7.566 -0.0205 -0.0848 -0.0333
 1091POPI   C3A15607   9.767  13.330   8.045 -0.0107 -0.1311  0.2994
 1091POPI   C4A15608   9.453  13.474   8.342  0.0512  0.1522  0.2972
 1091POPI   C1B15609   9.955  13.797   7.359  0.1270  0.1932 -0.1755
 1091POPI   C2B15610   9.865  13.776   7.763 -0.0776  0.2976 -0.2515
 1091POPI   C3B15611   9.829  13.741   8.236 -0.1596  0.2448  0.1261
 1091POPI   C4B15612   9.606  13.919   8.517 -0.1315 -0.4652 -0.2514
 1092POPI    C115613   0.660  14.437   5.885  0.1231  0.0212  0.0329
 1092POPI    C215614   0.541  14.141   5.644 -0.2155  0.2204 -0.0507
 1092POPI    C315615   0.622  14.502   5.492 -0.1467  0.2676  0.0964
 1092POPI   PO415616   0.742  14.302   6.116  0.0100  0.2772  0.2251
 1092POPI   GL115617   0.910  14.424   6.524 -0.2295 -0.4717  0.0230
 1092POPI   GL215618   0.953  14.650   6.622 -0.1888 -0.2132  0.2506
 1092POPI   C1A15619   1.051  14.183   6.821  0.0974  0.3382 -0.3671
 1092POPI   D2A15620   1.049  14.150   7.224 -0.0211 -0.0375  0.1273
 1092POPI   C3A15621   1.047  14.110   7.666  0.0856 -0.0446  0.1076
 1092POPI   C4A15622   0.949  14.144   8.091  0.3283  0.1679  0.1362
 1092POPI   C1B15623   0.663  14.528   7.009 -0.3805  0.1364  0.1587
 1092POPI   C2B15624   0.597  14.387   7.441  0.3864 -0.0455  0.0199
 1092POPI   C3B15625   0.592  14.385   7.811 -0.2808 -0.0493  0.2765
 1092POPI   C4B15626   0.552  14.449   8.224 -0.0482 -0.2159 -0.0728
 1093POPI    C115627   8.063   1.405   6.382 -0.2859 -0.1719 -0.0453
 1093POPI    C215628   8.363   1.142   6.393  0.1337  0.2936  0.0126
 1093POPI    C315629   8.179   1.220   6.047  0.1060  0.0385 -0.0321
 1093POPI   PO415630   7.896   1.357   6.556  0.0015  0.0648  0.1344
 1093POPI   GL115631   7.772   1.527   6.968 -0.0052  0.1768  0.2001
 1093POPI   GL215632   7.474   1.426   7.180  0.0929 -0.0814 -0.0561
 1093POPI   C1A15633   7.998   1.691   7.302 -0.2126  0.0062 -0.0157
 1093POPI   D2A15634   8.033   1.751   7.734  0.0258 -0.2738  0.1533
 1093POPI   C3A15635   7.961   1.535   8.139  0.1994  0.1269  0.0529
 1093POPI   C4A15636   8.069   1.669   8.522 -0.0018  0.1839  0.0860
 1093POPI   C1B15637   7.343   1.317   7.625  0.2297 -0.3097  0.0043
 1093POPI   C2B15638   7.426   1.319   8.043  0.0182  0.1294  0.0986
 1093POPI   C3B15639   7.523   1.288   8.422 -0.1584  0.1362  0.4069
 1093POPI   C4B15640   7.783   1.349   8.811  0.0815 -0.4594 -0.0019
 1094POPI    C115641   3.321  16.261   6.393 -0.0255 -0.0711 -0.0433
 1094POPI    C215642   3.590  15.981   6.488  0.1903  0.1116 -0.1056
 1094POPI    C315643   3.606  16.160   6.131 -0.1176  0.0074 -0.1752
 1094POPI   PO415644   3.306  16.357   6.711 -0.1324  0.4089 -0.0421
 1094POPI   GL115645   3.170  16.146   7.106  0.4622  0.0887  0.0562
 1094POPI   GL215646   3.203  16.386   7.192  0.0489 -0.1146 -0.1825
 1094POPI   C1A15647   3.237  15.867   7.581  0.1281  0.0432  0.2664
 1094POPI   D2A15648   3.099  15.523   7.843 -0.2394  0.1445  0.2298
 1094POPI   C3A15649   2.977  15.435   8.295  0.0077 -0.2314  0.0806
 1094POPI   C4A15650   3.199  15.161   8.588  0.2500  0.1712 -0.0885
 1094POPI   C1B15651   3.111  16.414   7.635  0.1286 -0.0528  0.3693
 1094POPI   C2B15652   3.130  16.551   8.005  0.3159  0.0727  0.3946
 1094POPI   C3B15653   2.974  16.637   8.397  0.0275 -0.1301 -0.0939
 1094POPI   C4B15654   3.151  16.531   8.758 -0.0572  0.0652  0.1998
 1095POPI    C115655   4.598   1.133   6.177 -0.1951  0.2392  0.0132
 1095POPI    C215656   4.421   0.838   5.972  0.0649  0.0173  0.1014
 1095POPI    C315657   4.773   0.984   5.849  0.0904  0.0717  0.2368
 1095POPI   PO415658   4.522   1.021   6.467 -0.1823  0.1101 -0.2296
 1095POPI   GL115659   4.260   0.948   6.867  0.2664  0.0740 -0.0892
 1095POPI   GL215660   4.453   0.676   6.809  0.0888 -0.1208 -0.1463
 1095POPI   C1A15661   4.139   0.895   7.443  0.0355  0.0908  0.0495
 1095POPI   D2A15662   4.119   0.969   7.881  0.2494  0.0886  0.0158
 1095POPI   C3A15663   4.167   0.980   8.370  0.0184 -0.1168 -0.0730
 1095POPI   C4A15664   3.953   1.230   8.606  0.0253 -0.3052 -0.2963
 1095POPI   C1B15665   4.484   0.641   7.266 -0.3457  0.1114  0.5070
 1095POPI   C2B15666   4.504   0.608   7.740  0.1166 -0.1027 -0.0772
 1095POPI   C3B15667   4.540   0.694   8.152  0.0159  0.1601 -0.0864
 1095POPI   C4B15668   4.581   0.555   8.536  0.0658  0.1023  0.2294
 1096POPI    C115669  12.417   0.318   6.029  0.2102  0.1608 -0.0808
 1096POPI    C215670  12.739   0.111   6.144  0.2706  0.2971 -0.0015
 1096POPI    C315671  12.689   0.205   5.759 -0.0171 -0.3065 -0.1244
 1096POPI   PO415672  12.251   0.286   6.242  0.2036 -0.2601 -0.2367
 1096POPI   GL115673  12.593   0.233   6.564  0.1191 -0.3132 -0.1091
 1096POPI   GL215674  12.615   0.546   6.562  0.0986 -0.1203 -0.0407
 1096POPI   C1A15675  12.766   0.107   6.893 -0.0702 -0.3017 -0.0712
 1096POPI   D2A15676  12.913   0.148   7.421  0.1585  0.0967  0.0435
 1096POPI   C3A15677  12.934   0.151   7.841 -0.0373  0.5490  0.2038
 1096POPI   C4A15678  12.784   0.029   8.198  0.1685 -0.0403 -0.2081
 1096POPI   C1B15679  12.811   0.598   7.037 -0.3465 -0.0640  0.0126
 1096POPI   C2B15680  12.942   0.631   7.460  0.0423  0.3199 -0.1699
 1096POPI   C3B15681  12.904   0.794   7.931  0.3240  0.0942  0.0548
 1096POPI   C4B15682  12.687   0.697   8.358  0.1620  0.0238  0.2608
 1097DPPI    C115683   9.971  12.913   6.361  0.2741  0.0383  0.1208
 1097DPPI    C215684  10.199  12.835   6.041 -0.0733 -0.0542 -0.1109
 1097DPPI    C315685  10.050  13.202   6.096 -0.1850 -0.0905 -0.1684
 1097DPPI   PO415686  10.109  12.699   6.607  0.2076  0.2502 -0.0265
 1097DPPI   GL115687  10.059  12.437   7.036  0.0103  0.2499  0.1064
 1097DPPI   GL215688  10.366  12.337   6.846  0.2504  0.1145 -0.1339
 1097DPPI   C1A15689  10.097  12.529   7.372  0.0762  0.0596 -0.0701
 1097DPPI   C2A15690  10.130  12.441   7.737 -0.1397  0.2595  0.2160
 1097DPPI   C3A15691  10.115  12.429   8.156 -0.0921 -0.0860 -0.0263
 1097DPPI   C4A15692  10.189  12.309   8.468  0.3581 -0.1738  0.0539
 1097DPPI   C1B15693  10.629  12.208   7.196 -0.0815  0.1430  0.1085
 1097DPPI   C2B15694  10.648  12.094   7.603  0.1436  0.1742 -0.1551
 1097DPPI   C3B15695  10.590  12.093   8.090 -0.0649  0.0209 -0.0402
 1097DPPI   C4B15696  10.616  12.111   8.519 -0.1829  0.1296  0.1767
 1098DPPI    C115697   6.339  15.690   6.185 -0.0459 -0.2251  0.0576
 1098DPPI    C215698   5.993  15.707   5.985  0.0177 -0.0652 -0.0414
 1098DPPI    C315699   6.286  15.465   5.859 -0.0014 -0.0849 -0.0479
 1098DPPI   PO415700   6.274  15.712   6.417  0.5414  0.3331  0.1459
 1098DPPI   GL115701   6.233  15.971   6.780  0.0934 -0.0888 -0.0097
 1098DPPI   GL215702   6.326  16.304   6.867 -0.2773  0.3641 -0.4174
 1098DPPI   C1A15703   6.091  15.918   7.071  0.0667 -0.1049  0.0236
 1098DPPI   C2A15704   6.275  15.863   7.511 -0.2011 -0.1180 -0.1923
 1098DPPI   C3A15705   6.204  15.820   7.937  0.1707 -0.1732  0.2470
 1098DPPI   C4A15706   6.177  15.818   8.336  0.0100  0.3882 -0.3024
 1098DPPI   C1B15707   6.445  16.310   7.332 -0.2343 -0.1073  0.0609
 1098DPPI   C2B15708   6.488  16.248   7.776  0.0026  0.0124  0.1472
 1098DPPI   C3B15709   6.353  16.353   8.208  0.0137  0.0189 -0.3292
 1098DPPI   C4B15710   6.330  16.181   8.592 -0.0775 -0.1458 -0.1036
 1099DPPI    C115711   2.706   0.009   6.322 -0.0700  0.1233 -0.1362
 1099DPPI    C215712   2.345  -0.153   6.378  0.0337 -0.0333  0.0925
 1099DPPI    C315713   2.632  -0.363   6.194  0.0533  0.0348  0.0453
 1099DPPI   PO415714   2.781   0.096   6.489 -0.1506  0.0270 -0.2099
 1099DPPI   GL115715   2.683   0.360   6.832 -0.1345  0.0092 -0.0390
 1099DPPI   GL215716   3.032   0.529   6.901  0.1128  0.2530 -0.0847
 1099DPPI   C1A15717   2.633   0.403   7.208  0.1090  0.2254  0.0966
 1099DPPI   C2A15718   2.620   0.389   7.568 -0.0674  0.1896  0.2657
 1099DPPI   C3A15719   2.688   0.223   7.976  0.0137 -0.0764  0.1207
 1099DPPI   C4A15720   2.695  -0.095   8.090  0.0481 -0.0970  0.3761
 1099DPPI   C1B15721   3.086   0.513   7.335  0.1349  0.2761  0.1276
 1099DPPI   C2B15722   3.014   0.598   7.755 -0.0410 -0.0088 -0.1324
 1099DPPI   C3B15723   3.124   0.513   8.048 -0.3673  0.1680  0.2230
 1099DPPI   C4B15724   3.222   0.399   8.408  0.2781  0.0888 -0.2318
 1100DPPI    C115725   7.233  11.985   6.299  0.0227  0.1954 -0.1275
 1100DPPI    C215726   7.496  11.920   6.004  0.0174  0.0929 -0.1100
 1100DPPI    C315727   7.583  11.808   6.378 -0.1317 -0.1215 -0.1379
 1100DPPI   PO415728   7.166  12.247   6.366  0.1387 -0.2301 -0.0110
 1100DPPI   GL115729   6.977  12.075   6.741 -0.0251  0.1114 -0.0570
 1100DPPI   GL215730   7.147  12.382   6.853 -0.0721 -0.1879  0.1651
 1100DPPI   C1A15731   7.276  11.846   7.079  0.0010  0.2811  0.1416
 1100DPPI   C2A15732   7.585  11.937   7.373 -0.0606  0.0698 -0.2098
 1100DPPI   C3A15733   7.660  11.771   7.827 -0.4515 -0.3331  0.0316
 1100DPPI   C4A15734   7.733  11.715   8.312  0.1424 -0.2698  0.2847
 1100DPPI   C1B15735   7.142  12.197   7.381  0.0163  0.1439 -0.0697
 1100DPPI   C2B15736   7.332  12.147   7.863  0.1614 -0.2401  0.2455
 1100DPPI   C3B15737   7.357  12.139   8.337 -0.0542  0.2175  0.1010
 1100DPPI   C4B15738   7.374  11.862   8.671  0.0909 -0.2054 -0.0475
 1101DPPI    C115739   8.338   2.863   5.976  0.0214  0.0226 -0.0962
 1101DPPI    C215740   7.971   2.923   5.827  0.0435 -0.0244 -0.1702
 1101DPPI    C315741   8.224   2.675   5.642  0.0641 -0.0996 -0.0425
 1101DPPI   PO415742   8.265   2.927   6.273  0.1489  0.0523 -0.1303
 1101DPPI   GL115743   8.516   3.130   6.696  0.0746  0.2784 -0.0223
 1101DPPI   GL215744   8.373   2.916   6.824 -0.2295 -0.0593  0.1231
 1101DPPI   C1A15745   8.394   3.453   6.968  0.0644 -0.1215 -0.0276
 1101DPPI   C2A15746   8.460   3.520   7.336  0.0466  0.3038 -0.0415
 1101DPPI   C3A15747   8.515   3.563   7.715 -0.2489  0.3092 -0.1077
 1101DPPI   C4A15748   8.478   3.494   8.210 -0.0125  0.3655 -0.1196
 1101DPPI   C1B15749   8.468   3.012   7.251 -0.0373  0.1669  0.1434
 1101DPPI   C2B15750   8.457   2.946   7.708 -0.1097  0.1849  0.2400
 1101DPPI   C3B15751   8.463   2.908   8.173  0.3949  0.0467 -0.0507
 1101DPPI   C4B15752   8.470   3.051   8.556 -0.0726 -0.3887 -0.0373
 1102DPPI    C115753   9.981  15.894   5.971 -0.0993  0.0342  0.1732
 1102DPPI    C215754  10.367  15.793   5.943 -0.1039  0.0363  0.1006
 1102DPPI    C315755  10.098  15.623   5.701 -0.1340  0.1085  0.0830
 1102DPPI   PO415756   9.943  15.947   6.214 -0.3124  0.2751  0.1543
 1102DPPI   GL115757   9.881  15.826   6.678 -0.0713  0.0022 -0.1138
 1102DPPI   GL215758  10.273  15.763   6.576 -0.0180  0.2134  0.0334
 1102DPPI   C1A15759  10.157  15.941   7.146 -0.0369 -0.0232 -0.0926
 1102DPPI   C2A15760  10.206  15.964   7.636 -0.1904  0.1094 -0.0067
 1102DPPI   C3A15761  10.463  15.950   7.937  0.2433  0.0410  0.2402
 1102DPPI   C4A15762  10.551  15.984   8.361 -0.1925 -0.1141 -0.1253
 1102DPPI   C1B15763  10.488  15.623   6.862 -0.2515  0.2814  0.1497
 1102DPPI   C2B15764  10.349  15.550   7.312  0.0067  0.3899 -0.2421
 1102DPPI   C3B15765  10.447  15.507   7.811  0.0138 -0.0019 -0.2044
 1102DPPI   C4B15766  10.611  15.448   8.232  0.1953 -0.1051  0.0580
 1103DPPI    C115767   5.394   1.144   6.588 -0.0079 -0.0153 -0.2744
 1103DPPI    C215768   5.711   0.933   6.464 -0.0983 -0.1751 -0.2355
 1103DPPI    C315769   5.510   1.163   6.206  0.2091  0.1369 -0.2029
 1103DPPI   PO415770   5.242   0.974   6.732  0.0352 -0.2191  0.0050
 1103DPPI   GL115771   5.100   1.199   7.071  0.1692  0.2905 -0.2261
 1103DPPI   GL215772   4.782   1.014   7.004  0.1076  0.0861 -0.1144
 1103DPPI   C1A15773   5.080   1.322   7.464 -0.2976 -0.0945 -0.1305
 1103DPPI   C2A15774   5.098   1.348   7.861  0.0294  0.0243  0.0288
 1103DPPI   C3A15775   5.139   1.366   8.264  0.2745 -0.3793 -0.0153
 1103DPPI   C4A15776   5.191   1.303   8.744  0.2309  0.0305 -0.5023
 1103DPPI   C1B15777   4.604   1.139   7.392 -0.0389 -0.0231 -0.0827
 1103DPPI   C2B15778   4.594   1.226   7.800  0.1684  0.0122 -0.1622
 1103DPPI   C3B15779   4.668   1.198   8.196  0.2148 -0.4412 -0.1248
 1103DPPI   C4B15780   4.628   1.079   8.536  0.0057  0.2324  0.0052
 1104DPPI    C115781   7.199   3.625   6.338  0.0549 -0.1162  0.1581
 1104DPPI    C215782   6.853   3.648   6.137  0.0229  0.2106  0.2447
 1104DPPI    C315783   7.189   3.540   5.948 -0.0521  0.2818  0.0694
 1104DPPI   PO415784   7.075   3.759   6.603 -0.1018 -0.2555 -0.1289
 1104DPPI   GL115785   7.124   3.599   6.913  0.0079 -0.1940 -0.0918
 1104DPPI   GL215786   7.038   3.291   7.118 -0.0543 -0.0340 -0.0771
 1104DPPI   C1A15787   7.052   3.727   7.346 -0.2495 -0.0435  0.0479
 1104DPPI   C2A15788   7.100   3.820   7.818  0.1895  0.1453 -0.0762
 1104DPPI   C3A15789   7.101   3.717   8.223  0.0291  0.0843  0.0798
 1104DPPI   C4A15790   7.211   3.674   8.777 -0.2186 -0.4709 -0.0338
 1104DPPI   C1B15791   7.113   3.260   7.507 -0.1133  0.3387  0.0731
 1104DPPI   C2B15792   7.147   3.301   7.918  0.0299  0.0077 -0.1354
 1104DPPI   C3B15793   7.185   3.171   8.291  0.2008 -0.0136  0.3384
 1104DPPI   C4B15794   6.977   3.085   8.697  0.0223 -0.0849  0.2764
 1105DPPI    C115795  12.878   4.918   6.054 -0.0441 -0.2557 -0.1818
 1105DPPI    C215796  12.681   4.672   5.807 -0.0464 -0.2853 -0.1506
 1105DPPI    C315797  12.995   4.881   5.673 -0.1294 -0.2002 -0.2137
 1105DPPI   PO415798  12.642   5.016   6.198 -0.0824  0.0878 -0.0770
 1105DPPI   GL115799  12.608   5.294   6.590 -0.0409 -0.0436 -0.0847
 1105DPPI   GL215800  12.695   5.017   6.718  0.3292 -0.2386  0.2782
 1105DPPI   C1A15801  12.314   5.318   6.884  0.1436  0.2847 -0.0591
 1105DPPI   C2A15802  12.266   5.396   7.278 -0.2192 -0.1950  0.0644
 1105DPPI   C3A15803  12.185   5.368   7.742 -0.0262  0.0561  0.1843
 1105DPPI   C4A15804  12.214   5.471   8.244  0.2536 -0.1156  0.3191
 1105DPPI   C1B15805  12.738   5.064   7.158  0.3438  0.1530 -0.0170
 1105DPPI   C2B15806  12.634   5.140   7.587 -0.0902 -0.1920  0.0855
 1105DPPI   C3B15807  12.523   5.138   8.014 -0.0741 -0.1161  0.1170
 1105DPPI   C4B15808  12.601   5.220   8.441 -0.1542 -0.0454  0.1924
 1106DPPI    C115809   4.661  16.171   6.528  0.2928 -0.0874  0.2090
 1106DPPI    C215810   4.908  16.263   6.227 -0.0577 -0.1938 -0.1195
 1106DPPI    C315811   4.650  15.959   6.189 -0.1993 -0.1241  0.2397
 1106DPPI   PO415812   4.780  16.273   6.716  0.3398  0.1960  0.0127
 1106DPPI   GL115813   4.798  16.304   7.050 -0.0573  0.0696 -0.0182
 1106DPPI   GL215814   5.043  16.064   7.103  0.1344 -0.0048  0.2081
 1106DPPI   C1A15815   4.590  16.560   7.346  0.0538 -0.4419 -0.1758
 1106DPPI   C2A15816   4.859  16.619   7.768  0.1639  0.0815  0.1299
 1106DPPI   C3A15817   4.950  16.710   8.129 -0.2255  0.1305  0.1332
 1106DPPI   C4A15818   4.931  16.853   8.529  0.1684  0.3528  0.0598
 1106DPPI   C1B15819   4.867  16.206   7.538 -0.1375 -0.0240  0.0253
 1106DPPI   C2B15820   4.789  16.163   7.930 -0.1007  0.1575 -0.1226
 1106DPPI   C3B15821   4.744  16.250   8.353  0.1107  0.2206 -0.1353
 1106DPPI   C4B15822   4.812  16.386   8.770  0.0171 -0.2840  0.0121
 1107DPPI    C115823   8.607  11.497   6.291 -0.3148 -0.0970  0.2251
 1107DPPI    C215824   8.374  11.670   6.015 -0.3904 -0.1456  0.2581
 1107DPPI    C315825   8.351  11.276   6.077  0.0218 -0.2245 -0.0545
 1107DPPI   PO415826   8.547  11.576   6.552  0.1632 -0.1276 -0.0912
 1107DPPI   GL115827   8.406  11.802   6.875  0.0087  0.1724  0.0247
 1107DPPI   GL215828   8.087  11.986   6.868 -0.1958 -0.2219 -0.1885
 1107DPPI   C1A15829   8.503  11.695   7.250  0.3573 -0.0815 -0.1319
 1107DPPI   C2A15830   8.517  11.636   7.744  0.1064 -0.0931  0.0097
 1107DPPI   C3A15831   8.649  11.769   8.144 -0.0957 -0.0741  0.1380
 1107DPPI   C4A15832   8.716  11.747   8.538  0.1861 -0.0198  0.2766
 1107DPPI   C1B15833   8.207  12.020   7.459 -0.1232  0.2330  0.0173
 1107DPPI   C2B15834   8.157  11.947   7.898 -0.0843  0.0184  0.1751
 1107DPPI   C3B15835   8.221  11.977   8.286 -0.0439  0.1058 -0.2451
 1107DPPI   C4B15836   8.179  11.874   8.721 -0.0076  0.1604 -0.0621
 1108DPPI    C115837  11.685  16.238   6.018 -0.0629  0.2103  0.1763
 1108DPPI    C215838  11.684  16.435   5.670 -0.1666  0.0182  0.0663
 1108DPPI    C315839  12.021  16.266   5.802 -0.1875 -0.1316 -0.0696
 1108DPPI   PO415840  11.567  16.353   6.130 -0.1452 -0.1384 -0.2180
 1108DPPI   GL115841  11.565  16.251   6.568 -0.0535  0.1568  0.0875
 1108DPPI   GL215842  11.798  16.070   6.772 -0.1873  0.1481  0.1488
 1108DPPI   C1A15843  11.472  16.394   7.009  0.0364  0.0215  0.1652
 1108DPPI   C2A15844  11.473  16.444   7.413 -0.0327  0.0314  0.0892
 1108DPPI   C3A15845  11.549  16.395   7.867 -0.0604  0.3487 -0.1806
 1108DPPI   C4A15846  11.521  16.390   8.272 -0.0093 -0.2939  0.0489
 1108DPPI   C1B15847  11.945  16.119   7.168  0.0857  0.1739  0.0486
 1108DPPI   C2B15848  11.962  16.120   7.645 -0.0242 -0.1273 -0.2660
 1108DPPI   C3B15849  11.900  16.117   8.105 -0.0945 -0.0379  0.0178
 1108DPPI   C4B15850  12.068  16.066   8.527 -0.3127 -0.1522  0.0255
 1109DPPI    C115851   2.490   4.975   6.416 -0.0144  0.1196  0.1244
 1109DPPI    C215852   2.221   5.198   6.222  0.1476 -0.0144 -0.2627
 1109DPPI    C315853   2.104   4.872   6.421 -0.0333  0.1802 -0.0440
 1109DPPI   PO415854   2.616   5.147   6.575 -0.3726 -0.2939 -0.1243
 1109DPPI   GL115855   2.808   5.164   6.960  0.0356 -0.2043  0.0892
 1109DPPI   GL215856   2.727   5.496   6.935 -0.1218 -0.0322  0.0894
 1109DPPI   C1A15857   2.792   4.998   7.411  0.3374 -0.1323  0.1007
 1109DPPI   C2A15858   2.782   5.055   7.885  0.0342  0.0920 -0.2223
 1109DPPI   C3A15859   2.877   5.202   8.322  0.1734  0.0390 -0.2087
 1109DPPI   C4A15860   2.834   5.288   8.679 -0.1219 -0.3086 -0.1804
 1109DPPI   C1B15861   2.700   5.632   7.361 -0.0091  0.1701 -0.0134
 1109DPPI   C2B15862   2.660   5.644   7.845 -0.3085 -0.1126 -0.1274
 1109DPPI   C3B15863   2.719   5.667   8.305  0.0721  0.2630 -0.2676
 1109DPPI   C4B15864   2.689   5.845   8.712 -0.3554  0.0151 -0.1999
 1110DPPI    C115865   0.248  11.435   6.050 -0.0232 -0.0101 -0.0313
 1110DPPI    C215866   0.146  11.816   6.119  0.1387  0.0457 -0.0950
 1110DPPI    C315867   0.402  11.727   5.825  0.1146 -0.1115 -0.0698
 1110DPPI   PO415868   0.166  11.331   6.369 -0.3217  0.0402 -0.0719
 1110DPPI   GL115869   0.212  10.967   6.566  0.0651 -0.1024 -0.2417
 1110DPPI   GL215870   0.005  10.866   6.879  0.1879  0.2299 -0.1931
 1110DPPI   C1A15871   0.418  11.121   6.908  0.0142  0.0256  0.3937
 1110DPPI   C2A15872   0.487  11.244   7.323 -0.2217  0.2339  0.1407
 1110DPPI   C3A15873   0.500  11.257   7.810  0.0242  0.3839  0.0320
 1110DPPI   C4A15874   0.520  11.375   8.177  0.2547  0.1630 -0.1245
 1110DPPI   C1B15875   0.019  10.936   7.315  0.1303 -0.0238 -0.0996
 1110DPPI   C2B15876   0.129  10.939   7.692 -0.0056 -0.1295 -0.1760
 1110DPPI   C3B15877   0.075  11.025   8.084  0.0625  0.1146  0.0864
 1110DPPI   C4B15878   0.102  11.074   8.537  0.0811 -0.0351  0.0417
 1111DPPI    C115879   1.568   6.380   6.427 -0.0344 -0.1742 -0.0592
 1111DPPI    C215880   1.234   6.522   6.258  0.1079  0.0078 -0.1911
 1111DPPI    C315881   1.514   6.775   6.392  0.1346 -0.1413  0.0402
 1111DPPI   PO415882   1.512   6.193   6.579  0.1651 -0.0189  0.0147
 1111DPPI   GL115883   1.405   6.121   6.934  0.2178  0.1193 -0.1939
 1111DPPI   GL215884   1.660   6.089   7.095  0.1701  0.0349 -0.2134
 1111DPPI   C1A15885   1.233   6.410   7.324 -0.1284  0.1564 -0.2035
 1111DPPI   C2A15886   1.266   6.391   7.806  0.0113  0.1706  0.0296
 1111DPPI   C3A15887   1.251   6.394   8.214 -0.2356 -0.1033 -0.0786
 1111DPPI   C4A15888   1.232   6.219   8.569  0.1431  0.0074 -0.0717
 1111DPPI   C1B15889   1.674   6.181   7.518  0.0540  0.2082  0.1818
 1111DPPI   C2B15890   1.748   6.160   7.942 -0.2318 -0.1297 -0.1079
 1111DPPI   C3B15891   1.813   6.116   8.382  0.1672  0.0100 -0.0979
 1111DPPI   C4B15892   1.762   6.146   8.784  0.0038 -0.1983 -0.1546
 1112DPPI    C115893   2.709   1.346   6.366 -0.2462  0.0288 -0.0127
 1112DPPI    C215894   2.951   1.332   6.047  0.0113  0.1343  0.1744
 1112DPPI    C315895   2.555   1.306   5.999  0.0535  0.0338 -0.1426
 1112DPPI   PO415896   2.768   1.546   6.540 -0.2734 -0.0818  0.1360
 1112DPPI   GL115897   2.572   1.645   6.959 -0.2034  0.1112 -0.1668
 1112DPPI   GL215898   2.145   1.661   6.784 -0.1369 -0.0091  0.0791
 1112DPPI   C1A15899   2.384   1.677   7.438  0.2387  0.2014  0.1086
 1112DPPI   C2A15900   2.323   1.573   7.952  0.0506 -0.1978 -0.1874
 1112DPPI   C3A15901   2.468   1.567   8.317 -0.0039  0.2363  0.2544
 1112DPPI   C4A15902   2.577   1.922   8.578 -0.0767  0.3466  0.1381
 1112DPPI   C1B15903   2.197   1.296   7.196 -0.1229  0.1313  0.2719
 1112DPPI   C2B15904   2.261   1.147   7.670  0.2830 -0.1566 -0.0363
 1112DPPI   C3B15905   2.211   1.112   8.173  0.0741 -0.0380 -0.1001
 1112DPPI   C4B15906   2.532   1.039   8.483  0.0055  0.3496  0.1167
 1113DPPI    C115907   0.033   2.608   6.259 -0.2983  0.1062 -0.0519
 1113DPPI    C215908   0.216   2.792   5.955  0.1330 -0.1052  0.0715
 1113DPPI    C315909   0.132   2.402   5.931 -0.2475 -0.0256  0.0454
 1113DPPI   PO415910   0.233   2.747   6.487  0.4163  0.1203 -0.0640
 1113DPPI   GL115911   0.260   2.891   6.910 -0.1736 -0.2507  0.0080
 1113DPPI   GL215912   0.515   2.856   7.002  0.2172 -0.2161  0.2306
 1113DPPI   C1A15913   0.180   3.174   7.266 -0.3958 -0.1719 -0.4231
 1113DPPI   C2A15914   0.071   3.282   7.644  0.2899  0.5252  0.1403
 1113DPPI   C3A15915   0.171   3.218   8.069  0.1754  0.3484  0.0616
 1113DPPI   C4A15916   0.246   3.412   8.470  0.1176 -0.0213 -0.2782
 1113DPPI   C1B15917   0.402   2.753   7.406 -0.1959 -0.1339  0.1623
 1113DPPI   C2B15918   0.356   2.783   7.864  0.1732  0.0781 -0.0639
 1113DPPI   C3B15919   0.426   2.774   8.244 -0.1295 -0.1379  0.1162
 1113DPPI   C4B15920   0.632   2.562   8.532  0.2708 -0.0941 -0.1027
 1114DPPI    C115921   0.056   5.757   6.282 -0.2462 -0.1562 -0.1448
 1114DPPI    C215922   0.092   6.143   6.183 -0.3520 -0.0417  0.2469
 1114DPPI    C315923   0.015   5.871   5.901  0.2238  0.1496 -0.1127
 1114DPPI   PO415924   0.100   5.751   6.547 -0.0274 -0.1381 -0.0590
 1114DPPI   GL115925   0.144   5.537   6.933 -0.0466  0.1835 -0.0607
 1114DPPI   GL215926   0.119   5.909   7.029  0.1557 -0.1195  0.0871
 1114DPPI   C1A15927   0.031   5.425   7.344  0.0460 -0.0290 -0.0373
 1114DPPI   C2A15928   0.062   5.479   7.826 -0.2454 -0.1215 -0.0392
 1114DPPI   C3A15929   0.041   5.419   8.224  0.2486  0.0135 -0.1794
 1114DPPI   C4A15930   0.143   5.169   8.411  0.2405  0.0239 -0.0110
 1114DPPI   C1B15931   0.034   5.989   7.537  0.1390 -0.1668 -0.4078
 1114DPPI   C2B15932  -0.037   5.966   8.029 -0.0765 -0.3843  0.1353
 1114DPPI   C3B15933   0.006   5.851   8.431  0.1154 -0.1169  0.0814
 1114DPPI   C4B15934  -0.043   5.604   8.827  0.1565 -0.0781  0.2362
 1115DPPI    C115935   8.926   0.029   6.033 -0.0236 -0.1242  0.4567
 1115DPPI    C215936   8.711  -0.306   6.072  0.0123 -0.2223 -0.1078
 1115DPPI    C315937   9.062  -0.315   5.880  0.2109  0.0653  0.2301
 1115DPPI   PO415938   8.958   0.153   6.312  0.7240  0.0223 -0.1227
 1115DPPI   GL115939   8.801   0.363   6.618 -0.0575 -0.0249 -0.0794
 1115DPPI   GL215940   8.843   0.627   6.782  0.0814 -0.1420 -0.0852
 1115DPPI   C1A15941   8.854   0.153   7.022 -0.2150 -0.3737  0.0261
 1115DPPI   C2A15942   9.165   0.224   7.266  0.0587  0.1102 -0.1231
 1115DPPI   C3A15943   9.284   0.255   7.634  0.1721  0.0663 -0.1850
 1115DPPI   C4A15944   9.204   0.286   8.120  0.1405 -0.2527 -0.0211
 1115DPPI   C1B15945   9.160   0.661   7.031  0.0554  0.2535 -0.3050
 1115DPPI   C2B15946   9.291   0.774   7.472 -0.1815  0.0571 -0.0364
 1115DPPI   C3B15947   9.228   0.785   7.874  0.1216 -0.1643  0.2885
 1115DPPI   C4B15948   9.290   0.875   8.313 -0.0119  0.2888  0.0171
 1116DPPI    C115949   9.606  16.604   5.995  0.0277  0.1700  0.1713
 1116DPPI    C215950   9.964  16.434   6.046 -0.0253  0.0246  0.0657
 1116DPPI    C315951   9.671  16.231   5.866 -0.1392  0.1694  0.0863
 1116DPPI   PO415952   9.529  16.642   6.188  0.2132 -0.0246 -0.0776
 1116DPPI   GL115953   9.697  16.624   6.619 -0.0580 -0.0554  0.1576
 1116DPPI   GL215954   9.552  16.878   6.877  0.0281  0.1514 -0.2095
 1116DPPI   C1A15955  10.040  16.397   6.889 -0.1122 -0.1558 -0.2163
 1116DPPI   C2A15956   9.972  16.357   7.315  0.0449  0.1570 -0.1213
 1116DPPI   C3A15957  10.110  16.422   7.749  0.0524 -0.0780 -0.1760
 1116DPPI   C4A15958  10.079  16.231   8.176  0.2661  0.1958 -0.0509
 1116DPPI   C1B15959   9.639  17.001   7.172 -0.2853  0.2342  0.0466
 1116DPPI   C2B15960   9.722  17.083   7.546 -0.2480  0.0829 -0.1836
 1116DPPI   C3B15961   9.690  17.111   7.994  0.1488 -0.0864 -0.0423
 1116DPPI   C4B15962   9.739  17.104   8.373  0.2092  0.1250 -0.0126
 1117DPPI    C115963   4.929  14.459   6.341 -0.1061  0.1578 -0.0280
 1117DPPI    C215964   5.057  14.218   6.049 -0.2056 -0.1424  0.1715
 1117DPPI    C315965   4.793  14.507   5.968  0.0621  0.0296 -0.1068
 1117DPPI   PO415966   5.100  14.415   6.549 -0.1012  0.0815 -0.0283
 1117DPPI   GL115967   5.150  14.280   6.858  0.1378  0.1858 -0.1261
 1117DPPI   GL215968   5.022  14.034   6.966  0.1891  0.0683  0.0599
 1117DPPI   C1A15969   5.460  14.290   7.127 -0.1795 -0.1145  0.2975
 1117DPPI   C2A15970   5.510  14.183   7.566 -0.0856  0.1159  0.1678
 1117DPPI   C3A15971   5.621  14.280   7.963  0.1331  0.2330  0.0860
 1117DPPI   C4A15972   5.537  14.531   8.332 -0.3215 -0.0619 -0.2237
 1117DPPI   C1B15973   5.050  14.118   7.408  0.0105  0.2942 -0.1086
 1117DPPI   C2B15974   4.818  14.279   7.663 -0.2906 -0.1907 -0.1587
 1117DPPI   C3B15975   4.693  14.122   8.098 -0.0046 -0.0816  0.0934
 1117DPPI   C4B15976   4.782  13.873   8.501  0.3503  0.1003 -0.2338
 1118DPPI    C115977  14.299   2.562   5.959  0.1560  0.0305  0.1593
 1118DPPI    C215978  14.674   2.587   5.823  0.0918  0.1670  0.0034
 1118DPPI    C315979  14.373   2.732   5.604 -0.0957 -0.2884 -0.0519
 1118DPPI   PO415980  14.320   2.736   6.209 -0.3710  0.1530 -0.0587
 1118DPPI   GL115981  14.017   2.864   6.544 -0.2631 -0.0874  0.0435
 1118DPPI   GL215982  13.913   2.585   6.683 -0.1018 -0.0864  0.2033
 1118DPPI   C1A15983  14.200   2.934   6.996  0.0128 -0.1403  0.2453
 1118DPPI   C2A15984  14.305   2.824   7.316  0.0572  0.2244 -0.1240
 1118DPPI   C3A15985  14.323   2.869   7.773  0.0831  0.4640 -0.0017
 1118DPPI   C4A15986  14.263   2.898   8.225  0.1474 -0.2903  0.0328
 1118DPPI   C1B15987  13.898   2.560   7.164  0.0220 -0.2792  0.0013
 1118DPPI   C2B15988  13.913   2.659   7.565  0.0204 -0.2659 -0.4015
 1118DPPI   C3B15989  13.809   2.585   7.997  0.0291 -0.1664  0.2813
 1118DPPI   C4B15990  13.903   2.586   8.409  0.1268 -0.3001 -0.0602
 1119DPPI    C115991   2.915   8.861   6.133  0.1185  0.0010  0.0814
 1119DPPI    C215992   2.651   9.043   5.894 -0.0436 -0.2419  0.0721
 1119DPPI    C315993   2.956   8.839   5.736  0.2403  0.1612  0.0841
 1119DPPI   PO415994   2.778   8.718   6.263 -0.3463 -0.3164  0.2168
 1119DPPI   GL115995   2.863   8.427   6.585  0.1046  0.2833  0.1357
 1119DPPI   GL215996   2.961   8.124   6.407  0.2931 -0.0108  0.2509
 1119DPPI   C1A15997   2.930   8.600   6.983 -0.0465  0.0417  0.0248
 1119DPPI   C2A15998   2.976   8.624   7.475 -0.0501 -0.2457 -0.1147
 1119DPPI   C3A15999   2.954   8.630   8.015 -0.0834  0.0501 -0.1402
 1119DPPI   C4A16000   2.858   8.526   8.485  0.0207  0.0058  0.0609
 1119DPPI   C1B16001   2.956   8.039   6.860 -0.2583 -0.1149  0.0930
 1119DPPI   C2B16002   3.063   8.101   7.252  0.2390  0.1127  0.1802
 1119DPPI   C3B16003   2.991   8.210   7.734  0.2673 -0.1867  0.0953
 1119DPPI   C4B16004   2.928   8.105   8.141 -0.1393 -0.1059 -0.3322
 1120DPPI    C116005  11.333  11.503   6.062  0.1566 -0.1537  0.0004
 1120DPPI    C216006  10.954  11.388   6.124  0.0470  0.2145  0.0374
 1120DPPI    C316007  11.043  11.626   5.815  0.2251  0.2502  0.1150
 1120DPPI   PO416008  11.448  11.420   6.323  0.3024  0.2935  0.4716
 1120DPPI   GL116009  11.278  11.404   6.729 -0.1590 -0.1652  0.2403
 1120DPPI   GL216010  11.568  11.313   6.794 -0.2035 -0.1674 -0.0762
 1120DPPI   C1A16011  11.360  11.518   7.218 -0.1380  0.0153  0.0688
 1120DPPI   C2A16012  11.419  11.484   7.650 -0.0440 -0.1162  0.2520
 1120DPPI   C3A16013  11.391  11.584   8.100  0.2021  0.0840 -0.1263
 1120DPPI   C4A16014  11.481  11.466   8.542 -0.0416 -0.1631  0.0994
 1120DPPI   C1B16015  11.768  11.246   7.244 -0.1395  0.1795  0.1040
 1120DPPI   C2B16016  11.863  11.200   7.638 -0.4431 -0.1598  0.1912
 1120DPPI   C3B16017  11.786  11.207   8.160 -0.1998 -0.1202 -0.0645
 1120DPPI   C4B16018  11.896  11.135   8.654  0.2190  0.2744  0.2376
 1121DPPI    C116019  14.403   8.475   6.322  0.0086  0.0562 -0.1260
 1121DPPI    C216020  14.111   8.496   6.594  0.0236 -0.1948 -0.0888
 1121DPPI    C316021  14.032   8.574   6.210 -0.0685 -0.1566 -0.0625
 1121DPPI   PO416022  14.577   8.368   6.492  0.0750  0.2182 -0.0002
 1121DPPI   GL116023  14.568   8.229   6.909  0.0834 -0.4128 -0.1566
 1121DPPI   GL216024  14.366   8.491   7.094 -0.0205  0.2160 -0.0945
 1121DPPI   C1A16025  14.895   8.223   7.241 -0.2077 -0.3086 -0.1452
 1121DPPI   C2A16026  14.798   8.058   7.591  0.2725 -0.0349  0.0390
 1121DPPI   C3A16027  14.962   8.147   7.977 -0.0696  0.1137 -0.3062
 1121DPPI   C4A16028  15.079   7.866   8.255 -0.2263 -0.0664  0.0178
 1121DPPI   C1B16029  14.473   8.394   7.489  0.2903 -0.0877 -0.2677
 1121DPPI   C2B16030  14.586   8.456   7.945 -0.2035  0.1184 -0.1595
 1121DPPI   C3B16031  14.634   8.299   8.354 -0.0246  0.1172  0.1486
 1121DPPI   C4B16032  14.905   8.245   8.575  0.2476  0.0563 -0.1489
 1122DPPI    C116033   2.637  10.938   6.459 -0.0022 -0.1000 -0.0361
 1122DPPI    C216034   2.541  11.268   6.663 -0.0543 -0.2465  0.1809
 1122DPPI    C316035   2.781  11.292   6.344 -0.0333 -0.0042  0.2130
 1122DPPI   PO416036   2.378  10.736   6.453  0.1654 -0.0920 -0.0145
 1122DPPI   GL116037   2.282  10.499   6.825 -0.3176 -0.0109  0.3301
 1122DPPI   GL216038   2.485  10.759   6.975  0.1414  0.1206  0.2071
 1122DPPI   C1A16039   1.937  10.587   7.050 -0.1035  0.1993 -0.1284
 1122DPPI   C2A16040   1.863  10.687   7.458  0.0744 -0.0226  0.1639
 1122DPPI   C3A16041   1.791  10.866   7.885 -0.1009 -0.1457  0.1164
 1122DPPI   C4A16042   1.816  10.978   8.418 -0.1345  0.3419 -0.0250
 1122DPPI   C1B16043   2.405  10.698   7.385 -0.0384  0.2974  0.1562
 1122DPPI   C2B16044   2.266  10.777   7.741  0.3743 -0.0897 -0.1535
 1122DPPI   C3B16045   2.293  10.883   8.229 -0.2110 -0.0634  0.2454
 1122DPPI   C4B16046   2.299  10.901   8.593 -0.2178 -0.1082 -0.1844
 1123DPPI    C116047   6.713   2.009   6.084  0.1172 -0.1408  0.0630
 1123DPPI    C216048   7.083   2.007   6.236  0.1986 -0.0905 -0.1328
 1123DPPI    C316049   6.965   2.307   5.999  0.0290 -0.1020 -0.0642
 1123DPPI   PO416050   6.533   1.883   6.337  0.0905 -0.0208  0.0583
 1123DPPI   GL116051   6.474   1.990   6.836 -0.2551 -0.0341  0.0351
 1123DPPI   GL216052   6.283   2.272   6.910  0.0868  0.1157 -0.0787
 1123DPPI   C1A16053   6.642   2.041   7.194 -0.0879 -0.3417  0.1505
 1123DPPI   C2A16054   6.513   1.930   7.658  0.1134 -0.0269  0.2360
 1123DPPI   C3A16055   6.569   1.920   8.078 -0.2532  0.0877  0.1395
 1123DPPI   C4A16056   6.787   1.924   8.487  0.0587 -0.1797 -0.0250
 1123DPPI   C1B16057   6.097   2.248   7.292  0.0382 -0.2580  0.2232
 1123DPPI   C2B16058   6.118   2.224   7.700  0.0328  0.0052  0.2400
 1123DPPI   C3B16059   6.186   2.194   8.163 -0.4723  0.1408  0.0574
 1123DPPI   C4B16060   6.319   2.140   8.568  0.2422 -0.1763 -0.2327
 1124DPPI    C116061   1.259   4.455   6.493  0.0490  0.0053  0.1029
 1124DPPI    C216062   1.297   4.172   6.213  0.0543 -0.1704  0.2789
 1124DPPI    C316063   1.294   4.558   6.108  0.1884 -0.2296  0.0507
 1124DPPI   PO416064   1.342   4.243   6.698  0.2853 -0.2661 -0.0576
 1124DPPI   GL116065   1.562   4.352   6.997  0.3912  0.1025 -0.1164
 1124DPPI   GL216066   1.973   4.322   7.169 -0.1509  0.0031 -0.0469
 1124DPPI   C1A16067   1.475   4.267   7.416  0.2110 -0.1207  0.3399
 1124DPPI   C2A16068   1.476   4.263   7.891 -0.0419  0.1766 -0.4303
 1124DPPI   C3A16069   1.500   4.307   8.373  0.1539  0.0089  0.0546
 1124DPPI   C4A16070   1.703   4.345   8.778  0.1466  0.0669 -0.0697
 1124DPPI   C1B16071   1.915   4.499   7.595  0.0094 -0.2494  0.0456
 1124DPPI   C2B16072   1.904   4.531   8.048 -0.0881  0.0745 -0.1558
 1124DPPI   C3B16073   2.079   4.597   8.479 -0.1252  0.2115 -0.1460
 1124DPPI   C4B16074   2.057   4.651   8.937  0.0952 -0.0799  0.0495
 1125DPPI    C116075   6.952   6.025   6.441 -0.1418  0.0898  0.0452
 1125DPPI    C216076   7.142   6.202   6.137  0.0786 -0.1247  0.0544
 1125DPPI    C316077   6.892   5.898   6.066 -0.1021  0.0200  0.0622
 1125DPPI   PO416078   7.128   6.024   6.637  0.0627  0.2692  0.1922
 1125DPPI   GL116079   6.989   5.879   7.021 -0.2125  0.0500 -0.0125
 1125DPPI   GL216080   6.677   5.741   7.130 -0.1534  0.0084  0.1619
 1125DPPI   C1A16081   7.210   5.988   7.399  0.2049  0.1185 -0.3619
 1125DPPI   C2A16082   7.145   5.993   7.858  0.0457 -0.1972  0.1480
 1125DPPI   C3A16083   7.144   5.959   8.317 -0.0599  0.2170 -0.1027
 1125DPPI   C4A16084   7.057   6.237   8.694 -0.0585 -0.0032  0.0376
 1125DPPI   C1B16085   6.783   5.730   7.587  0.1591  0.1986  0.0597
 1125DPPI   C2B16086   6.742   5.722   7.967  0.0575  0.0170 -0.1370
 1125DPPI   C3B16087   6.627   5.816   8.315 -0.2140 -0.1720 -0.0059
 1125DPPI   C4B16088   6.491   6.168   8.619 -0.2225  0.1901  0.0486
 1126DPPI    C116089   7.813   7.597   6.160  0.1609 -0.1214 -0.1678
 1126DPPI    C216090   7.527   7.870   6.099  0.0274 -0.1576  0.2665
 1126DPPI    C316091   7.516   7.521   5.904  0.0820  0.0578 -0.1311
 1126DPPI   PO416092   7.762   7.601   6.445  0.0775  0.0290  0.1077
 1126DPPI   GL116093   7.942   7.665   6.807 -0.0317  0.0378  0.0300
 1126DPPI   GL216094   7.800   7.354   6.986 -0.4620  0.1183  0.2639
 1126DPPI   C1A16095   7.829   7.914   7.117  0.5875  0.3331 -0.0800
 1126DPPI   C2A16096   7.913   7.869   7.598 -0.1375 -0.1724 -0.0145
 1126DPPI   C3A16097   7.903   7.809   7.978 -0.1447 -0.3787 -0.1332
 1126DPPI   C4A16098   7.958   7.794   8.330  0.3982 -0.2140 -0.1164
 1126DPPI   C1B16099   7.876   7.337   7.420 -0.0972  0.1855  0.0096
 1126DPPI   C2B16100   7.933   7.340   7.844  0.3202 -0.1392  0.1862
 1126DPPI   C3B16101   7.813   7.292   8.282 -0.1404  0.3203  0.1826
 1126DPPI   C4B16102   7.588   7.196   8.742  0.0172 -0.2133 -0.1033
 1127DPPI    C116103   3.642  16.694   6.075 -0.1737  0.1875  0.1228
 1127DPPI    C216104   3.379  16.859   5.823 -0.1282  0.1036  0.0194
 1127DPPI    C316105   3.561  16.517   5.725 -0.2482 -0.0280  0.2477
 1127DPPI   PO416106   3.489  16.683   6.268 -0.3250  0.1752 -0.2229
 1127DPPI   GL116107   3.541  16.887   6.663 -0.0125  0.3250  0.0758
 1127DPPI   GL216108   3.588  17.168   6.821  0.0828 -0.0826  0.1169
 1127DPPI   C1A16109   3.434  16.797   7.126  0.2923  0.2555 -0.0200
 1127DPPI   C2A16110   3.514  16.736   7.508 -0.1395  0.1878 -0.0501
 1127DPPI   C3A16111   3.623  16.674   8.020 -0.0650  0.1837  0.0186
 1127DPPI   C4A16112   3.423  16.386   8.312 -0.4194 -0.1083  0.2710
 1127DPPI   C1B16113   3.534  17.354   7.209 -0.0597  0.0732 -0.0415
 1127DPPI   C2B16114   3.461  17.411   7.662  0.2955 -0.2875  0.1598
 1127DPPI   C3B16115   3.607  17.374   8.147 -0.2944  0.1932 -0.0291
 1127DPPI   C4B16116   3.648  17.262   8.510 -0.0113  0.1421  0.1872
 1128DPPI    C116117  15.277  12.692   6.064  0.1404  0.1962  0.0004
 1128DPPI    C216118  15.534  12.915   5.854  0.0419  0.0455 -0.2865
 1128DPPI    C316119  15.173  13.061   5.949  0.0439  0.0727 -0.3203
 1128DPPI   PO416120  15.418  12.584   6.338 -0.0110 -0.2432 -0.2357
 1128DPPI   GL116121  15.446  12.504   6.765 -0.0785 -0.1629  0.1126
 1128DPPI   GL216122  15.747  12.549   6.819  0.1939 -0.0950 -0.1336
 1128DPPI   C1A16123  15.318  12.532   7.260 -0.1783  0.2793  0.1037
 1128DPPI   C2A16124  15.394  12.647   7.723  0.0200 -0.2341  0.1893
 1128DPPI   C3A16125  15.424  12.757   8.143 -0.0815  0.3135  0.1890
 1128DPPI   C4A16126  15.382  12.775   8.567 -0.2355 -0.0490 -0.0292
 1128DPPI   C1B16127  15.753  12.824   7.163  0.2142  0.2796 -0.1119
 1128DPPI   C2B16128  15.854  12.945   7.583 -0.1366 -0.0606  0.1134
 1128DPPI   C3B16129  15.874  13.044   8.007  0.0687  0.0742 -0.2507
 1128DPPI   C4B16130  15.774  13.067   8.391  0.6133  0.0799 -0.0605
 1129DPPI    C116131   1.651  10.138   6.001  0.0768  0.2016 -0.0011
 1129DPPI    C216132   1.529   9.790   5.846  0.0382  0.1662  0.1080
 1129DPPI    C316133   1.788  10.018   5.645  0.1129  0.0443  0.0648
 1129DPPI   PO416134   1.690  10.087   6.331 -0.0498  0.1582  0.1884
 1129DPPI   GL116135   1.397  10.014   6.750 -0.1195  0.2949  0.1756
 1129DPPI   GL216136   1.059   9.976   6.779  0.2933  0.0565  0.1276
 1129DPPI   C1A16137   1.517   9.794   7.040 -0.0817 -0.3773 -0.0685
 1129DPPI   C2A16138   1.556   9.805   7.520 -0.2273  0.0531 -0.0418
 1129DPPI   C3A16139   1.596   9.886   7.882  0.2745  0.0308  0.0270
 1129DPPI   C4A16140   1.581   9.715   8.290  0.1932 -0.0725 -0.0332
 1129DPPI   C1B16141   1.071   9.978   7.250  0.1610  0.1457 -0.0937
 1129DPPI   C2B16142   1.126  10.063   7.720  0.4601  0.1251 -0.0136
 1129DPPI   C3B16143   1.078   9.979   8.185  0.0824  0.2319 -0.1850
 1129DPPI   C4B16144   1.094  10.136   8.643 -0.3562  0.2689  0.3028
 1130DPPI    C116145   8.947  14.815   6.449 -0.2032  0.1149 -0.1642
 1130DPPI    C216146   9.149  14.963   6.137 -0.1651  0.0937 -0.1497
 1130DPPI    C316147   9.072  14.571   6.158 -0.0677  0.0780 -0.0761
 1130DPPI   PO416148   8.996  14.865   6.654 -0.0682 -0.1272 -0.1893
 1130DPPI   GL116149   8.803  14.929   6.979  0.1032  0.1070 -0.0356
 1130DPPI   GL216150   8.870  15.181   7.163 -0.4107  0.1457  0.1223
 1130DPPI   C1A16151   8.746  14.620   7.360  0.2662  0.0485 -0.2253
 1130DPPI   C2A16152   8.803  14.665   7.872  0.2223 -0.0672 -0.1558
 1130DPPI   C3A16153   8.654  14.555   8.241 -0.1044 -0.3328 -0.0444
 1130DPPI   C4A16154   8.504  14.528   8.675  0.2113  0.0006  0.0657
 1130DPPI   C1B16155   9.018  15.063   7.523  0.1156 -0.1856 -0.2143
 1130DPPI   C2B16156   9.063  15.052   7.980  0.3683 -0.0142  0.2663
 1130DPPI   C3B16157   9.131  14.904   8.383 -0.0991 -0.0317 -0.0183
 1130DPPI   C4B16158   9.069  14.581   8.672 -0.0159  0.0849  0.1444
 1131DPPI    C116159  15.022  10.821   6.376  0.1578  0.0138  0.0291
 1131DPPI    C216160  14.685  10.934   6.193  0.1614  0.0277  0.0312
 1131DPPI    C316161  14.902  10.633   6.044  0.1440  0.0136  0.0342
 1131DPPI   PO416162  14.982  10.817   6.584  0.0857 -0.0237  0.1516
 1131DPPI   GL116163  14.819  10.829   6.995  0.2769  0.0046 -0.1851
 1131DPPI   GL216164  15.112  10.841   7.115 -0.2402 -0.1023 -0.0627
 1131DPPI   C1A16165  14.711  10.674   7.416 -0.0280 -0.0738  0.4720
 1131DPPI   C2A16166  14.860  10.666   7.871  0.1044 -0.1263  0.2889
 1131DPPI   C3A16167  14.921  10.627   8.300  0.1810 -0.0445  0.0829
 1131DPPI   C4A16168  14.671  10.393   8.584  0.1281  0.2869 -0.1374
 1131DPPI   C1B16169  15.066  11.125   7.506 -0.1343  0.3057  0.2974
 1131DPPI   C2B16170  15.110  11.367   7.843 -0.1994 -0.1025 -0.2027
 1131DPPI   C3B16171  15.283  11.614   8.172  0.2511  0.0716  0.0222
 1131DPPI   C4B16172  15.418  11.730   8.501 -0.0644 -0.1947 -0.1711
 1132DPPI    C116173   5.464  15.867   6.144  0.0816  0.1879  0.0068
 1132DPPI    C216174   5.083  15.780   6.060  0.1181 -0.0603  0.0912
 1132DPPI    C316175   5.253  16.105   5.901  0.0071 -0.1945 -0.3126
 1132DPPI   PO416176   5.416  15.894   6.433 -0.0577  0.1094  0.0906
 1132DPPI   GL116177   5.575  15.801   6.872 -0.1113 -0.2596 -0.0658
 1132DPPI   GL216178   5.543  16.063   7.084  0.0147  0.0489 -0.1309
 1132DPPI   C1A16179   5.688  15.616   7.277  0.1855  0.0940 -0.5061
 1132DPPI   C2A16180   5.787  15.694   7.693  0.1400  0.0150 -0.3327
 1132DPPI   C3A16181   5.669  15.614   8.205 -0.2113 -0.0772  0.3443
 1132DPPI   C4A16182   5.469  15.686   8.694 -0.1799  0.2149 -0.0772
 1132DPPI   C1B16183   5.369  15.999   7.453  0.2393  0.1968 -0.2175
 1132DPPI   C2B16184   5.200  15.961   7.880  0.0007 -0.0035 -0.0017
 1132DPPI   C3B16185   5.137  15.886   8.306  0.1402  0.0879 -0.0350
 1132DPPI   C4B16186   4.992  15.973   8.714  0.1405 -0.0998  0.3160
 1133DPPI    C116187   4.138   3.791   6.408 -0.0526 -0.0221 -0.1374
 1133DPPI    C216188   3.898   3.926   6.117  0.0261  0.0391 -0.1743
 1133DPPI    C316189   3.908   3.535   6.203 -0.1712  0.0501 -0.0959
 1133DPPI   PO416190   4.062   3.906   6.620 -0.0691 -0.1857  0.2973
 1133DPPI   GL116191   3.918   4.125   6.981 -0.0332 -0.0626  0.1544
 1133DPPI   GL216192   4.222   4.079   7.079 -0.0707 -0.1571 -0.0068
 1133DPPI   C1A16193   3.786   4.285   7.387  0.0180  0.2680  0.1573
 1133DPPI   C2A16194   3.743   4.236   7.780  0.1356  0.0617  0.0004
 1133DPPI   C3A16195   3.807   4.096   8.185  0.0675  0.0046 -0.0246
 1133DPPI   C4A16196   3.798   3.817   8.585  0.1896 -0.0277  0.3084
 1133DPPI   C1B16197   4.269   4.057   7.544 -0.0577 -0.1755 -0.0738
 1133DPPI   C2B16198   4.279   4.051   7.977 -0.0729  0.0849  0.1033
 1133DPPI   C3B16199   4.234   3.856   8.346  0.1221 -0.1020  0.1859
 1133DPPI   C4B16200   4.249   3.978   8.734  0.0112  0.1041 -0.1016
 1134DPPI    C116201   5.987  13.472   6.575  0.0374  0.1087 -0.3320
 1134DPPI    C216202   5.715  13.724   6.427 -0.0564  0.0916 -0.1901
 1134DPPI    C316203   5.852  13.424   6.202 -0.1157  0.1314 -0.2800
 1134DPPI   PO416204   6.120  13.392   6.705 -0.0279  0.0814  0.1581
 1134DPPI   GL116205   6.194  13.488   7.122 -0.0210  0.3120 -0.0003
 1134DPPI   GL216206   6.374  13.250   7.095  0.0425  0.1604  0.0865
 1134DPPI   C1A16207   6.430  13.366   7.566  0.0034 -0.3407 -0.0402
 1134DPPI   C2A16208   6.475  13.252   8.003 -0.1870  0.0590 -0.1011
 1134DPPI   C3A16209   6.518  13.206   8.430  0.0271  0.0419 -0.1654
 1134DPPI   C4A16210   6.510  13.257   8.896  0.1593 -0.2604 -0.1902
 1134DPPI   C1B16211   6.050  13.029   7.420  0.0751 -0.2609  0.2183
 1134DPPI   C2B16212   6.029  12.990   7.857 -0.0946 -0.1594  0.1425
 1134DPPI   C3B16213   6.073  12.920   8.166  0.1383 -0.4091  0.0388
 1134DPPI   C4B16214   6.030  13.051   8.488 -0.3492  0.0081 -0.0681
 1135DPPI    C116215  15.441  14.698   5.905  0.1574  0.0802  0.0653
 1135DPPI    C216216  15.123  14.625   5.673  0.0448 -0.0869  0.2681
 1135DPPI    C316217  15.194  14.996   5.805  0.0776 -0.0017  0.0157
 1135DPPI   PO416218  15.492  14.486   6.122  0.0681  0.1648  0.0501
 1135DPPI   GL116219  15.470  14.495   6.549  0.2674  0.1609 -0.1546
 1135DPPI   GL216220  15.190  14.519   6.626 -0.1596  0.0682 -0.0248
 1135DPPI   C1A16221  15.525  14.268   7.004  0.1804 -0.1116 -0.0237
 1135DPPI   C2A16222  15.369  14.302   7.410 -0.3344  0.0059  0.1701
 1135DPPI   C3A16223  15.380  14.381   7.758 -0.0697 -0.0643  0.3019
 1135DPPI   C4A16224  15.362  14.421   8.097 -0.0035 -0.1021  0.1998
 1135DPPI   C1B16225  15.452  14.756   7.037 -0.2521  0.0280 -0.0277
 1135DPPI   C2B16226  15.439  14.815   7.453  0.0325 -0.0800  0.3258
 1135DPPI   C3B16227  15.405  14.899   7.883 -0.0709 -0.1596  0.0311
 1135DPPI   C4B16228  15.279  15.062   8.272 -0.3140 -0.1323  0.1444
 1136DPPI    C116229   1.034  16.487   5.985  0.1955 -0.1668  0.0829
 1136DPPI    C216230   1.346  16.405   5.749  0.1925  0.0136  0.0147
 1136DPPI    C316231   1.153  16.108   5.935  0.3642 -0.1046  0.0072
 1136DPPI   PO416232   1.155  16.706   6.142  0.2053  0.0581  0.0278
 1136DPPI   GL116233   1.275  16.615   6.602 -0.0150  0.0236  0.4648
 1136DPPI   GL216234   0.942  16.756   6.623 -0.1082  0.3002 -0.2809
 1136DPPI   C1A16235   1.180  16.722   7.103  0.2680  0.0333 -0.0068
 1136DPPI   C2A16236   1.196  16.838   7.504  0.0934  0.2417  0.0719
 1136DPPI   C3A16237   1.174  16.738   7.991 -0.0307  0.0287  0.1643
 1136DPPI   C4A16238   1.115  16.604   8.491 -0.0511  0.0058 -0.1035
 1136DPPI   C1B16239   0.756  16.500   6.918 -0.1031 -0.1586 -0.2317
 1136DPPI   C2B16240   0.727  16.581   7.347  0.1041  0.1084  0.1468
 1136DPPI   C3B16241   0.741  16.519   7.739 -0.2573  0.1514  0.1684
 1136DPPI   C4B16242   0.675  16.571   8.187 -0.0149 -0.0093 -0.0383
 1137DPPI    C116243   4.326   9.523   6.500  0.0273  0.0357  0.1279
 1137DPPI    C216244   4.431   9.629   6.129 -0.3335  0.2495  0.0823
 1137DPPI    C316245   4.136   9.366   6.185  0.0025 -0.1094  0.2146
 1137DPPI   PO416246   4.545   9.508   6.684  0.0251 -0.1642 -0.1001
 1137DPPI   GL116247   4.932   9.475   6.959 -0.0843 -0.2411 -0.1950
 1137DPPI   GL216248   4.665   9.320   7.196  0.2431  0.1953 -0.0617
 1137DPPI   C1A16249   5.065   9.580   7.398  0.0350 -0.0434 -0.1640
 1137DPPI   C2A16250   5.048   9.555   7.836  0.0853  0.4199  0.0326
 1137DPPI   C3A16251   5.151   9.659   8.189 -0.0701 -0.0021  0.2380
 1137DPPI   C4A16252   5.467   9.593   8.452  0.4325  0.1149  0.0124
 1137DPPI   C1B16253   4.626   9.307   7.661  0.3526  0.1089  0.0973
 1137DPPI   C2B16254   4.659   9.328   8.084  0.2835 -0.1117 -0.0185
 1137DPPI   C3B16255   4.837   9.371   8.516  0.2207 -0.1464 -0.0013
 1137DPPI   C4B16256   4.617   9.381   8.879  0.1469 -0.0853  0.0787
 1138DPPI    C116257   0.642   7.301   6.429  0.1465  0.0908 -0.0803
 1138DPPI    C216258   0.797   7.552   6.159 -0.0214  0.2840  0.0008
 1138DPPI    C316259   0.423   7.418   6.116  0.1200 -0.0827 -0.1279
 1138DPPI   PO416260   0.848   7.343   6.603  0.1247  0.1612 -0.1618
 1138DPPI   GL116261   0.964   7.151   6.994  0.1967  0.0851  0.0631
 1138DPPI   GL216262   1.137   7.397   7.082  0.0431 -0.1641 -0.3145
 1138DPPI   C1A16263   0.799   7.090   7.405  0.4305 -0.0164  0.0087
 1138DPPI   C2A16264   0.779   7.114   7.823 -0.0223 -0.0146 -0.0397
 1138DPPI   C3A16265   0.748   7.065   8.212 -0.0452  0.1068 -0.1118
 1138DPPI   C4A16266   0.861   7.157   8.705  0.0037  0.4709  0.1924
 1138DPPI   C1B16267   1.153   7.429   7.604  0.2613 -0.0844  0.2474
 1138DPPI   C2B16268   1.154   7.377   7.975 -0.0720  0.1339  0.0343
 1138DPPI   C3B16269   1.180   7.322   8.387 -0.1390 -0.0271  0.1486
 1138DPPI   C4B16270   1.269   7.389   8.859  0.1537  0.2010 -0.0813
 1139DPPI    C116271  13.494  12.175   6.657 -0.0797 -0.0803 -0.0239
 1139DPPI    C216272  13.688  12.041   6.334  0.1102 -0.3242  0.1869
 1139DPPI    C316273  13.340  11.875   6.441 -0.0553 -0.1070 -0.0045
 1139DPPI   PO416274  13.659  12.125   6.852 -0.3116 -0.3238 -0.0837
 1139DPPI   GL116275  13.652  12.118   7.206 -0.0856  0.0277  0.0125
 1139DPPI   GL216276  13.543  12.400   7.244 -0.2618  0.2459  0.0582
 1139DPPI   C1A16277  13.741  12.015   7.673 -0.2681  0.2280  0.0739
 1139DPPI   C2A16278  13.677  11.966   8.095  0.2105  0.2098  0.1212
 1139DPPI   C3A16279  13.626  11.933   8.553  0.2083  0.1419 -0.2910
 1139DPPI   C4A16280  13.651  11.890   8.983 -0.1674  0.1561  0.1785
 1139DPPI   C1B16281  13.458  12.421   7.747  0.1845  0.0750  0.0581
 1139DPPI   C2B16282  13.385  12.359   8.173  0.0804 -0.0217 -0.3299
 1139DPPI   C3B16283  13.274  12.284   8.664  0.1581 -0.2743 -0.0604
 1139DPPI   C4B16284  13.184  12.025   8.990 -0.0478 -0.0348  0.0663
 1140DPPI    C116285  11.966  10.057   6.490  0.0633  0.3313 -0.0137
 1140DPPI    C216286  11.718  10.138   6.187  0.0779  0.3211 -0.0285
 1140DPPI    C316287  12.114  10.149   6.130  0.0819 -0.2152 -0.1532
 1140DPPI   PO416288  11.839  10.314   6.690 -0.2288 -0.0417  0.1050
 1140DPPI   GL116289  12.032  10.420   7.003 -0.0022  0.0735 -0.0034
 1140DPPI   GL216290  12.165  10.692   6.881 -0.2233 -0.1026 -0.0157
 1140DPPI   C1A16291  11.790  10.688   7.275  0.1586 -0.0563 -0.1006
 1140DPPI   C2A16292  11.920  10.688   7.748  0.0702  0.1031 -0.1444
 1140DPPI   C3A16293  11.826  10.662   8.245  0.2762  0.3021  0.3185
 1140DPPI   C4A16294  11.953  10.637   8.732  0.2017 -0.2445 -0.2588
 1140DPPI   C1B16295  12.184  10.996   7.202 -0.0984  0.3433 -0.3308
 1140DPPI   C2B16296  12.317  10.950   7.629 -0.0323  0.3046  0.1389
 1140DPPI   C3B16297  12.258  10.935   8.063 -0.1346  0.3765  0.4102
 1140DPPI   C4B16298  12.236  10.886   8.420 -0.0286  0.0597 -0.0237
 1141DPPI    C116299   9.970   7.363   6.204 -0.0956  0.0181 -0.1692
 1141DPPI    C216300  10.301   7.349   5.980 -0.0188  0.2043 -0.0694
 1141DPPI    C316301   9.978   7.542   5.846 -0.1007 -0.0083 -0.1826
 1141DPPI   PO416302  10.035   7.304   6.453  0.0070  0.0105 -0.2008
 1141DPPI   GL116303  10.273   7.546   6.875  0.0423  0.2283 -0.2652
 1141DPPI   GL216304  10.036   7.460   7.018 -0.0083 -0.1370  0.3105
 1141DPPI   C1A16305  10.489   7.178   7.079  0.1933 -0.1334  0.0841
 1141DPPI   C2A16306  10.506   7.155   7.519 -0.1013 -0.1767 -0.0426
 1141DPPI   C3A16307  10.429   7.105   7.890 -0.3025 -0.1056  0.1249
 1141DPPI   C4A16308  10.440   6.958   8.352  0.0152  0.2447  0.2417
 1141DPPI   C1B16309  10.106   7.510   7.415 -0.2411 -0.2431 -0.1318
 1141DPPI   C2B16310  10.096   7.479   7.913  0.2094  0.0262 -0.0338
 1141DPPI   C3B16311  10.137   7.412   8.377 -0.2430 -0.1341  0.0211
 1141DPPI   C4B16312  10.063   7.606   8.873  0.0979  0.0828 -0.2208
 1142DPPI    C116313  11.774  16.793   5.988 -0.2393 -0.0149 -0.0023
 1142DPPI    C216314  11.974  17.126   5.893 -0.3638  0.0571 -0.0140
 1142DPPI    C316315  11.681  16.994   5.655 -0.1210 -0.2234 -0.1634
 1142DPPI   PO416316  11.976  16.665   6.144 -0.2124 -0.1507  0.1116
 1142DPPI   GL116317  12.047  16.528   6.547  0.1358 -0.1929 -0.1654
 1142DPPI   GL216318  11.840  16.677   6.715 -0.0110  0.3323 -0.0259
 1142DPPI   C1A16319  12.272  16.370   6.945 -0.1141 -0.0407 -0.1062
 1142DPPI   C2A16320  12.323  16.400   7.424  0.0967 -0.4884  0.0803
 1142DPPI   C3A16321  12.280  16.421   7.878  0.0877  0.4045 -0.2449
 1142DPPI   C4A16322  12.355  16.432   8.347  0.1249 -0.3706  0.0544
 1142DPPI   C1B16323  11.869  16.644   7.137 -0.0640 -0.2262 -0.0844
 1142DPPI   C2B16324  11.871  16.646   7.610  0.2193  0.1419  0.1307
 1142DPPI   C3B16325  11.886  16.655   8.112 -0.0135 -0.0006 -0.1164
 1142DPPI   C4B16326  11.882  16.523   8.618  0.0287 -0.3196 -0.0564
 1143DPPI    C116327  12.629   2.641   6.160  0.1019  0.0476 -0.0109
 1143DPPI    C216328  12.249   2.664   6.037  0.0202 -0.1617  0.1963
 1143DPPI    C316329  12.504   2.416   5.854  0.0785  0.0332  0.0092
 1143DPPI   PO416330  12.528   2.929   6.388 -0.1078  0.2207  0.1298
 1143DPPI   GL116331  12.409   2.940   6.763 -0.1788  0.1314  0.0395
 1143DPPI   GL216332  12.162   2.777   6.927  0.3407 -0.1474 -0.3438
 1143DPPI   C1A16333  12.622   3.067   7.164 -0.1699 -0.3170  0.1456
 1143DPPI   C2A16334  12.550   3.067   7.567  0.3066  0.0466 -0.0041
 1143DPPI   C3A16335  12.531   3.099   8.068 -0.2478  0.2745  0.0729
 1143DPPI   C4A16336  12.379   3.120   8.476  0.1923 -0.0729  0.2806
 1143DPPI   C1B16337  12.154   2.795   7.441  0.1405  0.2026  0.1003
 1143DPPI   C2B16338  12.117   2.835   7.798  0.1170 -0.0792 -0.2315
 1143DPPI   C3B16339  12.044   2.906   8.228 -0.2969 -0.0036 -0.0500
 1143DPPI   C4B16340  11.968   2.864   8.608  0.1445 -0.1858  0.1558
 1144DPPI    C116341  16.085   4.918   6.270  0.0296 -0.0833  0.0899
 1144DPPI    C216342  16.371   4.657   6.369 -0.0078 -0.0613  0.2592
 1144DPPI    C316343  16.271   4.708   5.985  0.1857 -0.0994  0.2024
 1144DPPI   PO416344  15.916   4.804   6.391 -0.1306  0.0632  0.0820
 1144DPPI   GL116345  16.007   4.603   6.700 -0.0149  0.1359 -0.2752
 1144DPPI   GL216346  16.234   4.289   6.690  0.1872  0.4611  0.2033
 1144DPPI   C1A16347  15.696   4.571   7.026  0.3105  0.2448  0.1733
 1144DPPI   C2A16348  15.445   4.462   7.435  0.1102  0.2741  0.1494
 1144DPPI   C3A16349  15.460   4.564   7.781  0.1195  0.0791 -0.1084
 1144DPPI   C4A16350  15.478   4.696   8.182  0.3133 -0.3903  0.0148
 1144DPPI   C1B16351  16.184   4.447   7.188  0.0650 -0.2400  0.2369
 1144DPPI   C2B16352  16.013   4.407   7.561  0.1691 -0.3028  0.0683
 1144DPPI   C3B16353  15.950   4.450   8.038 -0.0148  0.0510 -0.0067
 1144DPPI   C4B16354  15.892   4.511   8.384 -0.1681 -0.0783 -0.0809
 1145DPPI    C116355   5.192  15.284   6.136 -0.0288  0.0060  0.0320
 1145DPPI    C216356   5.556  15.393   6.012 -0.0339  0.0454  0.0514
 1145DPPI    C316357   5.254  15.371   5.751  0.0280 -0.1853 -0.0033
 1145DPPI   PO416358   5.237  15.419   6.420  0.2862  0.0408  0.0771
 1145DPPI   GL116359   5.477  15.355   6.877  0.4954  0.0409  0.1756
 1145DPPI   GL216360   5.197  15.162   6.926  0.1522 -0.1502 -0.0543
 1145DPPI   C1A16361   5.205  15.564   7.165  0.1984  0.0675  0.2201
 1145DPPI   C2A16362   5.266  15.550   7.617  0.0724 -0.1749  0.0651
 1145DPPI   C3A16363   5.233  15.457   8.011 -0.3430  0.1211  0.0316
 1145DPPI   C4A16364   5.180  15.377   8.414 -0.0591  0.2294 -0.2234
 1145DPPI   C1B16365   5.363  15.107   7.350 -0.2714  0.2140  0.1112
 1145DPPI   C2B16366   5.487  15.117   7.786  0.2252  0.0768  0.1158
 1145DPPI   C3B16367   5.518  15.030   8.247  0.3075  0.0352  0.0874
 1145DPPI   C4B16368   5.681  14.941   8.595  0.0741 -0.1342 -0.3028
 1146DPPI    C116369   3.342   0.496   6.209 -0.1435 -0.0651 -0.0784
 1146DPPI    C216370   3.262   0.316   6.557 -0.0008  0.0339  0.0062
 1146DPPI    C316371   3.174   0.132   6.213 -0.0608 -0.1023  0.0934
 1146DPPI   PO416372   3.591   0.617   6.377  0.0992 -0.2158  0.1271
 1146DPPI   GL116373   3.659   0.553   6.821  0.0104  0.1242 -0.4339
 1146DPPI   GL216374   3.504   0.730   6.925 -0.0258 -0.3415 -0.0362
 1146DPPI   C1A16375   3.980   0.468   7.058  0.3801  0.0085 -0.3224
 1146DPPI   C2A16376   4.027   0.406   7.581  0.1693 -0.2006  0.1482
 1146DPPI   C3A16377   4.114   0.417   7.996  0.0915  0.0432  0.2042
 1146DPPI   C4A16378   4.121   0.369   8.363 -0.0016 -0.1233  0.1830
 1146DPPI   C1B16379   3.593   0.746   7.383 -0.2068  0.1143 -0.0048
 1146DPPI   C2B16380   3.553   0.793   7.845 -0.1522 -0.0957  0.0968
 1146DPPI   C3B16381   3.655   0.812   8.276  0.0425 -0.0824  0.2526
 1146DPPI   C4B16382   3.524   0.793   8.670  0.0895 -0.0290  0.1521
 1147PYPI    C116383   2.593  16.212   6.408  0.0082 -0.0177 -0.2153
 1147PYPI    C216384   2.631  16.171   6.012  0.0516 -0.0113 -0.2117
 1147PYPI    C316385   2.299  16.332   6.165  0.0092 -0.0696 -0.2421
 1147PYPI   PO416386   2.821  16.313   6.435 -0.1863  0.1703 -0.0429
 1147PYPI   GL116387   2.798  16.475   6.931 -0.2571 -0.0390  0.0941
 1147PYPI   GL216388   2.689  16.689   6.792 -0.0037 -0.0363  0.0804
 1147PYPI   C1A16389   2.677  16.439   7.308  0.1406  0.0905  0.4024
 1147PYPI   C2A16390   2.753  16.128   7.661 -0.0479 -0.0166  0.2392
 1147PYPI   D3A16391   2.855  15.887   7.978 -0.1260  0.1707  0.0748
 1147PYPI   C4A16392   2.508  15.798   8.276 -0.1810 -0.0599  0.0492
 1147PYPI   C1B16393   2.521  16.943   7.118 -0.2822  0.0140 -0.2750
 1147PYPI   C2B16394   2.536  16.879   7.558  0.0583 -0.1114 -0.0486
 1147PYPI   C3B16395   2.661  16.577   7.829  0.1604  0.0443  0.3023
 1147PYPI   C4B16396   2.632  16.337   8.227 -0.1095  0.1291 -0.1078
 1148PYPI    C116397  16.289  10.976   6.416  0.1935  0.1096  0.0147
 1148PYPI    C216398  16.534  11.020   6.103 -0.2947 -0.0134 -0.3972
 1148PYPI    C316399  16.397  10.657   6.201 -0.1982  0.0337 -0.0766
 1148PYPI   PO416400  16.344  11.228   6.535 -0.1069  0.2730 -0.1540
 1148PYPI   GL116401  16.253  11.418   6.972 -0.1370 -0.1072  0.1646
 1148PYPI   GL216402  16.536  11.563   6.866 -0.3239  0.1518 -0.1214
 1148PYPI   C1A16403  16.119  11.308   7.431  0.1542 -0.1166 -0.1384
 1148PYPI   C2A16404  16.181  11.380   7.885  0.1915 -0.0364  0.0261
 1148PYPI   D3A16405  16.285  11.555   8.166  0.0457 -0.1147  0.2573
 1148PYPI   C4A16406  16.154  11.584   8.617 -0.1178 -0.0651  0.1237
 1148PYPI   C1B16407  16.524  11.655   7.344  0.0127  0.2468 -0.3030
 1148PYPI   C2B16408  16.677  11.766   7.822  0.0307 -0.2829  0.1664
 1148PYPI   C3B16409  16.615  11.806   8.353 -0.4972  0.1747  0.2569
 1148PYPI   C4B16410  16.500  11.909   8.749 -0.1074  0.0470 -0.2552
 1149PYPI    C116411   5.964  14.352   6.347  0.3347  0.0957  0.0750
 1149PYPI    C216412   6.234  14.493   6.087  0.3045  0.1115  0.0523
 1149PYPI    C316413   5.846  14.488   5.990  0.3126 -0.0520  0.0254
 1149PYPI   PO416414   6.072  14.220   6.450  0.0332  0.1916  0.0515
 1149PYPI   GL116415   6.082  13.960   6.747  0.0696  0.0985  0.1469
 1149PYPI   GL216416   5.864  13.819   6.917 -0.2052  0.0144 -0.1072
 1149PYPI   C1A16417   5.977  14.144   7.242  0.0294 -0.1322  0.3589
 1149PYPI   C2A16418   5.980  14.107   7.698  0.1511 -0.1582  0.3013
 1149PYPI   D3A16419   6.183  13.981   8.091 -0.1278  0.3002 -0.0075
 1149PYPI   C4A16420   6.124  14.313   8.380  0.1083 -0.2564 -0.1716
 1149PYPI   C1B16421   5.851  13.701   7.398 -0.1812  0.1523 -0.1652
 1149PYPI   C2B16422   6.014  13.581   7.800  0.0351  0.0315 -0.0584
 1149PYPI   C3B16423   6.114  13.494   8.198  0.1960 -0.3290  0.0093
 1149PYPI   C4B16424   6.205  13.641   8.558  0.3348 -0.1134 -0.0040
 1150PYPI    C116425  15.400  15.091   6.271 -0.1363  0.0839  0.1257
 1150PYPI    C216426  15.710  15.174   6.033 -0.1261  0.0658  0.1326
 1150PYPI    C316427  15.400  15.426   6.053  0.0019  0.2121  0.3189
 1150PYPI   PO416428  15.580  14.937   6.466  0.1591 -0.4157  0.4897
 1150PYPI   GL116429  15.684  15.201   6.858  0.0663  0.1708  0.3951
 1150PYPI   GL216430  15.463  15.455   6.927  0.1376 -0.3277  0.2117
 1150PYPI   C1A16431  16.028  15.056   7.073 -0.3298  0.0594  0.1077
 1150PYPI   C2A16432  15.915  14.968   7.497 -0.0103 -0.0332 -0.0035
 1150PYPI   D3A16433  15.899  15.063   7.878 -0.2008 -0.3609 -0.2195
 1150PYPI   C4A16434  15.923  15.202   8.337  0.0431 -0.1444 -0.0952
 1150PYPI   C1B16435  15.559  15.284   7.347  0.0372 -0.0902  0.0665
 1150PYPI   C2B16436  15.416  15.411   7.798  0.0609  0.0338 -0.1781
 1150PYPI   C3B16437  15.516  15.504   8.249  0.0894 -0.0596 -0.3243
 1150PYPI   C4B16438  15.319  15.450   8.685  0.1279 -0.1462  0.2304
 1151PYPI    C116439   6.685   1.200   6.526  0.0667 -0.0678  0.1371
 1151PYPI    C216440   6.762   1.419   6.200  0.0335  0.1597  0.2795
 1151PYPI    C316441   6.475   1.140   6.191  0.2325 -0.0418  0.0274
 1151PYPI   PO416442   6.896   1.182   6.611 -0.5194  0.0314 -0.3718
 1151PYPI   GL116443   7.016   1.161   7.028 -0.0357 -0.1374 -0.3612
 1151PYPI   GL216444   7.228   1.031   6.978  0.1324 -0.0155  0.1421
 1151PYPI   C1A16445   6.894   1.123   7.510  0.0335  0.1057  0.0516
 1151PYPI   C2A16446   6.890   1.102   7.947 -0.2623  0.0926 -0.0829
 1151PYPI   D3A16447   7.067   1.067   8.331 -0.1008 -0.1992  0.1509
 1151PYPI   C4A16448   6.829   1.064   8.772  0.0109  0.0576  0.2958
 1151PYPI   C1B16449   7.426   0.916   7.339 -0.1348  0.0551 -0.3857
 1151PYPI   C2B16450   7.417   0.841   7.799 -0.1338  0.2330 -0.1697
 1151PYPI   C3B16451   7.540   0.770   8.290  0.1108  0.2652 -0.0579
 1151PYPI   C4B16452   7.666   0.799   8.761  0.0311 -0.1469  0.0602
 1152PYPI    C116453   2.515  14.339   6.307  0.0032 -0.0002 -0.1535
 1152PYPI    C216454   2.297  14.090   6.083 -0.0732 -0.1530  0.0863
 1152PYPI    C316455   2.681  14.157   5.992 -0.0625 -0.3285 -0.0022
 1152PYPI   PO416456   2.487  14.248   6.603  0.2494 -0.0347 -0.1573
 1152PYPI   GL116457   2.504  14.408   6.941  0.0065 -0.1003  0.2202
 1152PYPI   GL216458   2.632  14.648   7.153 -0.1748 -0.1532  0.1466
 1152PYPI   C1A16459   2.285  14.324   7.336 -0.1312  0.1584 -0.1045
 1152PYPI   C2A16460   2.346  14.329   7.758  0.0686  0.3028 -0.2689
 1152PYPI   D3A16461   2.372  14.307   8.181  0.0158 -0.0996  0.0522
 1152PYPI   C4A16462   2.209  14.052   8.586 -0.1797 -0.1898  0.4877
 1152PYPI   C1B16463   2.733  14.565   7.548 -0.2296 -0.2697 -0.2099
 1152PYPI   C2B16464   2.759  14.568   8.000  0.0620  0.4052  0.1431
 1152PYPI   C3B16465   2.704  14.573   8.480 -0.1374  0.0934 -0.1185
 1152PYPI   C4B16466   2.477  14.288   8.875  0.2313 -0.4400 -0.0776
 1153PYPI    C116467  14.423  12.781   6.284  0.1554 -0.1550  0.0123
 1153PYPI    C216468  14.238  12.586   5.988  0.0853  0.0616 -0.0893
 1153PYPI    C316469  14.370  12.959   5.929  0.0815  0.1021  0.1492
 1153PYPI   PO416470  14.357  12.734   6.599  0.1932 -0.2239  0.1573
 1153PYPI   GL116471  14.232  12.916   6.863 -0.0962  0.3993 -0.0296
 1153PYPI   GL216472  13.891  12.954   6.790  0.3417  0.1582 -0.1612
 1153PYPI   C1A16473  14.337  12.960   7.267  0.1049 -0.0766 -0.0232
 1153PYPI   C2A16474  14.330  12.971   7.734  0.1522  0.1548 -0.0229
 1153PYPI   D3A16475  14.353  12.806   8.103 -0.0005  0.2653  0.2075
 1153PYPI   C4A16476  14.316  12.955   8.504  0.0910  0.2971  0.1487
 1153PYPI   C1B16477  13.849  13.197   7.173  0.0951 -0.1537  0.3542
 1153PYPI   C2B16478  13.894  13.186   7.572 -0.0471  0.0166 -0.3999
 1153PYPI   C3B16479  13.990  13.213   7.991  0.0614 -0.1629  0.0376
 1153PYPI   C4B16480  13.859  12.890   8.220 -0.0709 -0.0538  0.0530
 1154PYPI    C116481  14.090   9.762   6.600  0.1015 -0.0723  0.0316
 1154PYPI    C216482  14.251   9.570   6.288  0.1597  0.1920 -0.1046
 1154PYPI    C316483  13.858   9.647   6.295  0.1315  0.0470 -0.0369
 1154PYPI   PO416484  14.158   9.620   6.773 -0.1838  0.0092 -0.1408
 1154PYPI   GL116485  14.298   9.741   7.300  0.2450 -0.1675 -0.2222
 1154PYPI   GL216486  14.030   9.718   7.215 -0.0031  0.1342 -0.0736
 1154PYPI   C1A16487  14.314   9.753   7.677 -0.1721 -0.2391 -0.2368
 1154PYPI   C2A16488  14.516   9.714   8.123  0.1852 -0.1282  0.1864
 1154PYPI   D3A16489  14.670   9.321   8.473 -0.0431 -0.1696  0.1934
 1154PYPI   C4A16490  14.413   9.060   8.743  0.1577 -0.2017 -0.0645
 1154PYPI   C1B16491  13.818   9.757   7.548 -0.1582  0.0612  0.0697
 1154PYPI   C2B16492  13.783   9.673   8.013 -0.0383 -0.0835  0.1891
 1154PYPI   C3B16493  13.777   9.669   8.457 -0.2574 -0.1092 -0.0889
 1154PYPI   C4B16494  13.775   9.468   8.821  0.1232  0.1393  0.3819
 1155PYPI    C116495   3.498  13.484   5.867  0.0950  0.1282  0.2321
 1155PYPI    C216496   3.635  13.857   5.908 -0.0565  0.2403 -0.2227
 1155PYPI    C316497   3.424  13.756   5.584 -0.1844 -0.1926 -0.0121
 1155PYPI   PO416498   3.520  13.447   6.150  0.3254  0.0058  0.0430
 1155PYPI   GL116499   3.707  13.570   6.475  0.0577  0.1274  0.0888
 1155PYPI   GL216500   3.786  13.849   6.776 -0.1215 -0.0958  0.2907
 1155PYPI   C1A16501   3.689  13.282   6.819 -0.1793  0.0339  0.1813
 1155PYPI   C2A16502   3.807  13.113   7.230  0.1114  0.0754  0.0817
 1155PYPI   D3A16503   3.820  12.897   7.590  0.1567 -0.3080 -0.1975
 1155PYPI   C4A16504   3.800  13.113   7.990 -0.4878  0.1140 -0.4519
 1155PYPI   C1B16505   3.790  13.674   7.070  0.0164  0.0146  0.0154
 1155PYPI   C2B16506   3.708  13.493   7.503  0.1565  0.0396  0.1825
 1155PYPI   C3B16507   3.764  13.650   7.944  0.0928  0.0135  0.3859
 1155PYPI   C4B16508   3.564  13.890   8.299  0.0423 -0.0711 -0.0422
 1156PYPI    C116509  13.323  11.373   6.471  0.2928  0.1896  0.0318
 1156PYPI    C216510  13.124  11.479   6.140  0.1592  0.1484  0.0984
 1156PYPI    C316511  13.312  11.126   6.156 -0.0305  0.0483  0.1499
 1156PYPI   PO416512  13.262  11.406   6.623  0.2374  0.3071 -0.0316
 1156PYPI   GL116513  13.060  11.389   7.021  0.2142 -0.0818  0.1363
 1156PYPI   GL216514  13.205  11.155   7.094  0.1105  0.0689  0.3779
 1156PYPI   C1A16515  12.891  11.565   7.422 -0.1212  0.1874 -0.1858
 1156PYPI   C2A16516  12.748  11.547   7.883  0.2779  0.2458 -0.2515
 1156PYPI   D3A16517  12.829  11.742   8.267 -0.2675 -0.0719  0.1925
 1156PYPI   C4A16518  13.128  11.831   8.338 -0.0642  0.0408  0.2938
 1156PYPI   C1B16519  13.264  11.166   7.537  0.0618  0.0923 -0.0865
 1156PYPI   C2B16520  13.547  11.172   8.000  0.1167  0.0570 -0.3826
 1156PYPI   C3B16521  13.574  10.994   8.410  0.4158  0.0337 -0.0562
 1156PYPI   C4B16522  13.537  10.740   8.753  0.1425  0.2424  0.0659
 1157PYPI    C116523   5.966   1.940   6.278  0.1191 -0.0359 -0.0089
 1157PYPI    C216524   5.959   2.315   6.138 -0.1296 -0.1666 -0.3620
 1157PYPI    C316525   6.213   2.049   5.982 -0.0850 -0.1952 -0.2418
 1157PYPI   PO416526   6.057   1.990   6.533 -0.2806  0.2352  0.1472
 1157PYPI   GL116527   5.964   1.843   6.965  0.2124  0.2472 -0.1249
 1157PYPI   GL216528   6.201   1.748   7.133  0.1698  0.2215  0.0523
 1157PYPI   C1A16529   5.659   2.018   7.140 -0.0464 -0.1736  0.2430
 1157PYPI   C2A16530   5.656   2.096   7.533 -0.1468 -0.0698 -0.0527
 1157PYPI   D3A16531   5.763   1.995   7.949  0.1074  0.1314  0.1663
 1157PYPI   C4A16532   5.690   1.955   8.394  0.3090  0.2166 -0.1849
 1157PYPI   C1B16533   6.024   1.788   7.508 -0.1858 -0.0791 -0.1535
 1157PYPI   C2B16534   6.104   1.672   7.951 -0.3277  0.0127 -0.0477
 1157PYPI   C3B16535   6.092   1.742   8.372 -0.1698  0.0463 -0.1670
 1157PYPI   C4B16536   6.059   1.840   8.860  0.2719 -0.0389  0.1836
 1158PYPI    C116537  14.420  14.880   6.083 -0.0714 -0.0993 -0.1053
 1158PYPI    C216538  14.683  14.803   5.792  0.0807 -0.1402  0.0413
 1158PYPI    C316539  14.294  14.838   5.706  0.1128 -0.2464 -0.1518
 1158PYPI   PO416540  14.437  14.678   6.295  0.5610 -0.2121 -0.1417
 1158PYPI   GL116541  14.706  14.572   6.689 -0.1838  0.1467 -0.2178
 1158PYPI   GL216542  14.448  14.416   6.979  0.0559  0.2453 -0.2325
 1158PYPI   C1A16543  14.905  14.611   7.078  0.0537  0.1174 -0.1265
 1158PYPI   C2A16544  14.965  14.587   7.538 -0.1308  0.0138  0.0155
 1158PYPI   D3A16545  14.815  14.685   7.966 -0.0388  0.2471 -0.1948
 1158PYPI   C4A16546  14.895  14.656   8.341 -0.0746 -0.1123 -0.1922
 1158PYPI   C1B16547  14.484  14.476   7.429  0.0665 -0.0216  0.3349
 1158PYPI   C2B16548  14.410  14.426   7.758 -0.0590 -0.0391 -0.0260
 1158PYPI   C3B16549  14.415  14.385   8.188  0.0170  0.0198  0.1845
 1158PYPI   C4B16550  14.478  14.616   8.629  0.1089  0.0235  0.0553
 1159PYPI    C116551  16.051   9.433   6.232 -0.1525  0.0955  0.3494
 1159PYPI    C216552  15.679   9.457   6.086 -0.0802  0.1815  0.1766
 1159PYPI    C316553  15.941   9.751   6.015  0.1499 -0.0770 -0.0698
 1159PYPI   PO416554  16.035   9.414   6.435  0.0133  0.0018  0.0138
 1159PYPI   GL116555  16.166   9.555   6.807  0.0811 -0.0100 -0.2711
 1159PYPI   GL216556  15.999   9.816   6.961 -0.1903  0.1882  0.1813
 1159PYPI   C1A16557  16.259   9.398   7.228 -0.0586  0.0406  0.1019
 1159PYPI   C2A16558  16.423   9.432   7.669  0.0823  0.1473 -0.2855
 1159PYPI   D3A16559  16.368   9.368   8.035  0.0289  0.1162 -0.0450
 1159PYPI   C4A16560  15.952   9.594   8.208  0.0829 -0.2934  0.1551
 1159PYPI   C1B16561  16.184   9.878   7.280 -0.0170  0.1714 -0.0665
 1159PYPI   C2B16562  16.415   9.890   7.627 -0.0390 -0.4956  0.2081
 1159PYPI   C3B16563  16.326   9.884   8.053 -0.0641 -0.0972 -0.0682
 1159PYPI   C4B16564  16.342   9.801   8.502  0.2429 -0.0631 -0.2289
 1160PYPI    C116565   5.311  10.218   6.285 -0.1171 -0.1270 -0.1845
 1160PYPI    C216566   5.607  10.420   6.108 -0.3016  0.2979 -0.0218
 1160PYPI    C316567   5.321  10.249   5.887 -0.0630  0.0812 -0.1682
 1160PYPI   PO416568   5.342  10.331   6.558  0.0760  0.2081  0.0224
 1160PYPI   GL116569   5.182  10.232   6.896  0.1339  0.1197  0.1625
 1160PYPI   GL216570   4.862  10.362   6.818  0.1440  0.0341 -0.0385
 1160PYPI   C1A16571   5.109  10.462   7.313  0.0052  0.1532  0.0508
 1160PYPI   C2A16572   5.092  10.375   7.741  0.0575  0.0123  0.0640
 1160PYPI   D3A16573   5.047  10.172   8.045  0.0572  0.0838  0.0933
 1160PYPI   C4A16574   5.311  10.240   8.468 -0.0106 -0.1086  0.1634
 1160PYPI   C1B16575   4.648  10.503   7.134  0.0324 -0.2320  0.2121
 1160PYPI   C2B16576   4.667  10.571   7.585 -0.1672 -0.1070  0.1036
 1160PYPI   C3B16577   4.653  10.458   8.022 -0.0203 -0.0376  0.5314
 1160PYPI   C4B16578   4.731  10.522   8.484 -0.1313  0.0078 -0.1391
 1161PYPI    C116579   5.057   5.367   6.522  0.0080 -0.0192 -0.0998
 1161PYPI    C216580   5.229   5.605   6.250 -0.1404  0.4309  0.1883
 1161PYPI    C316581   4.838   5.524   6.226 -0.0491  0.0273 -0.0332
 1161PYPI   PO416582   5.340   5.311   6.655  0.0304  0.1742 -0.1771
 1161PYPI   GL116583   5.383   5.173   7.065 -0.0610 -0.0265  0.1124
 1161PYPI   GL216584   5.407   4.892   7.133  0.1614 -0.0110  0.0332
 1161PYPI   C1A16585   5.273   5.240   7.382 -0.0407  0.0184 -0.3147
 1161PYPI   C2A16586   5.171   5.199   7.789  0.0417  0.0314 -0.0668
 1161PYPI   D3A16587   5.114   5.147   8.177  0.0738 -0.0342  0.0937
 1161PYPI   C4A16588   5.381   4.962   8.348  0.1988  0.0306  0.0142
 1161PYPI   C1B16589   5.319   4.721   7.539 -0.1780 -0.0236 -0.1051
 1161PYPI   C2B16590   5.208   4.650   7.965 -0.1621  0.0047 -0.1546
 1161PYPI   C3B16591   5.181   4.485   8.349  0.0104 -0.1388  0.0731
 1161PYPI   C4B16592   5.121   4.203   8.653 -0.1544 -0.1505 -0.2307
 1162PYPI    C116593  13.276   9.093   6.321  0.1046 -0.1331  0.0322
 1162PYPI    C216594  12.913   8.977   6.200  0.0411  0.0342  0.0590
 1162PYPI    C316595  13.195   9.066   5.931  0.0738 -0.1289  0.0382
 1162PYPI   PO416596  13.242   9.113   6.626  0.2159  0.4040  0.0567
 1162PYPI   GL116597  13.473   9.072   7.007  0.2331 -0.1122  0.2307
 1162PYPI   GL216598  13.484   9.373   7.206  0.0065 -0.0409  0.0086
 1162PYPI   C1A16599  13.288   8.815   7.307 -0.1145  0.0539 -0.0018
 1162PYPI   C2A16600  13.167   8.817   7.690 -0.2453 -0.0310 -0.1100
 1162PYPI   D3A16601  13.167   8.664   8.082 -0.0151  0.0974 -0.0019
 1162PYPI   C4A16602  13.329   8.857   8.280 -0.2732 -0.3030 -0.0100
 1162PYPI   C1B16603  13.554   9.254   7.585 -0.0343  0.0531  0.5182
 1162PYPI   C2B16604  13.552   9.204   7.981 -0.0495 -0.3285 -0.4381
 1162PYPI   C3B16605  13.440   9.266   8.432 -0.2889  0.0556  0.2871
 1162PYPI   C4B16606  13.462   9.032   8.808 -0.0223  0.0839  0.1314
 1163PYPI    C116607  10.370   9.157   6.171 -0.1365 -0.0654 -0.0116
 1163PYPI    C216608  10.200   9.268   5.826 -0.1440  0.0896  0.0414
 1163PYPI    C316609  10.560   9.410   5.927 -0.1606  0.0785  0.1171
 1163PYPI   PO416610  10.077   9.184   6.369  0.0052 -0.2183  0.0744
 1163PYPI   GL116611   9.944   9.087   6.727 -0.0177 -0.1561  0.1568
 1163PYPI   GL216612  10.321   9.328   6.805  0.1669 -0.1606 -0.2574
 1163PYPI   C1A16613  10.309   8.933   7.122 -0.1155  0.0777 -0.1106
 1163PYPI   C2A16614  10.318   8.924   7.614 -0.2209  0.0377 -0.1020
 1163PYPI   D3A16615  10.332   9.189   8.024  0.0811 -0.1727  0.0887
 1163PYPI   C4A16616  10.197   9.019   8.415 -0.1092  0.1161  0.1535
 1163PYPI   C1B16617  10.242   9.452   7.144 -0.0210 -0.4132  0.2850
 1163PYPI   C2B16618  10.403   9.426   7.455  0.1326  0.0137  0.1302
 1163PYPI   C3B16619  10.263   9.595   7.813 -0.0660 -0.0692 -0.1226
 1163PYPI   C4B16620  10.301   9.576   8.294 -0.3130 -0.3662 -0.2963
 1164PYPI    C116621   0.353   0.058   6.334  0.0999 -0.0761 -0.0525
 1164PYPI    C216622   0.345  -0.000   5.938  0.0704 -0.2237 -0.0310
 1164PYPI    C316623   0.466   0.351   6.087 -0.2744 -0.0360 -0.1824
 1164PYPI   PO416624   0.037   0.098   6.478 -0.2427  0.1179 -0.3472
 1164PYPI   GL116625  -0.094  -0.042   6.781 -0.0597  0.2839  0.0109
 1164PYPI   GL216626  -0.388   0.025   6.820 -0.0725  0.2908  0.2026
 1164PYPI   C1A16627  -0.043  -0.010   7.204  0.0355 -0.2221 -0.3303
 1164PYPI   C2A16628  -0.137   0.084   7.644 -0.0786 -0.2819 -0.0539
 1164PYPI   D3A16629  -0.215   0.043   7.974 -0.0947  0.0739  0.1335
 1164PYPI   C4A16630  -0.350   0.018   8.384  0.1310 -0.0391  0.2947
 1164PYPI   C1B16631  -0.529  -0.161   7.163  0.3088  0.3916 -0.0954
 1164PYPI   C2B16632  -0.588  -0.187   7.683 -0.0146 -0.1514 -0.0925
 1164PYPI   C3B16633  -0.721  -0.075   8.022 -0.0028 -0.0222 -0.0509
 1164PYPI   C4B16634  -0.845   0.092   8.410  0.0177 -0.2816 -0.0113
 1165PYPI    C116635  15.614  16.862   6.211 -0.1546  0.0047 -0.0427
 1165PYPI    C216636  15.607  16.582   5.926  0.0925 -0.1234  0.0742
 1165PYPI    C316637  15.399  16.920   5.879 -0.2485 -0.3441 -0.0469
 1165PYPI   PO416638  15.736  16.791   6.384 -0.0263 -0.0555 -0.0001
 1165PYPI   GL116639  15.638  16.811   6.878 -0.1128 -0.3152  0.3258
 1165PYPI   GL216640  15.545  17.137   6.722  0.4149  0.0693 -0.0018
 1165PYPI   C1A16641  15.653  17.018   7.228  0.0064 -0.1844 -0.0146
 1165PYPI   C2A16642  15.557  16.943   7.731 -0.1362 -0.1137  0.2427
 1165PYPI   D3A16643  15.482  16.943   8.280  0.0455  0.1930 -0.1545
 1165PYPI   C4A16644  15.711  16.905   8.608  0.0549 -0.1500 -0.0013
 1165PYPI   C1B16645  15.318  17.284   7.038  0.3377 -0.4522 -0.0565
 1165PYPI   C2B16646  15.117  17.220   7.438 -0.1269 -0.0605  0.1906
 1165PYPI   C3B16647  15.081  17.232   7.811 -0.0030 -0.1275 -0.1643
 1165PYPI   C4B16648  15.111  17.337   8.262 -0.0220 -0.2547 -0.0860
 1166PYPI    C116649   6.797   7.586   6.275  0.1546  0.0165  0.0898
 1166PYPI    C216650   7.190   7.616   6.347  0.1879 -0.1029 -0.0366
 1166PYPI    C316651   7.053   7.642   5.972  0.0502  0.1796  0.0306
 1166PYPI   PO416652   6.672   7.575   6.513 -0.1209 -0.0327 -0.1970
 1166PYPI   GL116653   6.517   7.849   6.931 -0.3155  0.0108  0.0627
 1166PYPI   GL216654   6.558   8.079   7.030  0.0877  0.1728  0.1853
 1166PYPI   C1A16655   6.502   7.558   7.314 -0.1582  0.4627  0.0661
 1166PYPI   C2A16656   6.541   7.556   7.714  0.1043  0.2151  0.0176
 1166PYPI   D3A16657   6.678   7.687   8.056  0.2056 -0.2538  0.0511
 1166PYPI   C4A16658   6.520   7.646   8.548  0.0257 -0.1915 -0.1782
 1166PYPI   C1B16659   6.498   8.044   7.482  0.1322 -0.0654  0.1209
 1166PYPI   C2B16660   6.593   8.121   7.861  0.0184  0.1896 -0.0988
 1166PYPI   C3B16661   6.616   8.113   8.306  0.2357 -0.0792 -0.0906
 1166PYPI   C4B16662   6.612   8.162   8.718 -0.0108 -0.1499  0.1873
 1167PYPI    C116663   5.688   6.807   6.287  0.0019 -0.1641  0.4010
 1167PYPI    C216664   5.943   6.506   6.221  0.0411  0.0114 -0.3313
 1167PYPI    C316665   5.583   6.506   6.046 -0.1317  0.1814  0.0147
 1167PYPI   PO416666   5.535   6.872   6.589 -0.1288 -0.0471 -0.1312
 1167PYPI   GL116667   5.355   6.889   6.964  0.2684 -0.1344 -0.3026
 1167PYPI   GL216668   5.053   6.829   6.770  0.2845 -0.3752  0.0157
 1167PYPI   C1A16669   5.348   7.018   7.461 -0.1677  0.0964 -0.1411
 1167PYPI   C2A16670   5.464   6.937   7.979  0.0172 -0.1189 -0.0147
 1167PYPI   D3A16671   5.366   6.907   8.451  0.0495 -0.0202  0.2039
 1167PYPI   C4A16672   5.345   6.987   8.862 -0.2391 -0.1242 -0.0614
 1167PYPI   C1B16673   4.980   6.719   7.177 -0.0060  0.2585 -0.2269
 1167PYPI   C2B16674   5.049   6.685   7.599 -0.0919 -0.1800  0.4067
 1167PYPI   C3B16675   5.003   6.687   7.982 -0.2340 -0.0343  0.1332
 1167PYPI   C4B16676   4.928   6.630   8.409 -0.0082 -0.1732 -0.0472
 1168PYPI    C116677   9.266   8.744   6.152  0.0208 -0.1525 -0.1645
 1168PYPI    C216678   9.083   9.072   6.014  0.0523 -0.1532 -0.2086
 1168PYPI    C316679   9.215   8.794   5.758 -0.1237 -0.2804 -0.1630
 1168PYPI   PO416680   9.259   8.772   6.392 -0.0806 -0.0034  0.1015
 1168PYPI   GL116681   9.552   8.837   6.807 -0.0037 -0.0586 -0.0646
 1168PYPI   GL216682   9.212   8.972   6.859 -0.1574  0.4133 -0.1241
 1168PYPI   C1A16683   9.657   8.847   7.298  0.3235  0.2997 -0.1622
 1168PYPI   C2A16684   9.749   8.829   7.756  0.1707 -0.1891 -0.3311
 1168PYPI   D3A16685   9.954   8.793   8.060 -0.0741 -0.0618  0.1560
 1168PYPI   C4A16686   9.747   8.789   8.490 -0.0816 -0.0104  0.4167
 1168PYPI   C1B16687   9.265   9.182   7.203  0.0997  0.1356  0.2085
 1168PYPI   C2B16688   9.378   9.152   7.649 -0.0473  0.0014 -0.0767
 1168PYPI   C3B16689   9.365   9.049   8.049 -0.1179  0.0114  0.0802
 1168PYPI   C4B16690   9.367   9.119   8.479 -0.0919  0.0164  0.3319
 1169PYPI    C116691   5.040   8.557   6.659  0.2053 -0.1875 -0.0863
 1169PYPI    C216692   5.344   8.680   6.431  0.1427 -0.1600 -0.1551
 1169PYPI    C316693   4.969   8.711   6.297  0.1098 -0.1981 -0.0722
 1169PYPI   PO416694   5.143   8.624   6.911 -0.1374 -0.0927 -0.1029
 1169PYPI   GL116695   5.407   8.628   7.288  0.1320 -0.0662 -0.0231
 1169PYPI   GL216696   5.649   8.584   7.287 -0.1522 -0.0433 -0.1476
 1169PYPI   C1A16697   5.434   8.505   7.726 -0.0618 -0.0572  0.0239
 1169PYPI   C2A16698   5.276   8.447   8.092  0.1893  0.1703  0.2666
 1169PYPI   D3A16699   5.218   8.483   8.516 -0.1720 -0.1194  0.1446
 1169PYPI   C4A16700   5.392   8.737   8.933  0.2400 -0.0171  0.1193
 1169PYPI   C1B16701   5.626   8.919   7.618  0.1938 -0.1671 -0.0307
 1169PYPI   C2B16702   5.658   8.893   8.047 -0.1157  0.0722  0.1613
 1169PYPI   C3B16703   5.587   8.796   8.458 -0.0198  0.0444 -0.4398
 1169PYPI   C4B16704   5.876   8.885   8.881  0.3677  0.0838  0.2974
 1170PYPI    C116705   9.411  10.444   6.270 -0.0918 -0.0284  0.2591
 1170PYPI    C216706   9.660  10.321   5.982 -0.0330 -0.1303  0.3525
 1170PYPI    C316707   9.528  10.699   5.984 -0.0758 -0.1430  0.1624
 1170PYPI   PO416708   9.553  10.341   6.467  0.1900 -0.2028  0.0175
 1170PYPI   GL116709   9.669  10.526   6.939 -0.0080 -0.1516  0.0158
 1170PYPI   GL216710   9.960  10.660   6.805  0.1042  0.3235 -0.1869
 1170PYPI   C1A16711   9.836  10.313   7.306  0.2085  0.1254  0.0583
 1170PYPI   C2A16712   9.878  10.285   7.787 -0.2221 -0.2444 -0.0957
 1170PYPI   D3A16713   9.942  10.328   8.211 -0.0338 -0.0046 -0.0274
 1170PYPI   C4A16714  10.056  10.448   8.629  0.0128 -0.1177  0.2207
 1170PYPI   C1B16715  10.275  10.676   7.096  0.1777  0.0395  0.1592
 1170PYPI   C2B16716  10.260  10.500   7.412  0.0347 -0.2668 -0.0599
 1170PYPI   C3B16717  10.293  10.528   7.771  0.0194  0.0375  0.0221
 1170PYPI   C4B16718  10.432  10.539   8.205 -0.1980 -0.1184 -0.0209
 1171PYPI    C116719   3.821   2.437   6.140  0.3030  0.4133 -0.0857
 1171PYPI    C216720   3.811   2.792   5.957 -0.1185  0.3341 -0.2301
 1171PYPI    C316721   3.708   2.462   5.757  0.0093  0.1636 -0.0197
 1171PYPI   PO416722   3.668   2.473   6.366 -0.0044  0.0050 -0.0245
 1171PYPI   GL116723   3.468   2.308   6.620  0.2106 -0.0866  0.1347
 1171PYPI   GL216724   3.788   2.255   6.782 -0.1349 -0.0260  0.0158
 1171PYPI   C1A16725   3.451   2.140   7.098  0.3033 -0.2364  0.1073
 1171PYPI   C2A16726   3.352   2.113   7.414 -0.2927 -0.1108  0.0793
 1171PYPI   D3A16727   3.346   2.064   7.839  0.0149 -0.1559  0.0669
 1171PYPI   C4A16728   3.492   2.122   8.238  0.0516  0.0654  0.0234
 1171PYPI   C1B16729   3.961   2.230   7.161 -0.0019  0.0582  0.5023
 1171PYPI   C2B16730   4.001   2.041   7.528  0.1071 -0.2335  0.1030
 1171PYPI   C3B16731   3.937   2.099   7.935  0.0074  0.2771 -0.2363
 1171PYPI   C4B16732   3.945   2.298   8.400  0.1592  0.1725  0.0540
 1172PYPI    C116733  14.984   6.410   6.402  0.0808  0.1114 -0.1791
 1172PYPI    C216734  15.267   6.549   6.648 -0.1397 -0.1556  0.2353
 1172PYPI    C316735  14.931   6.758   6.592  0.0261  0.0379 -0.0587
 1172PYPI   PO416736  14.965   6.190   6.473  0.2439 -0.1590  0.1319
 1172PYPI   GL116737  14.973   6.061   6.883 -0.2112 -0.2701 -0.2130
 1172PYPI   GL216738  15.270   6.174   7.024 -0.1547  0.1236 -0.2860
 1172PYPI   C1A16739  14.812   5.920   7.295  0.3739  0.1739  0.0789
 1172PYPI   C2A16740  14.949   5.956   7.774  0.1598  0.1538 -0.2141
 1172PYPI   D3A16741  14.757   5.863   8.175  0.1829  0.1679 -0.0261
 1172PYPI   C4A16742  14.708   6.055   8.588 -0.1357 -0.3013  0.0010
 1172PYPI   C1B16743  15.131   6.330   7.443 -0.0813 -0.1164 -0.0651
 1172PYPI   C2B16744  15.168   6.378   7.884 -0.0253  0.0384  0.2122
 1172PYPI   C3B16745  15.078   6.221   8.234 -0.1874 -0.0537  0.0722
 1172PYPI   C4B16746  15.182   6.266   8.683 -0.0897  0.0106 -0.2611
 1173PYPI    C116747  13.116   4.375   5.741  0.2493 -0.2430 -0.0966
 1173PYPI    C216748  12.756   4.216   5.668  0.0891  0.0711 -0.0102
 1173PYPI    C316749  13.077   3.979   5.699 -0.0483 -0.1831 -0.4423
 1173PYPI   PO416750  13.189   4.476   5.945  0.2587 -0.0110  0.2433
 1173PYPI   GL116751  13.103   4.576   6.351  0.0848  0.0844 -0.2596
 1173PYPI   GL216752  13.107   4.799   6.528  0.1405  0.0123  0.3454
 1173PYPI   C1A16753  13.047   4.354   6.818  0.0126  0.1854  0.0632
 1173PYPI   C2A16754  13.101   4.228   7.208 -0.0155  0.0494  0.0244
 1173PYPI   D3A16755  12.979   4.262   7.558 -0.1564 -0.0764  0.2453
 1173PYPI   C4A16756  13.132   4.260   7.976  0.1415  0.1272 -0.0342
 1173PYPI   C1B16757  13.141   4.893   6.915  0.2453 -0.0008 -0.2345
 1173PYPI   C2B16758  13.055   4.713   7.286 -0.1163 -0.1280 -0.0364
 1173PYPI   C3B16759  13.036   4.790   7.659  0.1201 -0.1541 -0.0238
 1173PYPI   C4B16760  13.034   4.814   8.159 -0.4122 -0.0322 -0.0327
 1174PYPI    C116761   8.383  13.761   6.494 -0.1936  0.0302  0.0975
 1174PYPI    C216762   8.454  13.890   6.122 -0.3378 -0.0745  0.0328
 1174PYPI    C316763   8.432  13.498   6.197 -0.1260 -0.0588  0.1867
 1174PYPI   PO416764   8.547  13.983   6.595 -0.1435  0.1520  0.0889
 1174PYPI   GL116765   8.637  13.857   7.031 -0.0427 -0.0190 -0.0453
 1174PYPI   GL216766   8.567  13.582   6.935 -0.0312  0.2528  0.1978
 1174PYPI   C1A16767   8.720  13.787   7.423 -0.0090  0.0234  0.4767
 1174PYPI   C2A16768   8.768  13.768   7.810 -0.1917  0.1793 -0.0000
 1174PYPI   D3A16769   8.803  14.041   8.215  0.1145  0.1537  0.1217
 1174PYPI   C4A16770   9.026  13.986   8.597  0.0761 -0.0453  0.2342
 1174PYPI   C1B16771   8.297  13.513   7.323 -0.3779  0.1137 -0.2115
 1174PYPI   C2B16772   8.339  13.561   7.674 -0.2217  0.1310 -0.1974
 1174PYPI   C3B16773   8.408  13.582   8.082 -0.2177 -0.2044 -0.1865
 1174PYPI   C4B16774   8.323  13.513   8.527 -0.0491  0.2774 -0.3355
 1175PYPI    C116775  16.378   5.323   6.294  0.0391  0.0555 -0.1113
 1175PYPI    C216776  16.054   5.538   6.203 -0.0279  0.0635  0.1385
 1175PYPI    C316777  16.238   5.324   5.920 -0.2473  0.0634 -0.0066
 1175PYPI   PO416778  16.313   5.259   6.545 -0.1862  0.0381  0.0246
 1175PYPI   GL116779  16.387   5.341   6.966 -0.1496 -0.0875  0.2108
 1175PYPI   GL216780  16.647   5.169   7.045  0.0351  0.0160  0.2756
 1175PYPI   C1A16781  16.225   5.303   7.307 -0.0609  0.0631 -0.0933
 1175PYPI   C2A16782  16.299   5.303   7.768  0.1500 -0.0990  0.0504
 1175PYPI   D3A16783  16.305   5.311   8.228 -0.1203  0.3545  0.0683
 1175PYPI   C4A16784  16.211   5.153   8.628 -0.2343 -0.1557 -0.1178
 1175PYPI   C1B16785  16.701   5.164   7.509  0.2146  0.1298 -0.3128
 1175PYPI   C2B16786  16.690   5.149   8.049 -0.3194  0.0663 -0.0470
 1175PYPI   C3B16787  16.711   5.190   8.553  0.0102  0.0809 -0.1788
 1175PYPI   C4B16788  16.674   4.851   8.885 -0.1776 -0.0166  0.3052
 1176PYPI    C116789   1.164   2.660   6.423 -0.2936  0.0367 -0.0324
 1176PYPI    C216790   1.462   2.730   6.164 -0.1243  0.1968  0.2011
 1176PYPI    C316791   1.120   2.936   6.136 -0.1448  0.1428  0.0452
 1176PYPI   PO416792   1.369   2.470   6.596  0.1109  0.0479 -0.3208
 1176PYPI   GL116793   1.497   2.466   6.962  0.1241 -0.0739  0.1074
 1176PYPI   GL216794   1.593   2.709   7.018  0.1724  0.1180 -0.1536
 1176PYPI   C1A16795   1.475   2.287   7.359  0.0045 -0.1141 -0.2525
 1176PYPI   C2A16796   1.391   2.310   7.785 -0.0026  0.2470 -0.1207
 1176PYPI   D3A16797   1.380   2.777   7.959  0.1655 -0.1554 -0.4179
 1176PYPI   C4A16798   1.582   3.089   8.141 -0.0703 -0.0107  0.1189
 1176PYPI   C1B16799   1.459   2.804   7.404  0.4250 -0.0564  0.0867
 1176PYPI   C2B16800   1.647   3.083   7.660  0.1776 -0.0705  0.1159
 1176PYPI   C3B16801   1.996   3.018   7.897  0.2604  0.1994  0.2705
 1176PYPI   C4B16802   2.273   2.830   7.995 -0.0559 -0.0572 -0.1347
 1177PYPI    C116803   8.327   0.511   5.874  0.2287  0.0765  0.0457
 1177PYPI    C216804   8.694   0.359   5.820  0.0791 -0.1892 -0.2606
 1177PYPI    C316805   8.453   0.416   5.506 -0.0523  0.2248 -0.0917
 1177PYPI   PO416806   8.355   0.750   6.105 -0.0440  0.2720 -0.4754
 1177PYPI   GL116807   8.404   0.647   6.610  0.1961  0.3076  0.2797
 1177PYPI   GL216808   8.308   0.835   6.831  0.1335  0.0154 -0.1883
 1177PYPI   C1A16809   8.459   0.396   7.046 -0.3986 -0.3241  0.0268
 1177PYPI   C2A16810   8.716   0.547   7.308 -0.1883  0.0352  0.0515
 1177PYPI   D3A16811   8.848   0.548   7.693 -0.0930  0.1020  0.1104
 1177PYPI   C4A16812   8.716   0.576   8.206 -0.0342  0.0391 -0.1479
 1177PYPI   C1B16813   8.361   0.876   7.262  0.0452 -0.3695 -0.0616
 1177PYPI   C2B16814   8.377   0.795   7.649  0.0919 -0.2708  0.2426
 1177PYPI   C3B16815   8.327   0.842   8.060  0.2069 -0.6567 -0.0198
 1177PYPI   C4B16816   8.296   0.742   8.527 -0.0152 -0.0678  0.0142
 1178PYPI    C116817   6.284  16.383   6.351  0.1718  0.0540  0.0269
 1178PYPI    C216818   6.001  16.100   6.344  0.2174  0.0105 -0.0726
 1178PYPI    C316819   5.908  16.479   6.254  0.1887 -0.0017 -0.0951
 1178PYPI   PO416820   6.576  16.220   6.422 -0.2384 -0.0967  0.1644
 1178PYPI   GL116821   6.806  15.918   6.700  0.2934  0.0866 -0.0817
 1178PYPI   GL216822   7.171  15.960   6.760 -0.0778 -0.0437 -0.0298
 1178PYPI   C1A16823   6.604  15.863   7.118 -0.1459  0.1549 -0.0752
 1178PYPI   C2A16824   6.729  15.760   7.589  0.0389 -0.0286 -0.1141
 1178PYPI   D3A16825   6.669  15.867   8.013  0.1275 -0.0217 -0.0302
 1178PYPI   C4A16826   6.643  15.682   8.516 -0.3350  0.2142 -0.2645
 1178PYPI   C1B16827   7.125  15.738   7.065  0.0193  0.0791 -0.0383
 1178PYPI   C2B16828   7.172  15.689   7.460  0.2371 -0.3469  0.3280
 1178PYPI   C3B16829   7.191  15.840   7.934  0.1071  0.4201  0.1468
 1178PYPI   C4B16830   7.055  15.898   8.325  0.1674  0.1006  0.0026
 1179PYPI    C116831   1.959  15.504   5.988  0.2382  0.2027 -0.0715
 1179PYPI    C216832   1.671  15.287   5.815  0.1692 -0.0563  0.3547
 1179PYPI    C316833   1.879  15.551   5.599 -0.1278 -0.1393 -0.0442
 1179PYPI   PO416834   1.828  15.556   6.269  0.2217  0.0118 -0.0563
 1179PYPI   GL116835   1.764  15.690   6.658  0.1104 -0.0316 -0.0263
 1179PYPI   GL216836   1.598  15.358   6.655  0.1998  0.1422 -0.3033
 1179PYPI   C1A16837   1.632  15.778   7.034 -0.0317  0.1133  0.2256
 1179PYPI   C2A16838   1.539  15.640   7.427  0.2728 -0.1332 -0.1246
 1179PYPI   D3A16839   1.517  15.363   7.798  0.1825 -0.1209  0.1406
 1179PYPI   C4A16840   1.500  15.397   8.292 -0.0353 -0.0399 -0.3030
 1179PYPI   C1B16841   1.787  15.290   7.150  0.0649 -0.2891 -0.0063
 1179PYPI   C2B16842   1.957  15.148   7.560 -0.1275 -0.1523 -0.0278
 1179PYPI   C3B16843   1.889  15.073   8.029 -0.0292 -0.2288 -0.3653
 1179PYPI   C4B16844   1.864  14.986   8.474 -0.0360  0.0841 -0.0853
 1180ERGO   ROH16845   6.740   6.282   6.851  0.0163 -0.1237 -0.0147
 1180ERGO    R116846   6.815   6.387   7.103 -0.0703 -0.0030 -0.0385
 1180ERGO    R216847   6.630   6.479   7.287 -0.1401 -0.0067 -0.1058
 1180ERGO    R316848   6.756   6.304   7.452 -0.1024  0.1009 -0.0189
 1180ERGO    R416849   6.595   6.471   7.631 -0.2917  0.0260 -0.1195
 1180ERGO    R516850   6.809   6.433   7.647 -0.2740  0.1660 -0.0147
 1180ERGO    C116851   6.693   6.302   7.986 -0.3446  0.1459 -0.0461
 1180ERGO    C216852   6.783   6.294   8.262  0.1987 -0.3278 -0.1718
 1181ERGO   ROH16853   5.904   9.735   7.135  0.2429  0.2021 -0.0357
 1181ERGO    R116854   5.848   9.895   7.361  0.2316  0.2347 -0.0620
 1181ERGO    R216855   5.895   9.810   7.620  0.0951  0.2209 -0.0442
 1181ERGO    R316856   6.037  10.041   7.636  0.1948  0.1574  0.0059
 1181ERGO    R416857   5.986   9.965   7.915  0.0612  0.1713 -0.0070
 1181ERGO    R516858   5.941  10.157   7.822  0.1786  0.1969 -0.0232
 1181ERGO    C116859   6.173  10.272   8.102  0.1349  0.0828  0.0618
 1181ERGO    C216860   6.303  10.444   8.387 -0.2264 -0.1548 -0.0019
 1182ERGO   ROH16861   2.104  11.028   6.751 -0.1657 -0.2705  0.0317
 1182ERGO    R116862   2.083  11.182   6.988 -0.1950 -0.0965 -0.0813
 1182ERGO    R216863   1.899  11.124   7.186 -0.1185 -0.0458  0.0089
 1182ERGO    R316864   2.120  11.123   7.345 -0.0775  0.2001 -0.0428
 1182ERGO    R416865   1.898  11.192   7.525 -0.1546 -0.3048  0.0617
 1182ERGO    R516866   2.083  11.304   7.498 -0.3450  0.0261  0.1031
 1182ERGO    C116867   2.104  11.230   7.872 -0.1372 -0.2247  0.0439
 1182ERGO    C216868   1.901  11.344   8.054  0.1249  0.1161 -0.0413
 1183ERGO   ROH16869   5.907  16.352   7.297 -0.0623  0.0023 -0.0626
 1183ERGO    R116870   5.883  16.200   7.535 -0.0591 -0.0115 -0.0712
 1183ERGO    R216871   5.982  16.288   7.778  0.0200 -0.0641 -0.0839
 1183ERGO    R316872   5.727  16.243   7.861  0.0233  0.0081 -0.0343
 1183ERGO    R416873   5.893  16.174   8.092  0.0500 -0.0778 -0.0803
 1183ERGO    R516874   5.742  16.048   7.999 -0.0114 -0.0153 -0.0644
 1183ERGO    C116875   5.602  16.066   8.353  0.0706 -0.0178 -0.0316
 1183ERGO    C216876   5.750  16.102   8.617 -0.2024  0.3458  0.2355
 1184ERGO   ROH16877   1.485   3.871   7.049 -0.0857  0.1488 -0.0524
 1184ERGO    R116878   1.363   3.748   7.273  0.0371  0.0074 -0.0611
 1184ERGO    R216879   1.507   3.611   7.464  0.1706  0.0843 -0.1008
 1184ERGO    R316880   1.380   3.781   7.635  0.0531 -0.0456 -0.0581
 1184ERGO    R416881   1.543   3.609   7.808  0.1572  0.0206 -0.1001
 1184ERGO    R516882   1.328   3.646   7.825  0.1357 -0.1265 -0.0960
 1184ERGO    C116883   1.444   3.767   8.168  0.0392 -0.1386 -0.0596
 1184ERGO    C216884   1.514   3.841   8.507 -0.0945  0.2249  0.1666
 1185ERGO   ROH16885   7.563   2.415   7.008 -0.2652 -0.1802  0.1045
 1185ERGO    R116886   7.535   2.546   7.257 -0.1949 -0.0585  0.0512
 1185ERGO    R216887   7.389   2.438   7.466 -0.1310  0.0365  0.1533
 1185ERGO    R316888   7.621   2.475   7.604 -0.0879  0.1106  0.0593
 1185ERGO    R416889   7.420   2.417   7.810  0.0277  0.0081  0.1365
 1185ERGO    R516890   7.554   2.589   7.803 -0.0446  0.0581  0.1001
 1185ERGO    C116891   7.656   2.439   8.139  0.1604  0.0611  0.0385
 1185ERGO    C216892   7.675   2.348   8.528  0.2519 -0.0348  0.3614
 1186ERGO   ROH16893  15.796   1.956   6.741  0.1549 -0.0443  0.0703
 1186ERGO    R116894  15.847   2.033   7.008  0.1251 -0.0629  0.0806
 1186ERGO    R216895  15.651   2.140   7.172  0.1365  0.0332  0.0269
 1186ERGO    R316896  15.726   1.938   7.338 -0.0018  0.0026  0.0549
 1186ERGO    R416897  15.573   2.122   7.508  0.1796  0.1728  0.0458
 1186ERGO    R516898  15.774   2.047   7.546  0.1283  0.0099  0.0243
 1186ERGO    C116899  15.597   1.922   7.860  0.0747  0.2252  0.0830
 1186ERGO    C216900  15.568   1.934   8.175  0.0402 -0.0197 -0.2936
 1187ERGO   ROH16901   8.453   2.491  10.805  0.2398  0.0692 -0.0576
 1187ERGO    R116902   8.554   2.501  10.541  0.1136  0.0412 -0.1082
 1187ERGO    R216903   8.470   2.328  10.342  0.0113  0.0254 -0.0533
 1187ERGO    R316904   8.419   2.558  10.208 -0.0449  0.0154 -0.0487
 1187ERGO    R416905   8.456   2.357   9.998  0.0128  0.0315 -0.0524
 1187ERGO    R516906   8.561   2.548  10.015 -0.0375  0.0576 -0.0448
 1187ERGO    C116907   8.401   2.592   9.672 -0.0390  0.0257 -0.0477
 1187ERGO    C216908   8.450   2.577   9.391  0.0243 -0.0161  0.0317
 1188ERGO   ROH16909  15.963   5.022   6.918 -0.0212  0.1625  0.1097
 1188ERGO    R116910  15.810   5.021   7.156 -0.1348  0.0077  0.0362
 1188ERGO    R216911  15.853   4.840   7.360  0.0486  0.1431  0.1122
 1188ERGO    R316912  15.873   5.065   7.511 -0.3720  0.2278  0.0565
 1188ERGO    R416913  15.884   4.844   7.704  0.3991  0.2496  0.0837
 1188ERGO    R516914  15.749   5.014   7.710 -0.0497 -0.0842  0.1971
 1188ERGO    C116915  15.922   5.057   8.047  0.2084  0.3911  0.0149
 1188ERGO    C216916  15.849   5.026   8.334  0.0389  0.2035 -0.1326
 1189ERGO   ROH16917   1.530  16.131   6.689 -0.0375 -0.0097 -0.0127
 1189ERGO    R116918   1.439  16.280   6.911  0.0142 -0.0150  0.0116
 1189ERGO    R216919   1.199  16.225   7.039  0.0114  0.0268  0.0211
 1189ERGO    R316920   1.357  16.212   7.260  0.0231 -0.0369  0.0096
 1189ERGO    R416921   1.086  16.244   7.365  0.0466  0.1013  0.0298
 1189ERGO    R516922   1.260  16.367   7.413  0.1107  0.0207  0.0087
 1189ERGO    C116923   1.169  16.242   7.762  0.0780  0.0848  0.0241
 1189ERGO    C216924   1.173  16.228   8.077  0.0674  0.4011  0.0284
 1190ERGO   ROH16925  14.134   5.029   6.877 -0.2836  0.0324 -0.1161
 1190ERGO    R116926  14.002   5.088   7.120 -0.1950  0.0031 -0.0605
 1190ERGO    R216927  13.880   4.894   7.274 -0.0310 -0.0336  0.0244
 1190ERGO    R316928  14.038   4.995   7.470  0.0158  0.0666 -0.0643
 1190ERGO    R416929  13.875   4.792   7.605  0.0990  0.0810  0.0625
 1190ERGO    R516930  13.897   5.001   7.664  0.0790  0.1072 -0.0185
 1190ERGO    C116931  14.021   4.829   7.981  0.2186  0.2417  0.0016
 1190ERGO    C216932  14.022   4.676   8.267  0.0410 -0.1883 -0.0767
 1191ERGO   ROH16933  15.297  14.465   8.712 -0.2544 -0.0754 -0.0947
 1191ERGO    R116934  15.423  14.221   8.645 -0.1993 -0.0642 -0.0358
 1191ERGO    R216935  15.598  14.092   8.816 -0.0778  0.0732 -0.0500
 1191ERGO    R316936  15.430  13.882   8.779 -0.0258  0.0006  0.1212
 1191ERGO    R416937  15.691  13.760   8.838  0.1746  0.1067 -0.4936
 1191ERGO    R516938  15.564  13.719   8.665 -0.1470  0.1697 -0.2772
 1191ERGO    C116939  15.587  13.369   8.816  0.3704  0.0580 -0.5912
 1191ERGO    C216940  15.534  13.104   8.912  0.1970  0.1883  0.1260
 1192ERGO   ROH16941   4.168  13.478   6.723  0.1134  0.0363 -0.0720
 1192ERGO    R116942   4.199  13.338   6.967 -0.1939 -0.0807 -0.0964
 1192ERGO    R216943   4.380  13.415   7.161 -0.0065 -0.5161 -0.0852
 1192ERGO    R316944   4.160  13.412   7.321 -0.0206 -0.0490 -0.0838
 1192ERGO    R416945   4.386  13.392   7.506 -0.0581 -0.3469 -0.0723
 1192ERGO    R516946   4.215  13.258   7.496 -0.2949 -0.0565 -0.0022
 1192ERGO    C116947   4.183  13.377   7.857 -0.1012  0.1901 -0.0634
 1192ERGO    C216948   4.177  13.420   8.260  0.3707 -0.3341  0.0777
 1193ERGO   ROH16949  13.870   7.749   7.137  0.0576  0.0510 -0.1582
 1193ERGO    R116950  13.736   7.827   7.373  0.0679  0.2619 -0.2208
 1193ERGO    R216951  13.699   7.657   7.588 -0.3889  0.2786 -0.2750
 1193ERGO    R316952  13.818   7.858   7.726 -0.0738  0.0258 -0.1660
 1193ERGO    R416953  13.690   7.693   7.931 -0.2298  0.0562 -0.2452
 1193ERGO    R516954  13.665   7.907   7.904  0.0488  0.1111 -0.0855
 1193ERGO    C116955  13.797   7.903   8.261  0.1585 -0.3106 -0.1256
 1193ERGO    C216956  13.845   7.702   8.506 -0.0649  0.3528  0.2927
 1194ERGO   ROH16957  14.821   6.505   7.051 -0.1855 -0.1046  0.0613
 1194ERGO    R116958  14.650   6.519   7.276 -0.1112 -0.0932  0.1175
 1194ERGO    R216959  14.681   6.354   7.497 -0.0240 -0.0656  0.1265
 1194ERGO    R316960  14.686   6.591   7.631  0.0018 -0.0503  0.0979
 1194ERGO    R416961  14.681   6.386   7.841 -0.0240 -0.0254  0.1227
 1194ERGO    R516962  14.545   6.555   7.821 -0.0044 -0.0118  0.1009
 1194ERGO    C116963  14.687   6.627   8.167  0.0002  0.0124  0.0937
 1194ERGO    C216964  14.718   6.614   8.508 -0.0218  0.2631  0.2821
 1195ERGO   ROH16965  15.488   6.613   7.143  0.1484  0.1766 -0.1978
 1195ERGO    R116966  15.634   6.615   7.385  0.1338  0.0772 -0.1866
 1195ERGO    R216967  15.572   6.784   7.594  0.1840  0.0663 -0.1572
 1195ERGO    R316968  15.565   6.552   7.737  0.0833  0.0410 -0.2043
 1195ERGO    R416969  15.599   6.763   7.938  0.3442 -0.0355 -0.1755
 1195ERGO    R516970  15.724   6.586   7.913  0.1965 -0.1213 -0.2779
 1195ERGO    C116971  15.608   6.533   8.272  0.3431 -0.1185 -0.2303
 1195ERGO    C216972  15.462   6.766   8.614 -0.0592  0.1954  0.1667
 1196ERGO   ROH16973   8.464  16.875   7.116 -0.0926 -0.1191  0.0338
 1196ERGO    R116974   8.642  16.877   7.337 -0.1060 -0.0476  0.0438
 1196ERGO    R216975   8.704  17.108   7.476 -0.1889 -0.0200  0.0319
 1196ERGO    R316976   8.623  16.961   7.690 -0.1521 -0.0312  0.0383
 1196ERGO    R416977   8.800  17.166   7.803  0.0160 -0.1443 -0.0047
 1196ERGO    R516978   8.817  16.951   7.831 -0.0791 -0.1629 -0.0661
 1196ERGO    C116979   8.781  17.062   8.194  0.1700 -0.2269 -0.0200
 1196ERGO    C216980   8.727  17.185   8.535 -0.0155  0.0323  0.0987
 1197ERGO   ROH16981   7.426  13.102   7.029 -0.4481 -0.1269  0.1652
 1197ERGO    R116982   7.434  13.189   7.298 -0.3936 -0.0447  0.1368
 1197ERGO    R216983   7.258  13.096   7.490 -0.1387 -0.2438  0.2747
 1197ERGO    R316984   7.487  13.036   7.624  0.0371  0.1129  0.1490
 1197ERGO    R416985   7.298  13.118   7.833 -0.0254 -0.2759  0.2646
 1197ERGO    R516986   7.497  13.199   7.799 -0.1712  0.0879  0.1922
 1197ERGO    C116987   7.535  13.075   8.158  0.2055  0.0403  0.1407
 1197ERGO    C216988   7.361  13.040   8.516  0.0510 -0.0159  0.0581
 1198ERGO   ROH16989   2.938  15.727   7.170  0.1085  0.1487  0.0624
 1198ERGO    R116990   2.740  15.731   7.372 -0.0133  0.0080 -0.0519
 1198ERGO    R216991   2.562  15.523   7.410  0.1465 -0.1444 -0.1214
 1198ERGO    R316992   2.657  15.531   7.664 -0.0060 -0.0178 -0.0673
 1198ERGO    R416993   2.388  15.416   7.688 -0.0159 -0.0197 -0.1730
 1198ERGO    R516994   2.465  15.588   7.797 -0.0897  0.0366 -0.2085
 1198ERGO    C116995   2.376  15.361   8.090 -0.2536  0.1717 -0.1523
 1198ERGO    C216996   2.225  15.242   8.358  0.0689 -0.0901  0.3677
 1199ERGO   ROH16997   7.733   0.999   6.926  0.2300 -0.0434  0.0002
 1199ERGO    R116998   7.898   1.037   7.153  0.1231  0.0391  0.0658
 1199ERGO    R216999   7.843   1.226   7.347 -0.1119 -0.0644  0.1071
 1199ERGO    R317000   7.859   1.012   7.514  0.0248 -0.1013  0.0459
 1199ERGO    R417001   7.833   1.242   7.692 -0.0012 -0.1593  0.1147
 1199ERGO    R517002   7.988   1.090   7.699  0.0574 -0.1025  0.0223
 1199ERGO    C117003   7.842   1.051   8.049  0.1916 -0.2492  0.0617
 1199ERGO    C217004   7.964   1.081   8.402 -0.1967 -0.1778 -0.1106
 1200ERGO   ROH17005   2.163   5.560   6.898 -0.1341  0.1332 -0.1528
 1200ERGO    R117006   2.250   5.715   7.119 -0.0676  0.0714 -0.1353
 1200ERGO    R217007   2.075   5.850   7.285 -0.0132  0.0865 -0.0894
 1200ERGO    R317008   2.204   5.711   7.480 -0.0247  0.0180 -0.1305
 1200ERGO    R417009   2.100   5.949   7.615 -0.0098 -0.0169 -0.0582
 1200ERGO    R517010   2.307   5.879   7.615 -0.0149 -0.0308 -0.0773
 1200ERGO    C117011   2.236   5.877   7.990 -0.0187 -0.1414 -0.0787
 1200ERGO    C217012   2.293   5.936   8.349 -0.0920  0.2442  0.0933
 1201ERGO   ROH17013   1.971   7.329   6.917  0.3341  0.0574 -0.1648
 1201ERGO    R117014   2.130   7.401   7.140  0.1509  0.0578 -0.0318
 1201ERGO    R217015   2.044   7.580   7.333 -0.0446 -0.0113 -0.0531
 1201ERGO    R317016   2.104   7.376   7.502 -0.1047 -0.0298 -0.0536
 1201ERGO    R417017   2.082   7.612   7.674 -0.2520 -0.0644 -0.0233
 1201ERGO    R517018   2.251   7.475   7.663 -0.2182 -0.0297  0.0510
 1201ERGO    C117019   2.162   7.439   8.033 -0.4291 -0.1128 -0.0063
 1201ERGO    C217020   2.136   7.512   8.347  0.5128  0.0822  0.1806
 1202ERGO   ROH17021  14.605   2.075   6.586 -0.2567 -0.2722 -0.0374
 1202ERGO    R117022  14.607   1.959   6.844 -0.2097 -0.1598  0.0122
 1202ERGO    R217023  14.815   1.996   7.023 -0.1912 -0.0605 -0.0340
 1202ERGO    R317024  14.616   2.080   7.187 -0.1765 -0.0113 -0.0393
 1202ERGO    R417025  14.837   2.011   7.367 -0.1414  0.0811 -0.0417
 1202ERGO    R517026  14.632   1.937   7.378 -0.1350  0.0656  0.0176
 1202ERGO    C117027  14.662   2.098   7.722 -0.0984  0.2096 -0.0510
 1202ERGO    C217028  14.766   2.143   8.108 -0.1676 -0.1633  0.1467
 1203ERGO   ROH17029   4.359   0.221   6.949  0.0455  0.0478  0.0675
 1203ERGO    R117030   4.332   0.110   7.208  0.0960 -0.0784  0.0189
 1203ERGO    R217031   4.545   0.004   7.348  0.1819  0.1362  0.0469
 1203ERGO    R317032   4.465   0.178   7.540 -0.0967 -0.0313  0.0893
 1203ERGO    R417033   4.582  -0.047   7.688  0.4723  0.1957  0.0278
 1203ERGO    R517034   4.383   0.038   7.717  0.2899 -0.2246  0.1314
 1203ERGO    C117035   4.528   0.087   8.066  0.3798  0.0732  0.0565
 1203ERGO    C217036   4.528   0.054   8.491  0.1601  0.2404  0.3815
 1204ERGO   ROH17037  11.291   6.084   6.799  0.0718 -0.0552  0.0048
 1204ERGO    R117038  11.267   5.944   7.044  0.1694 -0.0972 -0.0088
 1204ERGO    R217039  11.454   5.966   7.246  0.1404  0.0391  0.0090
 1204ERGO    R317040  11.237   6.031   7.396  0.0735 -0.1503 -0.0046
 1204ERGO    R417041  11.448   5.969   7.591  0.1689  0.2159  0.0086
 1204ERGO    R517042  11.248   5.881   7.583  0.2770 -0.0373  0.0745
 1204ERGO    C117043  11.240   6.031   7.933  0.1226  0.1410 -0.0043
 1204ERGO    C217044  11.239   5.968   8.163  0.1427  0.1159  0.1049
 1205ERGO   ROH17045  13.659   6.112   6.926  0.0019  0.1601  0.0404
 1205ERGO    R117046  13.653   5.946   7.155 -0.1193  0.0517 -0.0395
 1205ERGO    R217047  13.848   5.954   7.350 -0.0843 -0.2229 -0.0582
 1205ERGO    R317048  13.637   5.995   7.516 -0.0279 -0.1092 -0.0133
 1205ERGO    R417049  13.871   6.006   7.691  0.0181 -0.1608 -0.0743
 1205ERGO    R517050  13.696   5.880   7.717 -0.0223 -0.0890 -0.0045
 1205ERGO    C117051  13.686   6.075   8.045  0.1306 -0.0178 -0.0417
 1205ERGO    C217052  13.843   6.226   8.319 -0.1842  0.0468  0.2111
 1206ERGO   ROH17053  13.112  12.028   6.987 -0.1047 -0.0940 -0.0427
 1206ERGO    R117054  13.047  11.979   7.258 -0.1072 -0.0515 -0.0354
 1206ERGO    R217055  13.219  12.037   7.465 -0.0540 -0.1431 -0.0521
 1206ERGO    R317056  13.005  12.177   7.560  0.0321 -0.0210 -0.0361
 1206ERGO    R417057  13.133  12.064   7.799 -0.0202 -0.0982 -0.0468
 1206ERGO    R517058  12.923  12.044   7.741 -0.0348  0.0242 -0.0339
 1206ERGO    C117059  12.882  12.210   8.082  0.0804  0.0425 -0.0287
 1206ERGO    C217060  12.797  12.319   8.497  0.0153  0.0882  0.0712
 1207ERGO   ROH17061  10.200  14.615   9.205 -0.1120 -0.0725 -0.0124
 1207ERGO    R117062  10.124  14.878   9.133 -0.0699 -0.0102  0.1657
 1207ERGO    R217063  10.050  14.947   8.876  0.0906  0.2105  0.1754
 1207ERGO    R317064   9.827  15.040   9.000  0.0110  0.0999  0.1172
 1207ERGO    R417065   9.907  15.256   8.818 -0.0321  0.1503  0.1560
 1207ERGO    R517066   9.870  15.274   9.032 -0.1035  0.1179  0.1474
 1207ERGO    C117067   9.614  15.523   8.901 -0.1783  0.0115  0.0901
 1207ERGO    C217068   9.459  15.760   9.003 -0.1240 -0.2459 -0.1747
 1208ERGO   ROH17069   0.210   2.352   6.793 -0.1318 -0.0192  0.0523
 1208ERGO    R117070   0.052   2.333   7.027 -0.0963 -0.0513  0.0749
 1208ERGO    R217071   0.098   2.143   7.222 -0.0097 -0.0247  0.0888
 1208ERGO    R317072   0.107   2.360   7.386 -0.0549 -0.0051  0.0636
 1208ERGO    R417073   0.138   2.130   7.565 -0.0155  0.0334  0.0909
 1208ERGO    R517074  -0.009   2.291   7.583 -0.0423  0.0030  0.0684
 1208ERGO    C117075   0.170   2.327   7.918 -0.0613  0.0856  0.0685
 1208ERGO    C217076   0.023   2.426   8.239  0.0959 -0.1236 -0.1855
 1209ERGO   ROH17077  13.863   8.662   6.997  0.0569  0.3174 -0.0317
 1209ERGO    R117078  13.829   8.790   7.247  0.0244  0.1118  0.0709
 1209ERGO    R217079  13.723   8.661   7.467  0.0976 -0.1012 -0.0199
 1209ERGO    R317080  13.952   8.746   7.586  0.0713 -0.0963  0.0288
 1209ERGO    R417081  13.750   8.750   7.799  0.0315 -0.1511 -0.0004
 1209ERGO    R517082  13.880   8.915   7.739  0.0262 -0.1259  0.0444
 1209ERGO    C117083  13.982   8.881   8.105 -0.0316 -0.1755  0.0568
 1209ERGO    C217084  13.895   9.015   8.311 -0.1425 -0.2085  0.0960
 1210ERGO   ROH17085   2.922   3.478   7.088  0.1178  0.1758 -0.0498
 1210ERGO    R117086   2.982   3.376   7.345  0.1155  0.1950 -0.0417
 1210ERGO    R217087   3.062   3.537   7.554 -0.0961  0.2393  0.0061
 1210ERGO    R317088   2.853   3.419   7.683 -0.0413  0.0440 -0.0802
 1210ERGO    R417089   3.013   3.541   7.897 -0.2479  0.2110 -0.0142
 1210ERGO    R517090   2.949   3.332   7.885 -0.0437  0.1456 -0.0339
 1210ERGO    C117091   2.790   3.432   8.217 -0.2849  0.0112 -0.1071
 1210ERGO    C217092   2.886   3.535   8.470 -0.2301  0.0147 -0.2279
 1211ERGO   ROH17093  13.489   3.030   6.514 -0.0743 -0.1629 -0.0393
 1211ERGO    R117094  13.502   2.923   6.776  0.1106 -0.1696 -0.0514
 1211ERGO    R217095  13.677   3.019   6.967 -0.0881  0.1525 -0.0301
 1211ERGO    R317096  13.451   3.046   7.114 -0.1605 -0.3044 -0.0391
 1211ERGO    R417097  13.663   3.001   7.311 -0.0309  0.2683 -0.0202
 1211ERGO    R517098  13.477   2.889   7.293  0.2135 -0.1784  0.0302
 1211ERGO    C117099  13.443   3.016   7.651 -0.0656 -0.0932 -0.0230
 1211ERGO    C217100  13.420   2.950   8.004 -0.0991  0.2296  0.3668
 1212ERGO   ROH17101  14.227   3.330  10.816  0.1395 -0.0643  0.0707
 1212ERGO    R117102  14.129   3.392  10.558  0.0234 -0.2482  0.0707
 1212ERGO    R217103  14.258   3.567  10.387 -0.2223 -0.1257  0.0148
 1212ERGO    R317104  14.247   3.357  10.215  0.0165 -0.1801  0.0597
 1212ERGO    R417105  14.314   3.587  10.047 -0.2717 -0.1219  0.0057
 1212ERGO    R517106  14.149   3.448  10.016 -0.1130 -0.3320  0.0469
 1212ERGO    C117107  14.336   3.402   9.687 -0.0761 -0.1707  0.0425
 1212ERGO    C217108  14.349   3.228   9.386  0.0053 -0.0073  0.0215
 1213ERGO   ROH17109   1.229   4.651   9.217 -0.0240  0.3119  0.1310
 1213ERGO    R117110   0.985   4.793   9.232 -0.0591  0.2867 -0.1455
 1213ERGO    R217111   0.793   4.781   9.033 -0.0494 -0.1272 -0.1415
 1213ERGO    R317112   0.631   4.711   9.239 -0.0387  0.2120 -0.0111
 1213ERGO    R417113   0.467   4.672   8.998 -0.0317 -0.2459  0.0543
 1213ERGO    R517114   0.414   4.790   9.174 -0.0509  0.0609 -0.1544
 1213ERGO    C117115   0.124   4.542   9.172 -0.0113  0.0036  0.2908
 1213ERGO    C217116  -0.143   4.503   9.152 -0.0153  0.0338 -0.2078
 1214ERGO   ROH17117   1.084  15.120   6.604 -0.1475 -0.1332  0.1323
 1214ERGO    R117118   1.115  15.067   6.881 -0.1042 -0.1220  0.1293
 1214ERGO    R217119   1.268  15.227   7.047 -0.1393 -0.0737  0.1124
 1214ERGO    R317120   1.039  15.238   7.193 -0.1280 -0.1452  0.1366
 1214ERGO    R417121   1.253  15.243   7.392 -0.1036  0.0122  0.1106
 1214ERGO    R517122   1.085  15.105   7.387 -0.0392 -0.0722  0.1675
 1214ERGO    C117123   1.030  15.262   7.730 -0.0723 -0.0050  0.1323
 1214ERGO    C217124   1.064  15.256   8.107  0.3459  0.0846  0.0773
 1215ERGO   ROH17125  14.544   9.342   7.120  0.3458  0.2107 -0.0657
 1215ERGO    R117126  14.680   9.381   7.365  0.3362  0.0179 -0.0293
 1215ERGO    R217127  14.560   9.337   7.610  0.2695  0.0039 -0.0675
 1215ERGO    R317128  14.775   9.175   7.650  0.1515 -0.1620 -0.0942
 1215ERGO    R417129  14.712   9.282   7.915  0.2764 -0.0920 -0.0873
 1215ERGO    R517130  14.906   9.289   7.815  0.2684 -0.2491 -0.1221
 1215ERGO    C117131  15.001   9.098   8.131  0.1697 -0.3037 -0.1240
 1215ERGO    C217132  15.091   9.061   8.552  0.0609  0.0659  0.4987
 1216ERGO   ROH17133  15.328   7.793   6.952 -0.0231  0.0503 -0.1085
 1216ERGO    R117134  15.383   7.870   7.219 -0.2018  0.1850 -0.1101
 1216ERGO    R217135  15.210   7.818   7.428 -0.1583 -0.0703 -0.1398
 1216ERGO    R317136  15.429   7.703   7.539  0.0163  0.3097 -0.0732
 1216ERGO    R417137  15.293   7.835   7.763 -0.5371 -0.2755 -0.0283
 1216ERGO    R517138  15.502   7.861   7.704 -0.5207  0.2962  0.2006
 1216ERGO    C117139  15.548   7.737   8.062 -0.5938 -0.0383  0.0992
 1216ERGO    C217140  15.583   7.695   8.390  0.0124  0.0334  0.0462
 1217ERGO   ROH17141  10.071   1.331   6.939 -0.3802  0.1203 -0.1571
 1217ERGO    R117142  10.086   1.216   7.197 -0.2208  0.1426 -0.1554
 1217ERGO    R217143  10.291   1.273   7.374 -0.1116  0.1606 -0.2851
 1217ERGO    R317144  10.086   1.337   7.540 -0.0123  0.1726 -0.1648
 1217ERGO    R417145  10.309   1.282   7.719  0.0922  0.1816 -0.2948
 1217ERGO    R517146  10.112   1.192   7.728  0.0969  0.1848 -0.1714
 1217ERGO    C117147  10.126   1.348   8.076  0.3040  0.2051 -0.1876
 1217ERGO    C217148  10.183   1.254   8.427  0.0845  0.1905  0.0581
 1218ERGO   ROH17149   0.923  13.428   6.621 -0.1447  0.0460 -0.1149
 1218ERGO    R117150   1.090  13.437   6.849 -0.0811 -0.0813 -0.1554
 1218ERGO    R217151   1.104  13.658   7.016  0.0916 -0.1087 -0.1303
 1218ERGO    R317152   1.045  13.475   7.208  0.0316 -0.0986 -0.1390
 1218ERGO    R417153   1.108  13.719   7.356  0.1754 -0.1438 -0.1250
 1218ERGO    R517154   1.197  13.523   7.385  0.0835 -0.1912 -0.1583
 1218ERGO    C117155   1.055  13.582   7.734  0.1678 -0.1545 -0.1301
 1218ERGO    C217156   0.981  13.591   8.100 -0.2355 -0.3281  0.0552
 1219ERGO   ROH17157   2.869  13.861   6.787  0.1128  0.1703  0.0964
 1219ERGO    R117158   2.877  13.861   7.070  0.0183 -0.0456  0.0990
 1219ERGO    R217159   2.696  14.001   7.224  0.1165  0.0246  0.1321
 1219ERGO    R317160   2.656  13.759   7.341 -0.1755 -0.0185 -0.0422
 1219ERGO    R417161   2.560  13.954   7.538  0.5712  0.0303  0.3391
 1219ERGO    R517162   2.707  13.796   7.572  0.3266 -0.3271 -0.0777
 1219ERGO    C117163   2.444  13.699   7.831  0.5618 -0.0069  0.2961
 1219ERGO    C217164   2.391  13.802   8.049  0.0821  0.3985  0.0714
 1220ERGO   ROH17165   6.638  15.486   6.669  0.0033  0.1719  0.2703
 1220ERGO    R117166   6.633  15.346   6.915 -0.0014  0.1296  0.2472
 1220ERGO    R217167   6.863  15.282   7.054  0.0083 -0.0239  0.1712
 1220ERGO    R317168   6.737  15.411   7.257  0.1367  0.0135  0.2270
 1220ERGO    R417169   6.940  15.246   7.389  0.0571 -0.1356  0.1477
 1220ERGO    R517170   6.726  15.249   7.433  0.0735 -0.0105  0.1966
 1220ERGO    C117171   6.866  15.345   7.775  0.2060 -0.1656  0.1863
 1220ERGO    C217172   6.943  15.474   8.125  0.0168 -0.0216 -0.2735
 1221ERGO   ROH17173  11.863   0.118   7.041 -0.0064 -0.0882  0.1294
 1221ERGO    R117174  11.948   0.046   7.302  0.0831  0.0384  0.1359
 1221ERGO    R217175  12.018   0.234   7.492 -0.1385  0.1433  0.1173
 1221ERGO    R317176  11.834   0.102   7.642  0.0173 -0.0651  0.1309
 1221ERGO    R417177  12.008   0.233   7.838 -0.0530  0.0444  0.1202
 1221ERGO    R517178  11.957   0.022   7.831  0.1384 -0.0024  0.0794
 1221ERGO    C117179  11.829   0.110   8.180  0.1433 -0.2089  0.1347
 1221ERGO    C217180  11.588   0.219   8.486  0.4465 -0.1547  0.2434
 1222ERGO   ROH17181   1.359   5.154   7.242 -0.2090 -0.2743  0.0496
 1222ERGO    R117182   1.473   5.240   7.486 -0.1935 -0.0784 -0.0250
 1222ERGO    R217183   1.346   5.419   7.654 -0.3500 -0.2224  0.0095
 1222ERGO    R317184   1.384   5.223   7.839  0.0167 -0.1418  0.0270
 1222ERGO    R417185   1.404   5.473   7.990 -0.4164 -0.0768 -0.0014
 1222ERGO    R517186   1.551   5.312   7.986 -0.1222  0.1772  0.0034
 1222ERGO    C117187   1.475   5.321   8.360 -0.1108  0.0837  0.0086
 1222ERGO    C217188   1.513   5.275   8.722 -0.3453 -0.0867  0.2676
 1223ERGO   ROH17189   4.848   5.128   6.911 -0.0827  0.2774 -0.0993
 1223ERGO    R117190   4.760   5.299   7.120 -0.2121  0.1910 -0.0804
 1223ERGO    R217191   4.574   5.219   7.308 -0.1524  0.0269 -0.0792
 1223ERGO    R317192   4.767   5.296   7.483 -0.2021  0.1572 -0.0827
 1223ERGO    R417193   4.529   5.257   7.649 -0.1358 -0.1030 -0.0632
 1223ERGO    R517194   4.653   5.435   7.641 -0.3035  0.0088 -0.0305
 1223ERGO    C117195   4.684   5.351   8.012 -0.1727 -0.0563 -0.0572
 1223ERGO    C217196   4.680   5.351   8.385 -0.0870 -0.0052  0.0184
 1224ERGO   ROH17197   4.433   7.472   7.186  0.2741 -0.2125  0.1519
 1224ERGO    R117198   4.459   7.365   7.447  0.4383 -0.0672  0.1966
 1224ERGO    R217199   4.594   7.496   7.649  0.0800  0.3166  0.1931
 1224ERGO    R317200   4.360   7.462   7.783  0.1074 -0.1718  0.1345
 1224ERGO    R417201   4.564   7.485   7.993  0.0133  0.4223  0.1917
 1224ERGO    R517202   4.418   7.324   7.970  0.3910  0.0520  0.2241
 1224ERGO    C117203   4.326   7.445   8.320  0.0002  0.0253  0.1358
 1224ERGO    C217204   4.328   7.705   8.644  0.1788 -0.3171 -0.0471
 1225ERGO   ROH17205  12.180  13.904   6.866  0.0240 -0.2058 -0.1182
 1225ERGO    R117206  12.176  13.784   7.122  0.0459 -0.1849 -0.1085
 1225ERGO    R217207  12.349  13.858   7.324 -0.0911 -0.0084 -0.0575
 1225ERGO    R317208  12.119  13.892   7.465 -0.1705 -0.2045 -0.1358
 1225ERGO    R417209  12.327  13.854   7.669 -0.1626  0.1665 -0.0589
 1225ERGO    R517210  12.141  13.742   7.651 -0.0273 -0.0750 -0.0414
 1225ERGO    C117211  12.098  13.883   8.002 -0.2786  0.0842 -0.1332
 1225ERGO    C217212  12.180  13.810   8.339  0.1105  0.3269  0.0600
 1226ERGO   ROH17213   2.053   2.617   6.931 -0.3043 -0.0116  0.0274
 1226ERGO    R117214   1.999   2.503   7.185 -0.2014  0.0111  0.0588
 1226ERGO    R217215   2.151   2.561   7.408 -0.0714 -0.0194 -0.0247
 1226ERGO    R317216   1.909   2.625   7.516  0.0002  0.0439  0.1040
 1226ERGO    R417217   2.063   2.511   7.739  0.0272 -0.1850 -0.0215
 1226ERGO    R517218   1.865   2.448   7.671 -0.0358 -0.0365  0.0078
 1226ERGO    C117219   1.786   2.542   8.032  0.1519 -0.2219  0.1012
 1226ERGO    C217220   2.012   2.560   8.300  0.3102 -0.0891  0.1856
 1227ERGO   ROH17221  13.290   7.012   6.878 -0.0158 -0.2079 -0.2384
 1227ERGO    R117222  13.243   6.866   7.117  0.0010 -0.1080 -0.1714
 1227ERGO    R217223  13.425   6.860   7.325  0.0786 -0.1230 -0.2255
 1227ERGO    R317224  13.211   6.943   7.471  0.1652  0.0322 -0.1889
 1227ERGO    R417225  13.403   6.847   7.670  0.0725 -0.1858 -0.2293
 1227ERGO    R517226  13.195   6.785   7.650  0.0247  0.0110 -0.2304
 1227ERGO    C117227  13.190   6.919   8.007  0.1503 -0.0767 -0.1970
 1227ERGO    C217228  13.145   7.056   8.294  0.1394  0.2340 -0.2270
 1228ERGO   ROH17229   8.865  11.486   6.978 -0.1939 -0.2612  0.0900
 1228ERGO    R117230   9.034  11.563   7.191  0.0016 -0.3225 -0.0394
 1228ERGO    R217231   8.938  11.683   7.421  0.2656  0.0692 -0.1228
 1228ERGO    R317232   9.069  11.478   7.544 -0.0311 -0.0319  0.0363
 1228ERGO    R417233   9.035  11.681   7.753  0.1801  0.1490 -0.0973
 1228ERGO    R517234   9.222  11.587   7.692  0.0761 -0.1372  0.0053
 1228ERGO    C117235   9.215  11.489   8.061 -0.1483  0.1006  0.0669
 1228ERGO    C217236   9.191  11.329   8.366  0.1841 -0.1391 -0.2162
 1229ERGO   ROH17237  15.576   9.465   6.983  0.0416 -0.0447 -0.0184
 1229ERGO    R117238  15.748   9.369   7.186  0.0034 -0.1209 -0.0228
 1229ERGO    R217239  15.794   9.509   7.419  0.1016 -0.1228 -0.0449
 1229ERGO    R317240  15.717   9.276   7.537 -0.0194 -0.0665 -0.0095
 1229ERGO    R417241  15.903   9.397   7.728  0.1863 -0.2150 -0.1068
 1229ERGO    R517242  15.914   9.196   7.645 -0.0184 -0.2254 -0.1209
 1229ERGO    C117243  15.894   9.114   8.017  0.1220 -0.2159 -0.1095
 1229ERGO    C217244  15.987   9.162   8.413  0.2891 -0.1288  0.0438
 1230ERGO   ROH17245   7.935   6.643   6.687  0.0159  0.1810 -0.0183
 1230ERGO    R117246   7.810   6.765   6.909  0.0564  0.1266  0.0333
 1230ERGO    R217247   7.722   6.620   7.128 -0.0342  0.0547 -0.0520
 1230ERGO    R317248   7.877   6.796   7.266  0.0407 -0.0923  0.0569
 1230ERGO    R417249   7.714   6.664   7.471 -0.1702  0.0067 -0.0472
 1230ERGO    R517250   7.733   6.879   7.439  0.0205 -0.0028 -0.0026
 1230ERGO    C117251   7.854   6.855   7.799 -0.1792 -0.1592  0.0576
 1230ERGO    C217252   7.743   6.643   7.999 -0.0507 -0.0099  0.2659
 1231ERGO   ROH17253   5.140   9.071   7.113  0.0623 -0.0472  0.0868
 1231ERGO    R117254   5.041   9.080   7.378  0.0823  0.1014  0.0888
 1231ERGO    R217255   5.101   8.886   7.566 -0.0868  0.0890  0.1230
 1231ERGO    R317256   5.183   9.100   7.713  0.1145  0.0457  0.0803
 1231ERGO    R417257   5.145   8.885   7.908 -0.0269  0.0926  0.1168
 1231ERGO    R517258   5.056   9.084   7.916  0.1330  0.1712  0.1071
 1231ERGO    C117259   5.247   9.084   8.246  0.1968  0.0539  0.0731
 1231ERGO    C217260   5.250   9.171   8.604  0.0386  0.2282  0.0146
 1232ERGO   ROH17261  16.650   1.113  10.906  0.1049  0.0927 -0.0540
 1232ERGO    R117262  16.634   0.955  10.672  0.2702  0.0215 -0.0179
 1232ERGO    R217263  16.461   1.014  10.464  0.1784 -0.2301 -0.0107
 1232ERGO    R317264  16.688   1.005  10.315  0.1747  0.0087 -0.0358
 1232ERGO    R417265  16.472   0.967  10.122  0.1732  0.0458 -0.0513
 1232ERGO    R517266  16.645   0.838  10.150  0.2479  0.1121 -0.1659
 1232ERGO    C117267  16.691   0.932   9.783  0.1668  0.4306 -0.0986
 1232ERGO    C217268  16.653   0.832   9.482  0.1156 -0.0131  0.0420
 1233ERGO   ROH17269   1.241   9.001   6.984 -0.2328  0.2848 -0.0885
 1233ERGO    R117270   1.160   9.131   7.223 -0.2095  0.1019  0.0208
 1233ERGO    R217271   0.982   9.017   7.400 -0.0616 -0.1090  0.0383
 1233ERGO    R317272   1.181   9.064   7.580 -0.0109 -0.0864 -0.0232
 1233ERGO    R417273   0.964   8.944   7.738  0.0407 -0.0829  0.0497
 1233ERGO    R517274   1.066   9.133   7.779  0.0447 -0.0756  0.0052
 1233ERGO    C117275   1.141   8.946   8.103  0.1479 -0.0465 -0.0014
 1233ERGO    C217276   1.021   8.844   8.412 -0.3877 -0.2991  0.0790
 1234ERGO   ROH17277   6.074   8.299   7.206  0.2156 -0.0831  0.1217
 1234ERGO    R117278   6.113   8.416   7.461  0.3383 -0.1104  0.1164
 1234ERGO    R217279   5.914   8.425   7.652  0.1808  0.5205 -0.0506
 1234ERGO    R317280   6.102   8.305   7.808 -0.2799  0.0107  0.1466
 1234ERGO    R417281   5.947   8.471   7.993  0.0360  0.5233 -0.0364
 1234ERGO    R517282   6.163   8.473   7.967  0.0803 -0.1113  0.1425
 1234ERGO    C117283   6.142   8.386   8.338 -0.4808  0.0463  0.1569
 1234ERGO    C217284   6.217   8.479   8.763  0.2043 -0.2926 -0.3112
 1235ERGO   ROH17285   4.872   2.741   6.928  0.0059  0.0760  0.0712
 1235ERGO    R117286   4.837   2.906   7.156  0.0294 -0.0253  0.1492
 1235ERGO    R217287   4.628   2.874   7.333  0.0440 -0.1007  0.1540
 1235ERGO    R317288   4.827   2.860   7.517  0.0606 -0.1883  0.1301
 1235ERGO    R417289   4.581   2.874   7.675  0.0932  0.0602  0.1615
 1235ERGO    R517290   4.755   3.004   7.694  0.1974 -0.0669  0.0889
 1235ERGO    C117291   4.741   2.861   8.047  0.1373  0.0716  0.1433
 1235ERGO    C217292   4.893   2.612   8.375 -0.2699  0.0298  0.1167
 1236ERGO   ROH17293  10.846  14.672   6.777 -0.2223  0.4372 -0.0149
 1236ERGO    R117294  10.903  14.772   7.036 -0.1707  0.2442  0.0510
 1236ERGO    R217295  10.710  14.798   7.232 -0.1511  0.1823  0.0817
 1236ERGO    R317296  10.884  14.648   7.378 -0.1948  0.0200 -0.0304
 1236ERGO    R417297  10.760  14.830   7.572  0.1428  0.1781  0.0406
 1236ERGO    R517298  10.973  14.802   7.538  0.0896 -0.0508 -0.1180
 1236ERGO    C117299  10.953  14.708   7.907  0.2728  0.0234 -0.0886
 1236ERGO    C217300  10.891  14.690   8.255 -0.2303 -0.3763  0.1172
 1237ERGO   ROH17301  13.635  10.870   7.238 -0.2227  0.1226  0.0222
 1237ERGO    R117302  13.684  10.876   7.516 -0.2122  0.0333  0.0207
 1237ERGO    R217303  13.547  10.715   7.695 -0.1609 -0.0525 -0.0267
 1237ERGO    R317304  13.797  10.640   7.770 -0.1539 -0.0232 -0.0597
 1237ERGO    R417305  13.643  10.646   8.019 -0.0879  0.0522 -0.0248
 1237ERGO    R517306  13.831  10.749   7.980 -0.1067  0.0382 -0.1019
 1237ERGO    C117307  13.934  10.535   8.279 -0.0388  0.1406 -0.0547
 1237ERGO    C217308  14.073  10.550   8.565  0.1685  0.0456 -0.0598
 1238ERGO   ROH17309   7.989   0.421   6.860  0.0932 -0.2761  0.1064
 1238ERGO    R117310   7.959   0.571   7.099 -0.0052 -0.1196 -0.0014
 1238ERGO    R217311   7.775   0.505   7.294 -0.0297 -0.0407  0.0049
 1238ERGO    R317312   7.994   0.509   7.456 -0.0657  0.1352  0.0506
 1238ERGO    R417313   7.766   0.504   7.640 -0.1018 -0.2347  0.0030
 1238ERGO    R517314   7.929   0.647   7.640 -0.2712 -0.0372  0.1125
 1238ERGO    C117315   7.966   0.507   7.992 -0.1776 -0.1825  0.0449
 1238ERGO    C217316   7.909   0.447   8.459  0.0616  0.0166  0.0705
 1239ERGO   ROH17317   6.313   1.286   7.032 -0.0416  0.0520 -0.0851
 1239ERGO    R117318   6.414   1.263   7.295 -0.0518  0.0365 -0.0825
 1239ERGO    R217319   6.544   1.471   7.424 -0.0129  0.0132 -0.0829
 1239ERGO    R317320   6.356   1.427   7.615 -0.0262  0.0536 -0.0869
 1239ERGO    R417321   6.609   1.442   7.762 -0.0429  0.1167 -0.0680
 1239ERGO    R517322   6.463   1.281   7.772 -0.0297  0.1084 -0.0343
 1239ERGO    C117323   6.470   1.385   8.139 -0.0727  0.2149 -0.0633
 1239ERGO    C217324   6.619   1.460   8.378  0.0307 -0.0273 -0.1287
 1240ERGO   ROH17325   5.705  10.192  11.096 -0.1327 -0.0787 -0.0798
 1240ERGO    R117326   5.839  10.208  10.847 -0.1539  0.0581 -0.0840
 1240ERGO    R217327   5.942   9.986  10.718  0.0058  0.1491 -0.1257
 1240ERGO    R317328   5.790  10.075  10.512 -0.0731  0.0720 -0.1001
 1240ERGO    R417329   6.043   9.997  10.388 -0.0794  0.1605 -0.1509
 1240ERGO    R517330   5.944  10.189  10.369 -0.1546  0.1167 -0.1466
 1240ERGO    C117331   5.959  10.087  10.002 -0.2031  0.0950 -0.1415
 1240ERGO    C217332   5.943  10.012   9.691 -0.0138 -0.1729  0.2845
 1241ERGO   ROH17333   6.719   2.518   7.105  0.0524  0.0349 -0.1208
 1241ERGO    R117334   6.689   2.596   7.375  0.2153  0.0640 -0.1105
 1241ERGO    R217335   6.492   2.493   7.539  0.0030  0.4375 -0.1226
 1241ERGO    R317336   6.702   2.434   7.701 -0.1055 -0.0110 -0.1302
 1241ERGO    R417337   6.476   2.469   7.883 -0.0492  0.4193 -0.1259
 1241ERGO    R517338   6.669   2.571   7.894  0.1646  0.0367 -0.1105
 1241ERGO    C117339   6.665   2.400   8.236 -0.1815 -0.0124 -0.1349
 1241ERGO    C217340   6.688   2.439   8.659 -0.0943  0.1328  0.1834
 1242ERGO   ROH17341  12.236  16.922   6.908 -0.1435 -0.0544  0.0196
 1242ERGO    R117342  12.353  16.865   7.159  0.0515 -0.0030 -0.0576
 1242ERGO    R217343  12.424  17.063   7.339 -0.0010  0.0240 -0.0683
 1242ERGO    R317344  12.268  16.919   7.509  0.2143 -0.1297  0.0037
 1242ERGO    R417345  12.471  17.042   7.681  0.1279  0.1462 -0.0779
 1242ERGO    R517346  12.421  16.830   7.670  0.3716  0.0800 -0.0232
 1242ERGO    C117347  12.352  16.895   8.039  0.4051  0.0731 -0.0160
 1242ERGO    C217348  12.347  16.921   8.405  0.3893  0.2652 -0.0746
 1243ERGO   ROH17349  13.091  13.605   6.903 -0.1550 -0.1259 -0.0321
 1243ERGO    R117350  13.084  13.773   7.130 -0.0669 -0.1317 -0.0250
 1243ERGO    R217351  12.892  13.748   7.328 -0.0144 -0.1097  0.0271
 1243ERGO    R317352  13.109  13.731   7.491  0.0283 -0.1450 -0.0327
 1243ERGO    R417353  12.880  13.720   7.672  0.0751 -0.0242  0.0379
 1243ERGO    R517354  13.049  13.857   7.685  0.1268 -0.0774 -0.0438
 1243ERGO    C117355  13.077  13.688   8.026  0.1675 -0.0075 -0.0118
 1243ERGO    C217356  13.073  13.661   8.506  0.2145 -0.1271  0.1299
 1244ERGO   ROH17357   8.442   6.453   6.805 -0.1562 -0.0541 -0.0637
 1244ERGO    R117358   8.316   6.551   7.038 -0.0653  0.0618 -0.0633
 1244ERGO    R217359   8.172   6.390   7.210 -0.2176  0.1937 -0.0659
 1244ERGO    R317360   8.340   6.492   7.397 -0.1211  0.0359 -0.0638
 1244ERGO    R417361   8.095   6.428   7.544 -0.1254  0.1205 -0.0353
 1244ERGO    R517362   8.198   6.620   7.540 -0.0199  0.0655  0.0108
 1244ERGO    C117363   8.208   6.547   7.915  0.0190 -0.0701 -0.0157
 1244ERGO    C217364   8.283   6.507   8.216  0.1600 -0.0696  0.1965
 1245ERGO   ROH17365   0.659   7.974   6.969 -0.1999  0.0186  0.0942
 1245ERGO    R117366   0.699   8.133   7.200  0.0850 -0.0408  0.0898
 1245ERGO    R217367   0.507   8.161   7.397  0.1036  0.3566  0.0641
 1245ERGO    R317368   0.708   8.078   7.559 -0.0756 -0.0405  0.0937
 1245ERGO    R417369   0.508   8.191   7.741  0.2089  0.5691  0.0461
 1245ERGO    R517370   0.719   8.244   7.731  0.3497  0.0480 -0.0111
 1245ERGO    C117371   0.699   8.130   8.094  0.1019  0.3200  0.0634
 1245ERGO    C217372   0.624   7.993   8.422  0.0424 -0.0449 -0.0463
 1246ERGO   ROH17373   1.787   5.338   7.086  0.3778 -0.0973  0.1855
 1246ERGO    R117374   1.886   5.465   7.319  0.2017 -0.0022  0.2096
 1246ERGO    R217375   1.729   5.628   7.478  0.0227 -0.1102  0.1420
 1246ERGO    R317376   1.812   5.460   7.675  0.0856 -0.0297  0.1862
 1246ERGO    R417377   1.758   5.713   7.812 -0.2421 -0.0773  0.1587
 1246ERGO    R517378   1.942   5.598   7.820 -0.1278  0.1045  0.2574
 1246ERGO    C117379   1.851   5.605   8.191 -0.3373  0.0175  0.2100
 1246ERGO    C217380   1.978   5.511   8.529 -0.1212  0.2565  0.1097
 1247ERGO   ROH17381  11.192   5.652   6.717 -0.0171 -0.1295 -0.0170
 1247ERGO    R117382  11.185   5.492   6.951 -0.0333 -0.1243 -0.0144
 1247ERGO    R217383  11.393   5.484   7.132 -0.1073 -0.0097  0.0723
 1247ERGO    R317384  11.197   5.548   7.310 -0.2148 -0.1055 -0.0093
 1247ERGO    R417385  11.426   5.468   7.476 -0.1433  0.2714  0.0915
 1247ERGO    R517386  11.223   5.388   7.487 -0.0587  0.0443  0.1098
 1247ERGO    C117387  11.262   5.519   7.843 -0.2651  0.3451  0.0259
 1247ERGO    C217388  11.223   5.469   8.231 -0.1073 -0.0865 -0.0684
 1248ERGO   ROH17389   5.539   7.351   7.094 -0.0354 -0.1617 -0.2238
 1248ERGO    R117390   5.687   7.372   7.334  0.0800 -0.3725 -0.2733
 1248ERGO    R217391   5.617   7.547   7.537  0.4883 -0.1452 -0.3172
 1248ERGO    R317392   5.624   7.321   7.689  0.0687 -0.1117 -0.2355
 1248ERGO    R417393   5.624   7.541   7.883  0.3591 -0.0357 -0.3120
 1248ERGO    R517394   5.767   7.377   7.873  0.1013 -0.2789 -0.2068
 1248ERGO    C117395   5.634   7.326   8.226 -0.1100  0.0596 -0.2323
 1248ERGO    C217396   5.692   7.291   8.614 -0.1627 -0.1201  0.0073
 1249ERGO   ROH17397  16.948   6.428   7.184  0.1292 -0.0077  0.0692
 1249ERGO    R117398  16.973   6.550   7.439  0.1523 -0.0259  0.0763
 1249ERGO    R217399  16.795   6.503   7.645  0.0979  0.0560  0.0518
 1249ERGO    R317400  17.020   6.438   7.782  0.0477 -0.0591  0.0796
 1249ERGO    R417401  16.827   6.515   7.989  0.0168 -0.1059  0.0653
 1249ERGO    R517402  17.028   6.596   7.962  0.0417 -0.1426  0.1518
 1249ERGO    C117403  17.058   6.461   8.317 -0.0777 -0.3082  0.0993
 1249ERGO    C217404  16.958   6.368   8.540 -0.2059  0.2165 -0.4142
 1250ERGO   ROH17405  13.528  15.155   6.604 -0.1285  0.1707  0.2331
 1250ERGO    R117406  13.523  15.011   6.848 -0.1635  0.1247  0.2054
 1250ERGO    R217407  13.737  15.006   7.023 -0.1390 -0.0173  0.1725
 1250ERGO    R317408  13.551  15.090   7.202 -0.0700  0.0408  0.2175
 1250ERGO    R417409  13.733  14.923   7.358 -0.1349 -0.0921  0.1540
 1250ERGO    R517410  13.517  14.902   7.345 -0.1489  0.0249  0.1791
 1250ERGO    C117411  13.556  14.953   7.721 -0.0677 -0.0811  0.1855
 1250ERGO    C217412  13.585  15.058   8.051 -0.0874 -0.0010  0.1134
 1251ERGO   ROH17413  14.578   0.711   6.401 -0.1523  0.0055  0.1194
 1251ERGO    R117414  14.607   0.546   6.630  0.0511  0.0570  0.1334
 1251ERGO    R217415  14.836   0.546   6.786  0.1038  0.2584  0.0630
 1251ERGO    R317416  14.659   0.595   6.986  0.1260  0.1466  0.1099
 1251ERGO    R417417  14.888   0.472   7.119  0.1184  0.0340  0.0118
 1251ERGO    R517418  14.681   0.408   7.133  0.1144  0.0493 -0.0142
 1251ERGO    C117419  14.753   0.474   7.501  0.1476 -0.2016  0.0261
 1251ERGO    C217420  14.705   0.502   7.814 -0.0935  0.1124 -0.0372
 1252ERGO   ROH17421   6.230   5.548   6.993  0.0403  0.0550  0.0626
 1252ERGO    R117422   6.142   5.594   7.258  0.1328 -0.0504  0.1114
 1252ERGO    R217423   6.099   5.389   7.438  0.1267 -0.1246  0.0193
 1252ERGO    R317424   6.270   5.533   7.593  0.2127 -0.2533  0.0472
 1252ERGO    R417425   6.121   5.365   7.782 -0.2491  0.1416  0.0687
 1252ERGO    R517426   6.143   5.581   7.791  0.0878  0.1267 -0.1115
 1252ERGO    C117427   6.294   5.485   8.128 -0.3872  0.1757  0.1237
 1252ERGO    C217428   6.242   5.403   8.469  0.1968 -0.3498 -0.1646
 1253ERGO   ROH17429   2.422  12.992   6.849  0.0090  0.2037  0.0534
 1253ERGO    R117430   2.531  13.076   7.096  0.0862  0.0967  0.0576
 1253ERGO    R217431   2.435  13.295   7.235  0.2189  0.1238  0.1171
 1253ERGO    R317432   2.412  13.116   7.438  0.1488  0.0911  0.0790
 1253ERGO    R417433   2.340  13.373   7.558  0.2169  0.0830  0.1254
 1253ERGO    R517434   2.491  13.234   7.631  0.1666  0.0253  0.1088
 1253ERGO    C117435   2.264  13.251   7.937  0.1498  0.0284  0.0945
 1253ERGO    C217436   2.092  13.147   8.267 -0.0073  0.1169  0.0619
 1254ERGO   ROH17437  13.819   6.810  10.991 -0.0235  0.0554  0.0772
 1254ERGO    R117438  13.945   6.863  10.743 -0.1190  0.1370  0.0461
 1254ERGO    R217439  14.068   6.666  10.593  0.2274  0.2631  0.1595
 1254ERGO    R317440  13.903   6.757  10.397  0.0594 -0.1365  0.1046
 1254ERGO    R417441  14.115   6.614  10.254  0.2493  0.0444  0.1944
 1254ERGO    R517442  14.050   6.819  10.219 -0.0537 -0.0714  0.0303
 1254ERGO    C117443  13.988   6.669   9.874  0.1046 -0.4581  0.1631
 1254ERGO    C217444  14.030   6.695   9.535 -0.0775 -0.0241 -0.2369
 1255ERGO   ROH17445   9.123  13.881   6.803 -0.0413 -0.0296  0.0671
 1255ERGO    R117446   9.099  13.723   7.036 -0.0331 -0.0539  0.0505
 1255ERGO    R217447   9.318  13.633   7.179 -0.0346  0.1057  0.1477
 1255ERGO    R317448   9.191  13.753   7.387 -0.2201  0.0033  0.0966
 1255ERGO    R417449   9.399  13.590   7.512 -0.0011  0.3214  0.1699
 1255ERGO    R517450   9.187  13.586   7.559 -0.0075  0.0466  0.1503
 1255ERGO    C117451   9.327  13.677   7.901 -0.1557  0.3508  0.1349
 1255ERGO    C217452   9.242  13.892   8.108 -0.0958  0.3089 -0.1323
 1256ERGO   ROH17453   9.266  14.629   6.996 -0.0845  0.1380 -0.0869
 1256ERGO    R117454   9.227  14.624   7.277 -0.1862  0.0898 -0.1017
 1256ERGO    R217455   9.403  14.499   7.449 -0.3859 -0.1724 -0.0812
 1256ERGO    R317456   9.406  14.742   7.571 -0.1469 -0.2120 -0.0015
 1256ERGO    R417457   9.492  14.554   7.779 -0.0960 -0.3276 -0.1299
 1256ERGO    R517458   9.329  14.698   7.793  0.0004 -0.2354  0.0446
 1256ERGO    C117459   9.546  14.814   8.085  0.2971 -0.4549 -0.0833
 1256ERGO    C217460   9.673  15.008   8.442  0.0786 -0.1698  0.0600
 1257ERGO   ROH17461   7.691   8.445   6.874  0.0011 -0.1460 -0.1003
 1257ERGO    R117462   7.858   8.479   7.101  0.0077 -0.0250 -0.1228
 1257ERGO    R217463   7.774   8.611   7.329 -0.0145  0.0235 -0.1601
 1257ERGO    R317464   7.850   8.380   7.451  0.0620  0.0845 -0.0904
 1257ERGO    R417465   7.855   8.582   7.664 -0.3163  0.0864 -0.0783
 1257ERGO    R517466   8.018   8.449   7.608 -0.1461  0.2240  0.0772
 1257ERGO    C117467   7.974   8.349   7.973 -0.4201  0.1801  0.0349
 1257ERGO    C217468   7.896   8.333   8.310 -0.1451 -0.1529  0.2433
 1258ERGO   ROH17469   4.852   9.920   7.115  0.1705 -0.1234 -0.0348
 1258ERGO    R117470   4.706   9.976   7.350  0.0243 -0.1823 -0.1096
 1258ERGO    R217471   4.631   9.780   7.530  0.0467 -0.2088 -0.1250
 1258ERGO    R317472   4.758   9.941   7.709 -0.1268 -0.1195 -0.0813
 1258ERGO    R417473   4.580   9.775   7.872  0.0715 -0.3741 -0.1234
 1258ERGO    R517474   4.591   9.993   7.872 -0.1767 -0.3616 -0.0547
 1258ERGO    C117475   4.670   9.924   8.239 -0.0769 -0.3866 -0.0814
 1258ERGO    C217476   4.900   9.943   8.526  0.1954  0.0689 -0.3292
 1259ERGO   ROH17477  11.176   3.675   6.678 -0.0083  0.2974 -0.1086
 1259ERGO    R117478  11.235   3.796   6.926  0.1316  0.1383 -0.0613
 1259ERGO    R217479  11.039   3.866   7.108  0.2119  0.2502 -0.0107
 1259ERGO    R317480  11.187   3.715   7.278  0.0867  0.0330 -0.0923
 1259ERGO    R417481  11.094   3.941   7.440  0.5578  0.2050 -0.0548
 1259ERGO    R517482  11.301   3.875   7.416  0.4382 -0.1299 -0.1853
 1259ERGO    C117483  11.265   3.843   7.794  0.6418 -0.0252 -0.1571
 1259ERGO    C217484  11.172   4.008   8.114  0.1475  0.3362  0.1245
 1260ERGO   ROH17485  12.974  13.043   6.770 -0.0568  0.3195  0.0047
 1260ERGO    R117486  13.073  13.104   7.028 -0.0512  0.2040  0.0320
 1260ERGO    R217487  12.954  13.292   7.193 -0.0313  0.1549  0.1105
 1260ERGO    R317488  12.950  13.086   7.370 -0.0586  0.0808  0.0223
 1260ERGO    R417489  13.019  13.321   7.531  0.0406 -0.0115  0.1103
 1260ERGO    R517490  13.130  13.133   7.521 -0.0183 -0.0385  0.0092
 1260ERGO    C117491  13.054  13.144   7.894  0.0569 -0.1781  0.0273
 1260ERGO    C217492  13.029  13.196   8.293 -0.2223 -0.0062 -0.2096
 1261ERGO   ROH17493  14.042   1.286   6.480 -0.2362 -0.0509 -0.1708
 1261ERGO    R117494  13.863   1.270   6.699 -0.1870  0.2041 -0.1121
 1261ERGO    R217495  13.844   1.046   6.859 -0.3952  0.2674 -0.0671
 1261ERGO    R317496  13.889   1.225   7.059 -0.1342  0.2524 -0.1058
 1261ERGO    R417497  13.868   0.967   7.195 -0.5442  0.2850 -0.0497
 1261ERGO    R517498  13.755   1.148   7.241 -0.2819  0.4848 -0.0980
 1261ERGO    C117499  13.924   1.090   7.578 -0.3859  0.2811 -0.0758
 1261ERGO    C217500  13.904   1.032   7.923 -0.1686 -0.1497 -0.1715
 1262ERGO   ROH17501   0.403  14.268   6.499 -0.0078 -0.0514 -0.0151
 1262ERGO    R117502   0.266  14.275   6.747  0.0003 -0.0271 -0.0114
 1262ERGO    R217503   0.203  14.046   6.888  0.0408 -0.0106  0.0324
 1262ERGO    R317504   0.335  14.172   7.089  0.0281  0.0460  0.0055
 1262ERGO    R417505   0.145  13.994   7.225 -0.0556  0.1601  0.0435
 1262ERGO    R517506   0.167  14.209   7.257 -0.0033  0.1703 -0.0509
 1262ERGO    C117507   0.236  14.082   7.610 -0.1236  0.3128  0.0246
 1262ERGO    C217508   0.048  14.119   7.833 -0.3169  0.2542 -0.0320
 1263ERGO   ROH17509   3.632  16.069   6.974 -0.0825 -0.0305 -0.0750
 1263ERGO    R117510   3.710  16.210   7.207 -0.1173  0.0118 -0.0884
 1263ERGO    R217511   3.554  16.220   7.434 -0.1270  0.0078 -0.0931
 1263ERGO    R317512   3.780  16.129   7.555 -0.1129  0.0647 -0.0772
 1263ERGO    R417513   3.596  16.189   7.776 -0.1125  0.0952 -0.0870
 1263ERGO    R517514   3.800  16.263   7.752 -0.1232  0.1139 -0.1106
 1263ERGO    C117515   3.833  16.085   8.088 -0.0907  0.1994 -0.0686
 1263ERGO    C217516   3.757  16.009   8.419 -0.1602  0.0785  0.1293
 1264ERGO   ROH17517   4.564  14.244   6.822 -0.0409  0.1227  0.0230
 1264ERGO    R117518   4.498  14.369   7.067 -0.0592  0.1819 -0.0119
 1264ERGO    R217519   4.244  14.358   7.176 -0.0359  0.0982  0.0360
 1264ERGO    R317520   4.376  14.263   7.393  0.0489  0.2432  0.0488
 1264ERGO    R417521   4.138  14.395   7.503 -0.0667  0.0501  0.0316
 1264ERGO    R517522   4.345  14.432   7.560 -0.0981  0.2395  0.0259
 1264ERGO    C117523   4.201  14.328   7.897 -0.0049  0.1583  0.0412
 1264ERGO    C217524   3.922  14.157   8.047 -0.1620  0.0642  0.1588
 1265ERGO   ROH17525   7.707  11.617   6.876 -0.0771  0.4983  0.2192
 1265ERGO    R117526   7.793  11.474   7.105  0.0498  0.2543  0.0249
 1265ERGO    R217527   8.032  11.527   7.233  0.0490  0.2246  0.0387
 1265ERGO    R317528   7.873  11.553   7.451  0.0807 -0.1351  0.1117
 1265ERGO    R417529   8.133  11.472   7.559  0.2720  0.2740 -0.0200
 1265ERGO    R517530   7.941  11.376   7.597  0.4476 -0.0774  0.0204
 1265ERGO    C117531   8.041  11.465   7.954  0.4317 -0.0349  0.0145
 1265ERGO    C217532   8.215  11.463   8.277  0.2056 -0.2245  0.3209
 1266ERGO   ROH17533   2.979   2.045   7.014  0.0066  0.0524 -0.0937
 1266ERGO    R117534   2.869   2.098   7.269  0.0930  0.1387 -0.0724
 1266ERGO    R217535   2.778   1.897   7.437 -0.1835  0.2126 -0.1188
 1266ERGO    R317536   2.948   2.013   7.614 -0.0024 -0.0725 -0.1028
 1266ERGO    R417537   2.750   1.875   7.780 -0.3151  0.3589 -0.1196
 1266ERGO    R517538   2.807   2.085   7.794  0.0917  0.2518 -0.1590
 1266ERGO    C117539   2.894   1.970   8.147 -0.2217  0.1765 -0.1051
 1266ERGO    C217540   3.045   2.132   8.455  0.1043 -0.0657 -0.0122
 1267ERGO   ROH17541  15.280  13.005   7.084 -0.1274  0.1417 -0.1455
 1267ERGO    R117542  15.346  13.105   7.341  0.0050 -0.0682 -0.0959
 1267ERGO    R217543  15.196  13.298   7.469  0.3077  0.1391 -0.0441
 1267ERGO    R317544  15.190  13.115   7.669 -0.0296  0.0654 -0.1159
 1267ERGO    R417545  15.228  13.373   7.805  0.3201 -0.0393 -0.0046
 1267ERGO    R517546  15.352  13.194   7.827  0.0467 -0.2390 -0.0344
 1267ERGO    C117547  15.241  13.244   8.189  0.0105 -0.2122 -0.0490
 1267ERGO    C217548  15.311  13.381   8.410 -0.1118  0.0902  0.2908
 1268ERGO   ROH17549  14.962   4.293   7.030  0.2408  0.1197  0.1054
 1268ERGO    R117550  15.005   4.363   7.301  0.2639  0.1164  0.1031
 1268ERGO    R217551  14.808   4.340   7.493  0.1971  0.3561  0.0717
 1268ERGO    R317552  14.996   4.193   7.622  0.0186  0.1705  0.1259
 1268ERGO    R417553  14.817   4.285   7.834  0.0519  0.3332  0.0725
 1268ERGO    R517554  15.033   4.310   7.828  0.0744  0.1248  0.1377
 1268ERGO    C117555  14.999   4.115   8.154 -0.2001  0.1456  0.1238
 1268ERGO    C217556  14.883   4.019   8.440  0.5148  0.1009 -0.0604
 1269ERGO   ROH17557   0.537   7.432   6.985  0.2609  0.1233 -0.0952
 1269ERGO    R117558   0.634   7.555   7.221  0.0196  0.1569 -0.0105
 1269ERGO    R217559   0.468   7.681   7.403 -0.2073 -0.0974 -0.0344
 1269ERGO    R317560   0.587   7.512   7.579 -0.0844 -0.0223 -0.0443
 1269ERGO    R417561   0.505   7.742   7.741  0.0713  0.0680 -0.0915
 1269ERGO    R517562   0.705   7.656   7.730  0.0538  0.0407 -0.2093
 1269ERGO    C117563   0.638   7.619   8.104  0.3489  0.2348 -0.1340
 1269ERGO    C217564   0.647   7.525   8.392 -0.0650 -0.0254  0.0871
 1270ERGO   ROH17565  17.063  11.391   6.827 -0.0619  0.0931 -0.0963
 1270ERGO    R117566  17.134  11.431   7.098 -0.1667  0.0018 -0.0550
 1270ERGO    R217567  17.060  11.655   7.240 -0.0959  0.0216 -0.0523
 1270ERGO    R317568  16.958  11.473   7.414 -0.2913  0.0544 -0.1299
 1270ERGO    R417569  17.125  11.650   7.579  0.0463 -0.2889 -0.0815
 1270ERGO    R517570  17.138  11.432   7.568 -0.2780 -0.3080 -0.2303
 1270ERGO    C117571  17.068  11.475   7.940 -0.0543 -0.4387 -0.1714
 1270ERGO    C217572  17.039  11.538   8.274 -0.1232 -0.0407 -0.2785
 1271ERGO   ROH17573   3.885  10.213   6.985 -0.2066  0.1246 -0.1651
 1271ERGO    R117574   3.732  10.284   7.212 -0.2133 -0.1628 -0.0783
 1271ERGO    R217575   3.704  10.117   7.430  0.4060 -0.1396  0.0274
 1271ERGO    R317576   3.794  10.333   7.568 -0.0477  0.1781 -0.1479
 1271ERGO    R417577   3.649  10.173   7.767  0.5404 -0.1585  0.0541
 1271ERGO    R517578   3.617  10.384   7.721 -0.0734 -0.2406 -0.0156
 1271ERGO    C117579   3.703  10.410   8.092  0.1927  0.1286 -0.0949
 1271ERGO    C217580   3.768  10.344   8.456 -0.2179  0.1872  0.2684
 1272ERGO   ROH17581  14.747  15.586   6.507  0.0921 -0.1758 -0.0684
 1272ERGO    R117582  14.668  15.488   6.761  0.0564 -0.1343 -0.0628
 1272ERGO    R217583  14.845  15.464   6.973  0.0176 -0.0293 -0.0175
 1272ERGO    R317584  14.659  15.615   7.102 -0.0624 -0.0436 -0.0961
 1272ERGO    R417585  14.724  15.401   7.291 -0.0175  0.0231 -0.0206
 1272ERGO    R517586  14.526  15.457   7.222 -0.0345 -0.0602 -0.0762
 1272ERGO    C117587  14.480  15.507   7.597 -0.1132  0.0402 -0.0960
 1272ERGO    C217588  14.433  15.506   8.015 -0.0221  0.1754  0.0620
 1273ERGO   ROH17589  13.330   9.887   7.306 -0.1126  0.0473  0.0471
 1273ERGO    R117590  13.198   9.806   7.543 -0.0812 -0.0883  0.0191
 1273ERGO    R217591  13.317   9.644   7.732 -0.0075 -0.0848 -0.0243
 1273ERGO    R317592  13.249   9.845   7.902 -0.1140 -0.1686  0.0331
 1273ERGO    R417593  13.298   9.614   8.076  0.0293 -0.1901 -0.0313
 1273ERGO    R517594  13.118   9.738   8.071 -0.0434 -0.2909  0.0119
 1273ERGO    C117595  13.222   9.785   8.435 -0.0493 -0.3300  0.0185
 1273ERGO    C217596  13.330   9.595   8.791  0.0293 -0.0380 -0.0973
 1274ERGO   ROH17597   8.450   4.913   6.790  0.2854  0.0828 -0.2477
 1274ERGO    R117598   8.517   5.046   7.031 -0.1075  0.1258 -0.1545
 1274ERGO    R217599   8.330   5.106   7.226 -0.3240 -0.4380 -0.1672
 1274ERGO    R317600   8.503   4.972   7.387 -0.0289 -0.1108 -0.1998
 1274ERGO    R417601   8.348   5.140   7.569 -0.2099 -0.3020 -0.1856
 1274ERGO    R517602   8.565   5.131   7.554 -0.2012  0.0412 -0.2820
 1274ERGO    C117603   8.521   5.035   7.920  0.1337  0.0844 -0.2270
 1274ERGO    C217604   8.424   5.122   8.194 -0.1685 -0.0001 -0.0691
 1275ERGO   ROH17605   8.924  16.005   6.934 -0.2269 -0.0716  0.0010
 1275ERGO    R117606   9.089  16.066   7.156 -0.1043 -0.2272 -0.0449
 1275ERGO    R217607   9.050  16.290   7.313  0.1657 -0.1759 -0.0448
 1275ERGO    R317608   9.044  16.108   7.515  0.0313 -0.1609 -0.0348
 1275ERGO    R417609   9.162  16.347   7.635  0.1266 -0.2129 -0.0246
 1275ERGO    R517610   9.246  16.146   7.636  0.0254 -0.2556  0.0054
 1275ERGO    C117611   9.222  16.208   8.011 -0.0223 -0.2205 -0.0035
 1275ERGO    C217612   9.251  16.375   8.288 -0.0903  0.0120 -0.3734
 1276ERGO   ROH17613   7.932  16.013   7.118 -0.1394 -0.3331  0.0239
 1276ERGO    R117614   7.958  16.167   7.354 -0.1636 -0.2726 -0.0129
 1276ERGO    R217615   7.925  16.059   7.606 -0.0422 -0.2409  0.0155
 1276ERGO    R317616   8.171  16.165   7.649 -0.0886 -0.0981 -0.0643
 1276ERGO    R417617   8.050  16.150   7.915 -0.0790  0.0324 -0.0474
 1276ERGO    R517618   8.137  16.327   7.822 -0.1606  0.0099 -0.1751
 1276ERGO    C117619   8.354  16.303   8.135 -0.1438  0.3255 -0.1591
 1276ERGO    C217620   8.422  16.343   8.488  0.1446 -0.2713 -0.1965
 1277ERGO   ROH17621   1.906  14.204   6.882  0.1083 -0.1172  0.1560
 1277ERGO    R117622   1.813  14.344   7.110  0.1841 -0.0620  0.1531
 1277ERGO    R217623   1.548  14.344   7.187  0.1671  0.1616  0.0982
 1277ERGO    R317624   1.650  14.259   7.424  0.0444  0.0436  0.1105
 1277ERGO    R417625   1.410  14.410   7.497  0.1585  0.2516  0.0755
 1277ERGO    R517626   1.611  14.441   7.574  0.1736  0.0652  0.1211
 1277ERGO    C117627   1.425  14.369   7.900  0.0383  0.1932  0.0737
 1277ERGO    C217628   1.328  14.318   8.309  0.1776  0.0600  0.2142
 1278ERGO   ROH17629   6.603  13.900   6.874  0.0663 -0.1560  0.0155
 1278ERGO    R117630   6.605  13.984   7.145 -0.1744 -0.0825 -0.0041
 1278ERGO    R217631   6.414  13.903   7.327  0.0009 -0.5220 -0.0128
 1278ERGO    R317632   6.632  13.825   7.471  0.1908  0.0534  0.0394
 1278ERGO    R417633   6.417  13.851   7.669  0.0411 -0.5256 -0.0130
 1278ERGO    R517634   6.613  13.945   7.677 -0.1958  0.0126  0.0413
 1278ERGO    C117635   6.622  13.747   8.003  0.2429  0.0125  0.0357
 1278ERGO    C217636   6.641  13.716   8.389  0.0474  0.0882  0.0191
 1279ERGO   ROH17637  14.574   3.253   6.895  0.0029  0.1834 -0.0477
 1279ERGO    R117638  14.683   3.125   7.122  0.1483  0.2519 -0.0777
 1279ERGO    R217639  14.820   3.263   7.319 -0.0818  0.3786 -0.0007
 1279ERGO    R317640  14.639   3.145   7.483  0.0545  0.0527 -0.0779
 1279ERGO    R417641  14.858   3.223   7.660 -0.0776  0.2715 -0.0134
 1279ERGO    R517642  14.771   3.025   7.642  0.1962  0.1588 -0.1160
 1279ERGO    C117643  14.710   3.089   8.013  0.0528 -0.0968 -0.0931
 1279ERGO    C217644  14.763   3.050   8.374 -0.0337 -0.0868  0.2557
 1280ERGO   ROH17645   9.416   4.621   6.824 -0.3787  0.1885 -0.0334
 1280ERGO    R117646   9.305   4.555   7.076 -0.0057 -0.1714  0.0480
 1280ERGO    R217647   9.444   4.409   7.266  0.5893  0.2153 -0.0566
 1280ERGO    R317648   9.385   4.621   7.425  0.0601  0.0468 -0.0076
 1280ERGO    R417649   9.431   4.401   7.611  0.3906  0.0656 -0.0660
 1280ERGO    R517650   9.255   4.529   7.603  0.1313 -0.2819 -0.1214
 1280ERGO    C117651   9.369   4.595   7.961 -0.2218 -0.1798 -0.0254
 1280ERGO    C217652   9.460   4.564   8.328 -0.0910  0.2350  0.0945
 1281ERGO   ROH17653   4.051  12.888   6.698  0.1990  0.0881 -0.0058
 1281ERGO    R117654   3.878  12.725   6.852  0.0921  0.1682 -0.0401
 1281ERGO    R217655   3.962  12.491   6.974 -0.0962  0.0033 -0.2184
 1281ERGO    R317656   3.861  12.609   7.197  0.1115 -0.0284 -0.1040
 1281ERGO    R417657   3.959  12.349   7.289 -0.0186 -0.1411 -0.2815
 1281ERGO    R517658   3.759  12.430   7.318  0.0533 -0.0133 -0.1309
 1281ERGO    C117659   3.861  12.377   7.681  0.2217 -0.2550 -0.2108
 1281ERGO    C217660   3.856  12.448   7.957 -0.1259 -0.1008  0.0944
 1282ERGO   ROH17661   5.713   6.551   7.049 -0.0075  0.0567  0.1016
 1282ERGO    R117662   5.559   6.550   7.287 -0.1058  0.0108  0.0381
 1282ERGO    R217663   5.425   6.326   7.376  0.0169 -0.0607  0.0393
 1282ERGO    R317664   5.565   6.372   7.604 -0.1116  0.0982  0.0883
 1282ERGO    R417665   5.373   6.161   7.675  0.1418 -0.1736  0.0001
 1282ERGO    R517666   5.402   6.351   7.779 -0.1430 -0.1433  0.0360
 1282ERGO    C117667   5.475   6.109   8.064  0.0940 -0.0902  0.0231
 1282ERGO    C217668   5.528   5.903   8.427 -0.1971 -0.1549 -0.0995
 1283ERGO   ROH17669   1.954  10.116   6.800  0.0926  0.0894 -0.1100
 1283ERGO    R117670   2.009  10.047   7.069 -0.0343 -0.0209 -0.1112
 1283ERGO    R217671   2.186  10.189   7.227  0.1464 -0.2804 -0.0708
 1283ERGO    R317672   1.973  10.204   7.395  0.1415 -0.0092 -0.0971
 1283ERGO    R417673   2.201  10.292   7.556  0.2255 -0.2555 -0.0821
 1283ERGO    R517674   2.060  10.135   7.607  0.0340 -0.0841 -0.0783
 1283ERGO    C117675   2.010  10.366   7.907  0.2669  0.0136 -0.1134
 1283ERGO    C217676   1.932  10.489   8.231  0.0067 -0.0497 -0.0680
 1284ERGO   ROH17677  12.162   9.907   6.918 -0.1359  0.1668  0.1134
 1284ERGO    R117678  12.150   9.813   7.185 -0.0048  0.1143  0.1014
 1284ERGO    R217679  12.366   9.827   7.357  0.0026  0.3219  0.0778
 1284ERGO    R317680  12.189   9.956   7.517 -0.1210  0.1093  0.1176
 1284ERGO    R417681  12.329   9.770   7.696  0.1286  0.2566  0.0814
 1284ERGO    R517682  12.113   9.788   7.670  0.0999  0.0093  0.1215
 1284ERGO    C117683  12.141   9.859   8.044  0.0861  0.0189  0.1208
 1284ERGO    C217684  12.248   9.895   8.353  0.3037 -0.1459  0.3192
 1285ERGO   ROH17685   7.082   9.065   6.916  0.0316 -0.1504 -0.0455
 1285ERGO    R117686   6.978   9.087   7.179  0.0667  0.0779 -0.0473
 1285ERGO    R217687   6.928   8.866   7.338 -0.1111  0.1990  0.0778
 1285ERGO    R317688   7.087   8.998   7.514  0.0177  0.1615 -0.0105
 1285ERGO    R417689   6.949   8.798   7.676 -0.0501  0.3044  0.0947
 1285ERGO    R517690   6.957   9.012   7.714  0.0889  0.3074  0.0221
 1285ERGO    C117691   7.110   8.883   8.038  0.1063  0.3306  0.0218
 1285ERGO    C217692   7.135   8.811   8.365 -0.0588 -0.0224 -0.2854
 1286ERGO   ROH17693  16.030  15.580   6.881 -0.0393 -0.0789 -0.0030
 1286ERGO    R117694  15.897  15.562   7.131  0.0654 -0.0936  0.0529
 1286ERGO    R217695  16.012  15.443   7.353  0.2357  0.0643  0.0524
 1286ERGO    R317696  15.953  15.682   7.469  0.1040  0.0621 -0.0078
 1286ERGO    R417697  15.961  15.491   7.691  0.0494  0.0919  0.0210
 1286ERGO    R517698  15.798  15.627   7.643  0.0318  0.0368 -0.0796
 1286ERGO    C117699  15.876  15.743   7.998 -0.1830  0.1059 -0.0540
 1286ERGO    C217700  15.934  15.775   8.306  0.2070  0.1410  0.0395
 1287ERGO   ROH17701   9.375   5.581   6.663  0.0231 -0.0652 -0.0202
 1287ERGO    R117702   9.477   5.534   6.923 -0.0944 -0.1998  0.0010
 1287ERGO    R217703   9.516   5.736   7.106  0.1349 -0.2508  0.0024
 1287ERGO    R317704   9.360   5.579   7.265 -0.1072 -0.0451 -0.0216
 1287ERGO    R417705   9.486   5.771   7.449 -0.0374 -0.0738 -0.0271
 1287ERGO    R517706   9.489   5.553   7.466 -0.2453 -0.0767  0.0686
 1287ERGO    C117707   9.323   5.643   7.797 -0.3650  0.2224 -0.0669
 1287ERGO    C217708   9.401   5.670   8.145  0.3454  0.0406  0.1617
 1288ERGO   ROH17709   4.274   2.874   6.884 -0.1484 -0.0628 -0.2175
 1288ERGO    R117710   4.163   2.714   7.089  0.0170 -0.1698 -0.2092
 1288ERGO    R217711   4.318   2.561   7.259  0.1715 -0.0720 -0.2585
 1288ERGO    R317712   4.183   2.697   7.452  0.1097 -0.1924 -0.2155
 1288ERGO    R417713   4.331   2.490   7.597  0.1714 -0.1933 -0.2835
 1288ERGO    R517714   4.117   2.529   7.608  0.1579 -0.2738 -0.2831
 1288ERGO    C117715   4.212   2.577   7.975  0.1134 -0.3770 -0.2577
 1288ERGO    C217716   4.435   2.469   8.192 -0.0911 -0.0242  0.0386
 1289ERGO   ROH17717  15.152   4.937   7.105 -0.2252 -0.0375  0.0527
 1289ERGO    R117718  15.084   4.943   7.380 -0.1903  0.0084  0.0608
 1289ERGO    R217719  14.861   4.815   7.481 -0.1324 -0.0476  0.1247
 1289ERGO    R317720  15.042   4.699   7.647 -0.0660  0.0605  0.1276
 1289ERGO    R417721  14.812   4.757   7.818 -0.0851 -0.0489  0.1312
 1289ERGO    R517722  15.018   4.818   7.853 -0.1180  0.0610  0.1188
 1289ERGO    C117723  14.954   4.615   8.170  0.0047  0.0517  0.1377
 1289ERGO    C217724  14.847   4.547   8.492  0.1923 -0.1215 -0.0933
 1290ERGO   ROH17725   5.894  14.475   6.906  0.1380  0.3288  0.0452
 1290ERGO    R117726   5.914  14.636   7.138  0.2539  0.1746  0.1419
 1290ERGO    R217727   5.725  14.632   7.340  0.1792  0.2904  0.0697
 1290ERGO    R317728   5.940  14.579   7.497  0.0636 -0.0576  0.1221
 1290ERGO    R417729   5.736  14.675   7.683  0.1543  0.2419  0.0778
 1290ERGO    R517730   5.938  14.752   7.662  0.2853 -0.0638  0.1374
 1290ERGO    C117731   5.945  14.650   8.029  0.0314 -0.1131  0.1317
 1290ERGO    C217732   6.156  14.801   8.294 -0.1594 -0.0172 -0.0349
 1291ERGO   ROH17733   8.601   1.600   6.566 -0.2391  0.0065 -0.0336
 1291ERGO    R117734   8.745   1.564   6.807 -0.0813  0.1462 -0.1039
 1291ERGO    R217735   8.780   1.766   6.991 -0.1427  0.1978 -0.1438
 1291ERGO    R317736   8.674   1.585   7.163  0.0879  0.1302 -0.0693
 1291ERGO    R417737   8.835   1.762   7.332 -0.0324  0.3194 -0.1596
 1291ERGO    R517738   8.848   1.545   7.322  0.1753  0.3314 -0.1152
 1291ERGO    C117739   8.767   1.590   7.692  0.2483  0.3267 -0.0989
 1291ERGO    C217740   8.873   1.641   8.000 -0.3160 -0.1999 -0.1538
 1292ERGO   ROH17741   5.511   1.510   6.950  0.1359 -0.1023  0.0705
 1292ERGO    R117742   5.599   1.573   7.212  0.1395 -0.1527  0.0815
 1292ERGO    R217743   5.425   1.651   7.413  0.1667  0.0109  0.0414
 1292ERGO    R317744   5.541   1.445   7.548 -0.0309 -0.0746  0.0835
 1292ERGO    R417745   5.468   1.639   7.756  0.2488  0.0958  0.0339
 1292ERGO    R517746   5.665   1.552   7.723  0.1432 -0.1463  0.0081
 1292ERGO    C117747   5.602   1.440   8.082  0.1109  0.0650  0.0691
 1292ERGO    C217748   5.647   1.447   8.361  0.0788 -0.0444  0.1961
 1293ERGO   ROH17749   3.864   3.567   6.954  0.3089  0.1579 -0.1003
 1293ERGO    R117750   4.016   3.623   7.187  0.1856 -0.0092  0.0238
 1293ERGO    R217751   3.914   3.766   7.400  0.1172 -0.0290  0.0062
 1293ERGO    R317752   3.993   3.548   7.542 -0.0972 -0.1284 -0.0164
 1293ERGO    R417753   3.896   3.737   7.744 -0.0675 -0.1221 -0.0094
 1293ERGO    R517754   4.091   3.639   7.741 -0.1297 -0.2535  0.0577
 1293ERGO    C117755   3.960   3.515   8.077 -0.3763 -0.2697 -0.0397
 1293ERGO    C217756   3.988   3.362   8.407 -0.0738 -0.0106 -0.3329
 1294ERGO   ROH17757   6.462   0.333   7.036 -0.0013 -0.1192  0.0504
 1294ERGO    R117758   6.378   0.319   7.306  0.0509 -0.2173  0.0620
 1294ERGO    R217759   6.459   0.117   7.476  0.2342 -0.1767  0.0256
 1294ERGO    R317760   6.538   0.325   7.633  0.0976 -0.1335  0.0376
 1294ERGO    R417761   6.462   0.113   7.822  0.1113 -0.1457  0.0273
 1294ERGO    R517762   6.387   0.318   7.820  0.0332 -0.1751 -0.0161
 1294ERGO    C117763   6.537   0.307   8.170 -0.0886 -0.0870  0.0396
 1294ERGO    C217764   6.476   0.145   8.553 -0.0309  0.0042  0.0167
 1295ERGO   ROH17765   6.946   4.136   6.879 -0.0284 -0.0035 -0.1355
 1295ERGO    R117766   7.082   4.254   7.097  0.0666 -0.0425 -0.1726
 1295ERGO    R217767   6.952   4.408   7.286  0.1703  0.0277 -0.1583
 1295ERGO    R317768   7.066   4.233   7.460  0.1323 -0.0062 -0.1674
 1295ERGO    R417769   6.997   4.466   7.624  0.1928  0.0066 -0.1577
 1295ERGO    R517770   7.193   4.371   7.609  0.1700 -0.0411 -0.1663
 1295ERGO    C117771   7.131   4.335   7.984  0.1702 -0.0375 -0.1661
 1295ERGO    C217772   7.086   4.219   8.379  0.0603  0.1756 -0.0974
 1296ERGO   ROH17773   5.750  13.339   7.033  0.1441  0.2203  0.0437
 1296ERGO    R117774   5.567  13.339   7.249  0.1412  0.3090  0.0405
 1296ERGO    R217775   5.568  13.144   7.445  0.0040  0.2747  0.0024
 1296ERGO    R317776   5.586  13.358   7.612  0.1475  0.2313  0.0456
 1296ERGO    R417777   5.557  13.127   7.790 -0.1117  0.2155 -0.0027
 1296ERGO    R517778   5.435  13.307   7.790  0.0460  0.3299 -0.0072
 1296ERGO    C117779   5.568  13.318   8.147 -0.0444  0.1404  0.0347
 1296ERGO    C217780   5.652  13.388   8.445  0.1516 -0.3397  0.0625
 1297ERGO   ROH17781  10.843   5.485   6.587  0.0830  0.0612  0.1034
 1297ERGO    R117782  10.733   5.362   6.817 -0.0519  0.0868  0.0551
 1297ERGO    R217783  10.880   5.193   6.980 -0.2107 -0.0845  0.0341
 1297ERGO    R317784  10.800   5.365   7.175 -0.0954 -0.0645  0.0630
 1297ERGO    R417785  10.909   5.136   7.320  0.0073 -0.0236  0.0262
 1297ERGO    R517786  10.713   5.224   7.347  0.0259 -0.0361  0.1410
 1297ERGO    C117787  10.851   5.264   7.700  0.2427  0.0307  0.0488
 1297ERGO    C217788  10.727   5.303   8.042  0.0651  0.0876 -0.0224
 1298ERGO   ROH17789   8.338  12.362   7.113 -0.1417 -0.1873  0.1062
 1298ERGO    R117790   8.427  12.473   7.358 -0.0206 -0.2211  0.0785
 1298ERGO    R217791   8.254  12.587   7.542  0.0988 -0.0001  0.0594
 1298ERGO    R317792   8.371  12.410   7.712 -0.0765 -0.0837  0.0944
 1298ERGO    R417793   8.266  12.621   7.886  0.3226  0.1734  0.0363
 1298ERGO    R517794   8.470  12.547   7.881  0.2145 -0.1345 -0.0298
 1298ERGO    C117795   8.382  12.476   8.245  0.2884  0.1959  0.0555
 1298ERGO    C217796   8.456  12.301   8.602  0.1778 -0.1234 -0.0215
 1299ERGO   ROH17797  12.101  12.810   6.921 -0.1296 -0.1935  0.0559
 1299ERGO    R117798  12.005  12.726   7.174 -0.1074  0.0358  0.1435
 1299ERGO    R217799  12.169  12.616   7.367 -0.1439 -0.0995  0.1008
 1299ERGO    R317800  12.064  12.813   7.522  0.1930  0.1059  0.0769
 1299ERGO    R417801  12.156  12.610   7.713 -0.2468 -0.0854  0.0968
 1299ERGO    R517802  11.956  12.697   7.701 -0.0832  0.3045  0.0455
 1299ERGO    C117803  12.050  12.792   8.059  0.0096  0.1156  0.0721
 1299ERGO    C217804  12.105  12.782   8.272  0.0699 -0.0016  0.1516
 1300ERGO   ROH17805   3.990  12.027   6.821  0.0274 -0.1742 -0.0211
 1300ERGO    R117806   3.893  11.975   7.082 -0.0270 -0.1451 -0.0357
 1300ERGO    R217807   3.937  11.736   7.213  0.1779 -0.0319  0.1051
 1300ERGO    R317808   4.036  11.898   7.407 -0.0780  0.1768  0.0678
 1300ERGO    R417809   3.832  11.737   7.542  0.1847 -0.1377  0.1084
 1300ERGO    R517810   3.846  11.954   7.541 -0.1727 -0.1076  0.0622
 1300ERGO    C117811   3.864  11.890   7.916 -0.0516 -0.0034  0.0753
 1300ERGO    C217812   3.893  12.002   8.139  0.2599  0.1135  0.2949
 1301ERGO   ROH17813  14.685   7.082   7.024 -0.0373 -0.0316 -0.0237
 1301ERGO    R117814  14.594   7.163   7.279  0.1753  0.3269 -0.0544
 1301ERGO    R217815  14.500   6.984   7.469 -0.4609  0.6493 -0.0297
 1301ERGO    R317816  14.689   7.102   7.625 -0.0759  0.0727 -0.0285
 1301ERGO    R417817  14.476   7.027   7.811 -0.1709  0.4695  0.0166
 1301ERGO    R517818  14.564   7.224   7.788  0.3125  0.2749  0.1235
 1301ERGO    C117819  14.639   7.164   8.156  0.3594 -0.1765  0.0446
 1301ERGO    C217820  14.669   7.153   8.490  0.1998  0.1820  0.0410
 1302ERGO   ROH17821   0.514   4.651   7.227 -0.1899  0.2063  0.0523
 1302ERGO    R117822   0.540   4.588   7.501 -0.0396  0.0872  0.0127
 1302ERGO    R217823   0.517   4.778   7.700 -0.0844 -0.0232  0.1168
 1302ERGO    R317824   0.330   4.607   7.798  0.0641 -0.1937  0.1071
 1302ERGO    R417825   0.419   4.762   8.031 -0.2613  0.0587  0.0692
 1302ERGO    R517826   0.414   4.544   8.014  0.0146  0.0389  0.1962
 1302ERGO    C117827   0.186   4.592   8.316 -0.2250 -0.0537  0.0323
 1302ERGO    C217828   0.022   4.683   8.680  0.0815  0.0966  0.2793
 1303ERGO   ROH17829   3.062  17.050   6.882 -0.0999 -0.0074  0.1142
 1303ERGO    R117830   2.987  17.103   7.150 -0.0684  0.0045  0.1210
 1303ERGO    R217831   2.967  16.904   7.341 -0.1696 -0.0058  0.1020
 1303ERGO    R317832   3.138  17.064   7.479 -0.0826 -0.1085  0.1141
 1303ERGO    R417833   2.995  16.913   7.685 -0.3196  0.1101  0.1122
 1303ERGO    R517834   3.015  17.129   7.673 -0.1114  0.0878  0.0307
 1303ERGO    C117835   3.172  17.068   8.015 -0.3252  0.0811  0.1293
 1303ERGO    C217836   3.316  16.995   8.264 -0.1528 -0.0943  0.1101
 1304ERGO   ROH17837   4.627   4.367   7.073  0.2233  0.1342  0.0316
 1304ERGO    R117838   4.690   4.261   7.327  0.2147  0.1048  0.0222
 1304ERGO    R217839   4.855   4.392   7.506  0.2658  0.0535  0.0178
 1304ERGO    R317840   4.643   4.360   7.674  0.2677  0.1031  0.0291
 1304ERGO    R417841   4.879   4.356   7.849  0.2913 -0.2215 -0.0109
 1304ERGO    R517842   4.722   4.205   7.839  0.1661 -0.0844 -0.0978
 1304ERGO    C117843   4.694   4.305   8.206  0.3079 -0.3352 -0.0171
 1304ERGO    C217844   4.653   4.329   8.554 -0.0305 -0.1063 -0.1089
 1305ERGO   ROH17845   6.249  11.363   6.745 -0.0837 -0.0701 -0.0251
 1305ERGO    R117846   6.225  11.346   7.026 -0.0983 -0.0364 -0.0260
 1305ERGO    R217847   6.432  11.265   7.189 -0.1461 -0.1210 -0.0209
 1305ERGO    R317848   6.382  11.500   7.316 -0.0341 -0.0903 -0.0288
 1305ERGO    R417849   6.490  11.323   7.525 -0.0370 -0.1251 -0.0373
 1305ERGO    R517850   6.301  11.434   7.532 -0.0052 -0.0551  0.0002
 1305ERGO    C117851   6.476  11.578   7.839  0.1316 -0.0986 -0.0542
 1305ERGO    C217852   6.426  11.625   8.145 -0.1799  0.0430 -0.2569
 1306ERGO   ROH17853  10.527  16.094   6.845 -0.1472  0.1359 -0.0563
 1306ERGO    R117854  10.617  16.204   7.090 -0.0508 -0.0278 -0.0159
 1306ERGO    R217855  10.544  16.457   7.175  0.1513  0.0008  0.0847
 1306ERGO    R317856  10.464  16.324   7.398  0.0528 -0.0239  0.0339
 1306ERGO    R417857  10.599  16.564   7.499  0.1629 -0.1273  0.1247
 1306ERGO    R517858  10.642  16.357   7.555  0.0474 -0.1647  0.0682
 1306ERGO    C117859  10.555  16.501   7.897  0.0774 -0.2254  0.1003
 1306ERGO    C217860  10.521  16.451   8.228  0.1387  0.0579  0.0742
 1307ERGO   ROH17861   4.551  15.873   6.970 -0.1526  0.0442  0.0938
 1307ERGO    R117862   4.550  15.741   7.220  0.0061  0.0036  0.0745
 1307ERGO    R217863   4.776  15.719   7.377  0.0757  0.1005 -0.0053
 1307ERGO    R317864   4.615  15.830   7.566  0.0792 -0.0139  0.0645
 1307ERGO    R417865   4.807  15.667   7.717  0.1270 -0.0391 -0.0312
 1307ERGO    R517866   4.589  15.657   7.731  0.1336 -0.0875 -0.0066
 1307ERGO    C117867   4.674  15.741   8.093  0.1602 -0.2278  0.0192
 1307ERGO    C217868   4.629  15.698   8.420  0.0441  0.1843  0.1410
 1308ERGO   ROH17869  10.822  10.203   6.916 -0.1128 -0.1634 -0.0232
 1308ERGO    R117870  10.883  10.301   7.174  0.0272 -0.1620 -0.0566
 1308ERGO    R217871  10.701  10.299   7.382  0.0867 -0.0101 -0.0031
 1308ERGO    R317872  10.898  10.165   7.511  0.0386 -0.1181 -0.0391
 1308ERGO    R417873  10.756  10.311   7.722  0.2290  0.0569 -0.0276
 1308ERGO    R517874  10.970  10.316   7.682  0.2198 -0.1161 -0.1143
 1308ERGO    C117875  10.974  10.192   8.043  0.2667 -0.0054 -0.0755
 1308ERGO    C217876  10.849  10.250   8.334  0.0378 -0.0106  0.5588
 1309ERGO   ROH17877  10.015  15.375   6.728 -0.1008  0.0285  0.1123
 1309ERGO    R117878   9.850  15.402   6.956 -0.0341 -0.0667  0.1733
 1309ERGO    R217879   9.907  15.280   7.197  0.1256 -0.0346  0.1556
 1309ERGO    R317880   9.885  15.533   7.294  0.0162 -0.0455  0.1591
 1309ERGO    R417881   9.870  15.361   7.531 -0.0309 -0.0552  0.1435
 1309ERGO    R517882   9.727  15.514   7.472 -0.0487 -0.0943  0.0942
 1309ERGO    C117883   9.828  15.645   7.816 -0.2247 -0.0773  0.1399
 1309ERGO    C217884  10.046  15.749   8.083  0.1951  0.3042  0.0136
 1310ERGO   ROH17885   2.964  11.668   6.666 -0.1878  0.1593  0.0262
 1310ERGO    R117886   3.033  11.675   6.940 -0.0977  0.0927  0.0063
 1310ERGO    R217887   3.001  11.901   7.096 -0.0385  0.0602  0.0719
 1310ERGO    R317888   2.860  11.732   7.255  0.0058  0.0271  0.0749
 1310ERGO    R417889   2.963  11.936   7.438 -0.0946  0.0838  0.0627
 1310ERGO    R517890   2.987  11.721   7.458 -0.0172  0.0974  0.0910
 1310ERGO    C117891   2.809  11.798   7.786 -0.0858  0.0666  0.0602
 1310ERGO    C217892   2.969  11.949   8.038 -0.0947 -0.1109 -0.2024
 1311ERGO   ROH17893   7.694   1.997   7.093 -0.0436  0.1569  0.0617
 1311ERGO    R117894   7.547   2.046   7.330 -0.0998  0.0430  0.0510
 1311ERGO    R217895   7.480   1.845   7.507 -0.0662 -0.0300 -0.0163
 1311ERGO    R317896   7.602   2.007   7.688 -0.1474 -0.0409  0.0491
 1311ERGO    R417897   7.519   1.773   7.843 -0.0054 -0.1540 -0.0496
 1311ERGO    R517898   7.474   1.981   7.888 -0.1199 -0.2007  0.0454
 1311ERGO    C117899   7.657   1.883   8.208 -0.0463 -0.2365 -0.0077
 1311ERGO    C217900   7.613   1.791   8.627  0.1848 -0.0038  0.1380
 1312ERGO   ROH17901   8.062   0.135   7.198  0.1190  0.0751 -0.2157
 1312ERGO    R117902   8.219   0.085   7.428  0.1130  0.0688 -0.2125
 1312ERGO    R217903   8.354   0.286   7.563 -0.0977  0.1089 -0.0527
 1312ERGO    R317904   8.216   0.190   7.777 -0.0622 -0.1544 -0.1441
 1312ERGO    R417905   8.430   0.350   7.894 -0.1552 -0.1419  0.0112
 1312ERGO    R517906   8.383   0.144   7.941 -0.0484 -0.2101 -0.1740
 1312ERGO    C117907   8.344   0.298   8.287 -0.1552 -0.5350 -0.0376
 1312ERGO    C217908   8.295   0.214   8.681 -0.1117 -0.0078  0.2848
 1313ERGO   ROH17909  11.956   7.792   7.033  0.0594 -0.2724 -0.0216
 1313ERGO    R117910  11.967   7.683   7.294 -0.0066 -0.2407 -0.0065
 1313ERGO    R217911  12.124   7.792   7.493  0.0828 -0.3270 -0.0352
 1313ERGO    R317912  11.890   7.797   7.631  0.0952 -0.1341 -0.0172
 1313ERGO    R417913  12.096   7.754   7.836  0.0984 -0.1346 -0.0107
 1313ERGO    R517914  11.918   7.632   7.802  0.0286 -0.0636  0.0675
 1313ERGO    C117915  11.859   7.737   8.164  0.1192  0.1586  0.0205
 1313ERGO    C217916  11.875   7.911   8.521 -0.4964 -0.1518  0.1707
 1314ERGO   ROH17917  15.788   3.038   6.960 -0.4537 -0.2441  0.1584
 1314ERGO    R117918  15.861   2.972   7.226 -0.3769 -0.0778  0.1785
 1314ERGO    R217919  15.989   3.151   7.394 -0.1936 -0.0234 -0.0235
 1314ERGO    R317920  15.781   3.093   7.559 -0.1535  0.2354  0.1247
 1314ERGO    R417921  16.014   3.107   7.735  0.0115 -0.0898 -0.0453
 1314ERGO    R517922  15.873   2.942   7.720 -0.2259  0.0919  0.0395
 1314ERGO    C117923  15.835   3.027   8.090  0.1685  0.1144  0.0810
 1314ERGO    C217924  15.637   2.933   8.481 -0.2477 -0.1522  0.1323
 1315ERGO   ROH17925   4.464   1.445   6.937 -0.1461  0.1343 -0.1018
 1315ERGO    R117926   4.326   1.560   7.156 -0.3287 -0.0262 -0.1298
 1315ERGO    R217927   4.169   1.411   7.328  0.0829 -0.2786  0.0428
 1315ERGO    R317928   4.327   1.524   7.518 -0.0900  0.2323 -0.1021
 1315ERGO    R417929   4.091   1.431   7.664  0.2411 -0.3602  0.0852
 1315ERGO    R517930   4.174   1.632   7.666 -0.2982 -0.1204 -0.0510
 1315ERGO    C117931   4.193   1.548   8.038  0.1710  0.0719 -0.0262
 1315ERGO    C217932   4.284   1.525   8.336 -0.2013  0.1877  0.0896
 1316ERGO   ROH17933  14.802  10.321   6.962 -0.0217 -0.1670  0.1239
 1316ERGO    R117934  14.869  10.217   7.217  0.2147 -0.1414  0.0747
 1316ERGO    R217935  15.130  10.182   7.300  0.2987  0.2929  0.0096
 1316ERGO    R317936  15.048  10.333   7.511  0.0705  0.0775  0.0795
 1316ERGO    R417937  15.267  10.169   7.617  0.2927  0.3206  0.0134
 1316ERGO    R517938  15.066  10.186   7.699  0.2568  0.0025  0.0069
 1316ERGO    C117939  15.271  10.302   7.999  0.0750  0.1346  0.0811
 1316ERGO    C217940  15.496  10.480   8.157 -0.2276  0.0808 -0.0632
 1317ERGO   ROH17941   4.088  14.851  10.634  0.0833  0.0659 -0.0380
 1317ERGO    R117942   4.154  14.976  10.389  0.0110  0.0918 -0.0441
 1317ERGO    R217943   4.267  14.838  10.178  0.0096  0.1289 -0.0665
 1317ERGO    R317944   4.056  14.941  10.040 -0.0382  0.0819 -0.0302
 1317ERGO    R417945   4.232  14.827   9.834  0.0080  0.2120 -0.0694
 1317ERGO    R517946   4.155  15.031   9.841 -0.0778  0.1809 -0.0079
 1317ERGO    C117947   4.015  14.917   9.504 -0.0377  0.2162 -0.0370
 1317ERGO    C217948   3.984  14.927   9.117  0.0938 -0.0161  0.0407
 1318ERGO   ROH17949   8.264  14.241   7.079  0.0368 -0.0585  0.0566
 1318ERGO    R117950   8.345  14.107   7.315 -0.0323 -0.0833  0.0669
 1318ERGO    R217951   8.503  14.227   7.508  0.0588 -0.1600  0.0437
 1318ERGO    R317952   8.301  14.153   7.673  0.0198 -0.0115  0.0637
 1318ERGO    R417953   8.506  14.262   7.851  0.1187 -0.1747  0.0447
 1318ERGO    R517954   8.412  14.067   7.867 -0.0274 -0.1018  0.0486
 1318ERGO    C117955   8.318  14.213   8.207  0.1170 -0.0441  0.0642
 1318ERGO    C217956   8.179  14.289   8.441 -0.1742  0.4194  0.1590
 1319ERGO   ROH17957   2.669   7.724   6.585  0.1452 -0.2283 -0.0254
 1319ERGO    R117958   2.539   7.804   6.823  0.1442 -0.1177 -0.0628
 1319ERGO    R217959   2.502   7.632   7.037  0.0773 -0.0389 -0.0149
 1319ERGO    R317960   2.625   7.831   7.176  0.1158 -0.0294 -0.0613
 1319ERGO    R417961   2.483   7.676   7.379 -0.0618  0.1414 -0.0435
 1319ERGO    R517962   2.468   7.890   7.347  0.0622  0.1369 -0.1622
 1319ERGO    C117963   2.587   7.887   7.709 -0.1067  0.2554 -0.1037
 1319ERGO    C217964   2.567   7.775   8.022 -0.0028  0.3548  0.3054
 1320ERGO   ROH17965  11.810  14.756   6.709  0.2407 -0.1784 -0.0219
 1320ERGO    R117966  11.752  14.765   6.986  0.1251 -0.1088 -0.0487
 1320ERGO    R217967  11.618  14.562   7.117  0.2469 -0.1631 -0.0200
 1320ERGO    R317968  11.836  14.568   7.280  0.1766  0.0865  0.0725
 1320ERGO    R417969  11.607  14.561   7.463  0.0885 -0.1711 -0.0237
 1320ERGO    R517970  11.769  14.706   7.464 -0.0684  0.0206  0.0444
 1320ERGO    C117971  11.805  14.566   7.817 -0.0698  0.0585  0.0611
 1320ERGO    C217972  11.812  14.604   8.175 -0.0890 -0.1554  0.0458
 1321ERGO   ROH17973  10.868  15.174   6.660  0.1800  0.0032 -0.0425
 1321ERGO    R117974  10.893  15.286   6.919  0.1366  0.0082 -0.0411
 1321ERGO    R217975  10.716  15.229   7.123  0.1100  0.0045 -0.0691
 1321ERGO    R317976  10.943  15.161   7.257  0.0920  0.0176 -0.0300
 1321ERGO    R417977  10.757  15.246   7.466  0.0368 -0.0176 -0.0586
 1321ERGO    R517978  10.958  15.322   7.434  0.0379  0.0078 -0.0134
 1321ERGO    C117979  10.994  15.193   7.791 -0.0228 -0.0181 -0.0157
 1321ERGO    C217980  11.007  15.150   8.093  0.1421  0.1705 -0.1533
 1322ERGO   ROH17981   3.290   6.938   6.861 -0.3013 -0.0945  0.0212
 1322ERGO    R117982   3.353   6.775   7.084 -0.1799 -0.0554  0.0161
 1322ERGO    R217983   3.571   6.823   7.247 -0.1156 -0.0009 -0.0853
 1322ERGO    R317984   3.384   6.820   7.443 -0.0299 -0.0027 -0.0028
 1322ERGO    R417985   3.640   6.827   7.585  0.0342 -0.0978 -0.1134
 1322ERGO    R517986   3.479   6.683   7.615  0.0128 -0.0664 -0.0770
 1322ERGO    C117987   3.504   6.827   7.967  0.2018 -0.1559 -0.0522
 1322ERGO    C217988   3.525   6.891   8.308 -0.1874 -0.1445 -0.4070
 1323ERGO   ROH17989  15.020  11.358   6.981  0.0298 -0.0366  0.0439
 1323ERGO    R117990  15.059  11.533   7.200  0.0407  0.0223 -0.0051
 1323ERGO    R217991  14.882  11.735   7.263 -0.0008 -0.0197  0.0019
 1323ERGO    R317992  14.883  11.616   7.507  0.1056  0.0362  0.0299
 1323ERGO    R417993  14.749  11.872   7.551  0.0818  0.0345  0.0147
 1323ERGO    R517994  14.920  11.795   7.661  0.1369  0.0833 -0.0271
 1323ERGO    C117995  14.672  11.840   7.948  0.2298  0.1185  0.0484
 1323ERGO    C217996  14.638  11.820   8.273 -0.1917  0.0826 -0.2442
 1324ERGO   ROH17997  10.305  11.341   6.851 -0.0247 -0.1673 -0.0038
 1324ERGO    R117998  10.366  11.163   7.063  0.1472 -0.1472 -0.0330
 1324ERGO    R217999  10.539  11.229   7.268  0.1445 -0.0409 -0.0549
 1324ERGO    R318000  10.328  11.161   7.425  0.2183 -0.2074 -0.0282
 1324ERGO    R418001  10.563  11.122   7.596  0.2454  0.0739 -0.0247
 1324ERGO    R518002  10.408  10.975   7.554  0.3960 -0.0880  0.0241
 1324ERGO    C118003  10.379  10.995   7.934  0.3736 -0.0156  0.0179
 1324ERGO    C218004  10.554  11.136   8.250  0.1937 -0.2132 -0.1153
 1325ERGO   ROH18005  11.163   2.403   6.579  0.1490 -0.1449  0.2309
 1325ERGO    R118006  11.135   2.307   6.844  0.1769 -0.1274  0.2393
 1325ERGO    R218007  11.334   2.335   7.034  0.1530 -0.0191  0.2439
 1325ERGO    R318008  11.135   2.451   7.178  0.0953 -0.0912  0.2252
 1325ERGO    R418009  11.292   2.299   7.375  0.2808  0.1548  0.2802
 1325ERGO    R518010  11.077   2.285   7.342  0.2775 -0.0441  0.3454
 1325ERGO    C118011  11.081   2.387   7.709  0.3011  0.1884  0.2838
 1325ERGO    C218012  11.185   2.375   7.979  0.0521 -0.0837 -0.1204
 1326ERGO   ROH18013   8.360   9.676   6.948  0.1484 -0.0754  0.0186
 1326ERGO    R118014   8.360   9.789   7.207  0.1792  0.0048 -0.0163
 1326ERGO    R218015   8.223   9.676   7.419  0.1282  0.1211  0.0118
 1326ERGO    R318016   8.465   9.687   7.541  0.1268  0.0685  0.0204
 1326ERGO    R418017   8.275   9.639   7.758  0.1136  0.0504  0.0067
 1326ERGO    R518018   8.423   9.799   7.748  0.1342  0.0352  0.0407
 1326ERGO    C118019   8.533   9.627   8.070  0.1039 -0.0402  0.0118
 1326ERGO    C218020   8.585   9.621   8.395  0.1354  0.0687  0.0639
 1327ERGO   ROH18021  11.432   6.589   6.795  0.0510  0.0954  0.0751
 1327ERGO    R118022  11.358   6.488   7.049  0.0756  0.0494  0.0637
 1327ERGO    R218023  11.542   6.443   7.251  0.0646  0.2372  0.1162
 1327ERGO    R318024  11.375   6.602   7.394 -0.1228  0.0972  0.0591
 1327ERGO    R418025  11.498   6.426   7.593 -0.0674  0.1770  0.0970
 1327ERGO    R518026  11.284   6.458   7.562 -0.0821  0.0125  0.0095
 1327ERGO    C118027  11.315   6.565   7.927 -0.3202  0.0106  0.0323
 1327ERGO    C218028  11.262   6.483   8.262 -0.3180  0.0324 -0.0131
 1328ERGO   ROH18029   4.840  11.481   7.029 -0.1815 -0.2476 -0.0839
 1328ERGO    R118030   4.866  11.344   7.275  0.1454  0.0068  0.0310
 1328ERGO    R218031   4.936  11.472   7.509 -0.1398  0.3680 -0.0726
 1328ERGO    R318032   4.708  11.356   7.602  0.1197 -0.0909  0.0227
 1328ERGO    R418033   4.826  11.486   7.837 -0.2224  0.4894 -0.1049
 1328ERGO    R518034   4.766  11.277   7.821  0.2908  0.3061  0.1297
 1328ERGO    C118035   4.549  11.386   8.115 -0.0270  0.1291 -0.0343
 1328ERGO    C218036   4.457  11.427   8.512  0.1872  0.2127  0.0340
 1329ERGO   ROH18037   4.928   4.709   7.130 -0.0016  0.1413  0.0670
 1329ERGO    R118038   4.851   4.856   7.359 -0.0639  0.0641  0.0964
 1329ERGO    R218039   4.647   4.775   7.527  0.0267 -0.1013  0.1305
 1329ERGO    R318040   4.838   4.798   7.718  0.0493  0.0193  0.0933
 1329ERGO    R418041   4.589   4.763   7.867  0.1050 -0.1724  0.1414
 1329ERGO    R518042   4.734   4.924   7.892 -0.0051 -0.0710  0.1254
 1329ERGO    C118043   4.735   4.779   8.245  0.1717 -0.1006  0.1129
 1329ERGO    C218044   4.940   4.739   8.659 -0.0772  0.2793 -0.0120
 1330ERGO   ROH18045   6.343   9.710   7.123  0.1050 -0.1786 -0.1335
 1330ERGO    R118046   6.342   9.860   7.364  0.1244  0.0238 -0.2578
 1330ERGO    R218047   6.336   9.741   7.614 -0.3428  0.2329 -0.1602
 1330ERGO    R318048   6.557   9.893   7.655 -0.1066 -0.1230 -0.0667
 1330ERGO    R418049   6.442   9.857   7.922 -0.2716  0.0467 -0.1131
 1330ERGO    R518050   6.493  10.046   7.828  0.0723 -0.0257 -0.0841
 1330ERGO    C118051   6.711  10.067   8.140 -0.0083 -0.3958  0.0021
 1330ERGO    C218052   6.793  10.084   8.424 -0.1309  0.1163  0.3001
 1331ERGO   ROH18053  11.667   0.924  10.732 -0.1613  0.2073 -0.0165
 1331ERGO    R118054  11.531   0.923  10.483  0.0300  0.2284 -0.1235
 1331ERGO    R218055  11.642   1.029  10.253  0.3651 -0.0798 -0.1207
 1331ERGO    R318056  11.588   0.783  10.152  0.1005 -0.0807  0.0182
 1331ERGO    R418057  11.604   0.957   9.917  0.2748 -0.2401 -0.0762
 1331ERGO    R518058  11.439   0.825   9.970  0.1405 -0.0339  0.0034
 1331ERGO    C118059  11.530   0.684   9.627 -0.0261 -0.3343  0.0802
 1331ERGO    C218060  11.402   0.744   9.258  0.0279 -0.0687  0.2885
 1332ERGO   ROH18061   1.406  11.969   6.576 -0.3491 -0.0303 -0.1556
 1332ERGO    R118062   1.337  12.022   6.845 -0.2855 -0.1663 -0.1117
 1332ERGO    R218063   1.379  11.839   7.049  0.1265 -0.1211 -0.1484
 1332ERGO    R318064   1.512  12.047   7.163 -0.1422  0.0895 -0.2084
 1332ERGO    R418065   1.371  11.918   7.385  0.2411 -0.2020 -0.1259
 1332ERGO    R518066   1.362  12.128   7.331 -0.1628 -0.2010 -0.0803
 1332ERGO    C118067   1.491  12.158   7.689  0.0555 -0.0514 -0.1691
 1332ERGO    C218068   1.643  12.307   8.024 -0.0588  0.1039  0.1459
 1333ERGO   ROH18069  16.254  12.696   6.601  0.0480  0.4448  0.0005
 1333ERGO    R118070  16.185  12.716   6.874  0.0061  0.1766  0.0117
 1333ERGO    R218071  16.180  12.497   7.043  0.2115  0.0470 -0.1476
 1333ERGO    R318072  16.346  12.650   7.194  0.0476  0.1056 -0.0232
 1333ERGO    R418073  16.202  12.483   7.387  0.1184 -0.1102 -0.1469
 1333ERGO    R518074  16.218  12.701   7.390 -0.0541 -0.0943 -0.0332
 1333ERGO    C118075  16.371  12.619   7.730 -0.0899 -0.1467 -0.0297
 1333ERGO    C218076  16.286  12.684   8.058  0.0946  0.0912  0.1620
 1334ERGO   ROH18077   3.433   4.426   6.931  0.1233  0.2370 -0.0721
 1334ERGO    R118078   3.289   4.477   7.169  0.0656  0.0367 -0.0627
 1334ERGO    R218079   3.246   4.282   7.361  0.2549 -0.0549 -0.1107
 1334ERGO    R318080   3.359   4.465   7.527  0.0684  0.0196 -0.0638
 1334ERGO    R418081   3.236   4.269   7.706  0.2303 -0.1306 -0.1140
 1334ERGO    R518082   3.204   4.485   7.708  0.0299 -0.1584 -0.0757
 1334ERGO    C118083   3.335   4.434   8.063  0.0407 -0.1046 -0.0719
 1334ERGO    C218084   3.531   4.457   8.446  0.0548  0.2192  0.1255
 1335ERGO   ROH18085   1.147   2.771   6.929  0.2762 -0.1452  0.0111
 1335ERGO    R118086   0.972   2.741   7.149  0.1445  0.0779 -0.0594
 1335ERGO    R218087   1.029   2.574   7.363 -0.1565 -0.0023 -0.0368
 1335ERGO    R318088   0.987   2.799   7.508  0.0770  0.0550 -0.0534
 1335ERGO    R418089   0.984   2.584   7.705 -0.1612  0.0767 -0.0388
 1335ERGO    R518090   0.830   2.734   7.676  0.0005  0.2379 -0.0546
 1335ERGO    C118091   0.918   2.801   8.041  0.0554  0.1765 -0.0556
 1335ERGO    C218092   1.050   2.926   8.418 -0.0015  0.1205  0.1299
 1336ERGO   ROH18093   8.759  12.650   6.995  0.0412  0.1088 -0.0940
 1336ERGO    R118094   8.852  12.605   7.259 -0.0422  0.0143 -0.0830
 1336ERGO    R218095   8.925  12.812   7.427 -0.0452 -0.0577 -0.0147
 1336ERGO    R318096   8.745  12.695   7.595 -0.1094 -0.0610 -0.0802
 1336ERGO    R418097   8.933  12.832   7.772 -0.1359 -0.0778 -0.0084
 1336ERGO    R518098   8.876  12.622   7.781 -0.1572 -0.0867 -0.0444
 1336ERGO    C118099   8.770  12.734   8.130 -0.2487 -0.0926 -0.0663
 1336ERGO    C218100   8.778  12.655   8.582  0.2022  0.1143  0.1683
 1337ERGO   ROH18101   4.341   8.404   7.020  0.0777 -0.0696  0.1246
 1337ERGO    R118102   4.255   8.355   7.285  0.2764 -0.2325  0.1602
 1337ERGO    R218103   4.431   8.303   7.492  0.4871  0.3581  0.1362
 1337ERGO    R318104   4.301   8.510   7.611 -0.1057  0.0315  0.0977
 1337ERGO    R418105   4.397   8.346   7.833  0.5399  0.4027  0.1370
 1337ERGO    R518106   4.192   8.412   7.800  0.2889 -0.2396  0.2048
 1337ERGO    C118107   4.255   8.566   8.143  0.0141  0.1221  0.1013
 1337ERGO    C218108   4.354   8.609   8.495 -0.0859  0.0967  0.0203
 1338ERGO   ROH18109  12.394   2.448   6.626 -0.0194  0.1661  0.0514
 1338ERGO    R118110  12.490   2.370   6.881 -0.1143 -0.1586 -0.0069
 1338ERGO    R218111  12.596   2.551   7.062  0.4578 -0.4737  0.0009
 1338ERGO    R318112  12.408   2.445   7.228  0.2260 -0.0153  0.0452
 1338ERGO    R418113  12.602   2.569   7.407  0.3863 -0.1961 -0.0104
 1338ERGO    R518114  12.532   2.363   7.415  0.0322 -0.0722  0.1474
 1338ERGO    C118115  12.430   2.480   7.763  0.1272  0.3960  0.0247
 1338ERGO    C218116  12.525   2.539   8.084  0.0065 -0.0570  0.3281
 1339ERGO   ROH18117  13.128  11.064   8.665 -0.0838  0.2091 -0.0423
 1339ERGO    R118118  12.937  10.993   8.862 -0.0990  0.1778 -0.0700
 1339ERGO    R218119  12.674  10.937   8.800 -0.0268 -0.0841 -0.1372
 1339ERGO    R318120  12.725  10.706   8.932  0.1149  0.0431  0.0378
 1339ERGO    R418121  12.442  10.687   8.856  0.1748 -0.2748 -0.1333
 1339ERGO    R518122  12.525  10.663   9.057  0.0738 -0.0718 -0.0626
 1339ERGO    C118123  12.355  10.324   9.013  0.4252 -0.2664  0.0334
 1339ERGO    C218124  12.175  10.134   9.244 -0.0212 -0.1884  0.0950
 1340ERGO   ROH18125  10.270   1.646   6.680 -0.1693 -0.0801 -0.1226
 1340ERGO    R118126  10.350   1.688   6.949 -0.1320 -0.0770 -0.1331
 1340ERGO    R218127  10.247   1.892   7.105 -0.0370 -0.0082 -0.1495
 1340ERGO    R318128  10.190   1.688   7.275 -0.1118  0.0346 -0.1245
 1340ERGO    R418129  10.237   1.918   7.449  0.2849 -0.0437 -0.1357
 1340ERGO    R518130  10.334   1.724   7.462  0.0851 -0.1472 -0.2428
 1340ERGO    C118131  10.178   1.743   7.810  0.4022 -0.0242 -0.1042
 1340ERGO    C218132  10.167   1.917   8.116 -0.0915 -0.1108 -0.0983
 1341ERGO   ROH18133   4.957  16.983   7.174 -0.1531 -0.0145 -0.0504
 1341ERGO    R118134   5.111  16.884   7.390 -0.1225 -0.0627 -0.0929
 1341ERGO    R218135   5.303  17.037   7.518 -0.0057 -0.1327 -0.1701
 1341ERGO    R318136   5.161  16.969   7.740  0.0330 -0.0470 -0.1201
 1341ERGO    R418137   5.421  17.054   7.842  0.0833 -0.1396 -0.2027
 1341ERGO    R518138   5.320  16.866   7.884  0.0251 -0.0886 -0.1496
 1341ERGO    C118139   5.357  17.001   8.239  0.1714 -0.0631 -0.1747
 1341ERGO    C218140   5.504  16.903   8.535  0.1355 -0.0062  0.0721
 1342ERGO   ROH18141   7.501   5.054   6.979 -0.0051  0.1263  0.0676
 1342ERGO    R118142   7.610   5.082   7.239 -0.1093  0.1682  0.1061
 1342ERGO    R218143   7.503   5.254   7.428 -0.3442 -0.0008  0.1202
 1342ERGO    R318144   7.496   5.029   7.581 -0.1490 -0.0492  0.0630
 1342ERGO    R418145   7.553   5.246   7.770 -0.4899 -0.0019  0.1428
 1342ERGO    R518146   7.668   5.063   7.744 -0.2534  0.1298  0.1499
 1342ERGO    C118147   7.575   5.031   8.112 -0.3916 -0.0479  0.1022
 1342ERGO    C218148   7.448   4.981   8.387 -0.0425  0.0194 -0.0165
 1343ERGO   ROH18149   3.090   7.481   6.742 -0.0015 -0.0035  0.1006
 1343ERGO    R118150   3.001   7.598   6.984 -0.0223 -0.0279  0.1048
 1343ERGO    R218151   2.885   7.450   7.186 -0.1295 -0.0338  0.0400
 1343ERGO    R318152   3.079   7.565   7.338 -0.1265 -0.1400  0.1178
 1343ERGO    R418153   2.880   7.472   7.531 -0.2002 -0.1304  0.0454
 1343ERGO    R518154   2.960   7.673   7.515 -0.1309 -0.1520  0.1216
 1343ERGO    C118155   3.059   7.592   7.874 -0.2386 -0.2863  0.1215
 1343ERGO    C218156   3.039   7.586   8.195  0.2090  0.2503  0.0533
 1344ERGO   ROH18157  13.990  12.480   6.953  0.0771  0.0041  0.1793
 1344ERGO    R118158  14.094  12.527   7.212 -0.0981  0.3231  0.1982
 1344ERGO    R218159  13.955  12.669   7.405 -0.5010  0.0521  0.1309
 1344ERGO    R318160  13.999  12.446   7.554 -0.0043  0.1766  0.1883
 1344ERGO    R418161  13.926  12.652   7.748 -0.2083  0.1155  0.1608
 1344ERGO    R518162  14.104  12.527   7.753  0.0096  0.4238  0.0776
 1344ERGO    C118163  13.949  12.433   8.089  0.4285  0.2693  0.2319
 1344ERGO    C218164  13.796  12.463   8.447  0.1682 -0.1431  0.1288
 1345ERGO   ROH18165   0.336   6.383  11.309  0.1963  0.0745 -0.1072
 1345ERGO    R118166   0.488   6.381  11.070  0.0729  0.2901 -0.1896
 1345ERGO    R218167   0.481   6.171  10.891  0.4314  0.1756 -0.0766
 1345ERGO    R318168   0.419   6.367  10.713 -0.1013 -0.0383 -0.1469
 1345ERGO    R418169   0.525   6.149  10.549  0.2827  0.1032 -0.0924
 1345ERGO    R518170   0.593   6.356  10.549 -0.1643  0.2606 -0.2393
 1345ERGO    C118171   0.493   6.320  10.183 -0.3039 -0.1398 -0.1676
 1345ERGO    C218172   0.480   6.390   9.915  0.1784 -0.1320  0.1050
 1346ERGO   ROH18173   2.206   0.074   6.812 -0.1834  0.2582 -0.0271
 1346ERGO    R118174   2.090   0.146   7.060 -0.0835  0.1567  0.0503
 1346ERGO    R218175   2.049  -0.036   7.263  0.0557  0.0857  0.0158
 1346ERGO    R318176   2.191   0.144   7.409  0.0824  0.0749  0.0032
 1346ERGO    R418177   2.079  -0.042   7.607  0.1537  0.0319  0.0067
 1346ERGO    R518178   2.060   0.176   7.607  0.1349  0.0315  0.0462
 1346ERGO    C118179   2.230   0.124   7.945  0.2359 -0.0098 -0.0104
 1346ERGO    C218180   2.244   0.289   8.290  0.1239  0.1379 -0.1479
 1347ERGO   ROH18181   6.925  16.384   6.770 -0.2719 -0.1595  0.0056
 1347ERGO    R118182   6.870  16.370   7.047 -0.1512 -0.1128  0.0335
 1347ERGO    R218183   6.957  16.161   7.207 -0.0624 -0.0775  0.0384
 1347ERGO    R318184   7.063  16.362   7.356 -0.0156 -0.0375 -0.0499
 1347ERGO    R418185   6.931  16.187   7.550 -0.2416  0.1992  0.0070
 1347ERGO    R518186   6.901  16.402   7.527 -0.0856  0.2008 -0.1707
 1347ERGO    C118187   7.017  16.391   7.890 -0.3019  0.3977 -0.0943
 1347ERGO    C218188   6.850  16.366   8.160  0.0066 -0.1218 -0.1622
 1348ERGO   ROH18189  10.520  12.864   6.920 -0.0041  0.0853 -0.0529
 1348ERGO    R118190  10.523  12.722   7.164  0.1450 -0.0295 -0.1204
 1348ERGO    R218191  10.751  12.697   7.319  0.1474  0.2308 -0.0812
 1348ERGO    R318192  10.591  12.799   7.514 -0.0508 -0.0960 -0.0662
 1348ERGO    R418193  10.793  12.643   7.658  0.2168  0.2099 -0.0927
 1348ERGO    R518194  10.576  12.624   7.676  0.2400 -0.1717 -0.1144
 1348ERGO    C118195  10.666  12.706   8.038  0.0710 -0.1090 -0.0852
 1348ERGO    C218196  10.597  12.576   8.332 -0.0220  0.1298 -0.0370
 1349W        W18197  15.017  10.079   2.270  0.2024 -0.0002 -0.0473
 1350W        W18198  14.943   4.226   0.814 -0.0979 -0.0369  0.0736
 1351W        W18199  11.397   0.988   3.803  0.1926  0.2539 -0.0374
 1352W        W18200  13.865  11.954   5.631 -0.0199 -0.0393 -0.1149
 1353W        W18201   7.393   2.193  14.096 -0.2163  0.0617 -0.1246
 1354W        W18202   6.876   7.563   2.580 -0.0006  0.1137  0.2518
 1355W        W18203   6.223  11.755  12.147  0.2883  0.2522  0.0607
 1356W        W18204   0.311  15.816   2.051  0.1155  0.0710  0.0288
 1357W        W18205   6.624   0.363   5.488 -0.0421 -0.0088 -0.1030
 1358W        W18206   0.022   8.467   4.131 -0.2199  0.3579 -0.0598
 1359W        W18207  10.561   3.773   5.072 -0.0442 -0.3254 -0.0188
 1360W        W18208   3.221   0.980  15.870  0.2155  0.0028  0.0793
 1361W        W18209  16.283   2.314  13.872 -0.0736  0.0754 -0.0946
 1362W        W18210   8.527   5.101  12.610  0.1679  0.0089 -0.2150
 1363W        W18211  15.187   5.848  14.945 -0.1792  0.3020 -0.1068
 1364W        W18212   6.737   0.860  17.812 -0.0038  0.2992  0.0808
 1365W        W18213  13.423  10.680  16.648  0.3195  0.3554  0.0373
 1366W        W18214  11.824   3.884   3.433  0.1426 -0.1998  0.1431
 1367W        W18215  14.018   3.526  13.720 -0.2528  0.3107  0.2446
 1368W        W18216   8.285   2.666  14.060  0.0149 -0.2215  0.1576
 1369W        W18217  10.107   4.836  13.758  0.0201  0.2031  0.3049
 1370W        W18218   0.082  16.283  13.981  0.4245 -0.2917 -0.2364
 1371W        W18219  12.324  15.418  15.020 -0.2357  0.0826  0.1849
 1372W        W18220   0.740  13.715   5.387 -0.1181  0.0558  0.0882
 1373W        W18221   2.538  12.313   2.760 -0.3592 -0.1149 -0.1924
 1374W        W18222   8.370   7.201  15.847 -0.2890 -0.1132 -0.0384
 1375W        W18223   5.372   0.794   1.418 -0.1547 -0.1645 -0.3244
 1376W        W18224   2.805   3.282  13.937 -0.2461 -0.1433 -0.1500
 1377W        W18225   5.173  10.012  13.743 -0.0230  0.1861 -0.1044
 1378W        W18226   7.772   2.353   2.344  0.0405  0.2205  0.0715
 1379W        W18227   0.268   8.464  15.944 -0.3446  0.1120 -0.0857
 1380W        W18228  16.303  13.367   0.782  0.0029  0.2062 -0.0140
 1381W        W18229   0.632   1.054   2.797 -0.3588 -0.1254 -0.1062
 1382W        W18230  13.600   0.706  13.796  0.2665 -0.2101  0.1692
 1383W        W18231   3.263   5.356  16.099 -0.1725  0.4086  0.0694
 1384W        W18232   6.169  10.544   0.933  0.1717 -0.2129  0.1992
 1385W        W18233  15.059  14.842   1.560 -0.1699 -0.3402 -0.2287
 1386W        W18234  11.368   3.209  13.498  0.0187 -0.0481 -0.1925
 1387W        W18235   8.206  14.112  14.799  0.2499  0.3116 -0.1266
 1388W        W18236   1.180   1.558  16.118  0.3030  0.0223 -0.0900
 1389W        W18237  11.589   4.509  12.430 -0.1260  0.2087  0.0424
 1390W        W18238  15.067  11.994  16.137  0.2169  0.1115  0.0055
 1391W        W18239  14.787   6.832   5.320 -0.1047  0.0377  0.4052
 1392W        W18240   1.218  14.227   2.877  0.2465 -0.1935 -0.0068
 1393W        W18241  16.396   5.534   3.746 -0.1609  0.0829  0.0721
 1394W        W18242  12.935  15.977   0.264 -0.0662  0.0483 -0.0594
 1395W        W18243  12.996  11.451   0.778  0.0743 -0.0994 -0.0491
 1396W        W18244   9.691  10.400   2.054 -0.1081  0.1124  0.0004
 1397W        W18245  15.962  16.206  13.628  0.1104 -0.0756  0.0720
 1398W        W18246  14.365   7.139   4.658  0.2933  0.3934  0.4868
 1399W        W18247   5.727   5.301   4.010 -0.1256  0.0965 -0.1633
 1400W        W18248  16.902  15.838   0.396 -0.0093 -0.0598  0.2006
 1401W        W18249  12.476   5.925   2.845 -0.1058  0.2215  0.0149
 1402W        W18250  15.422  14.800   0.887  0.2317 -0.2188 -0.1334
 1403W        W18251   2.350   0.464   3.935  0.1384 -0.0681 -0.0967
 1404W        W18252  15.748   2.957   0.178  0.0647  0.1834 -0.0915
 1405W        W18253   8.107  16.014   4.237  0.1663 -0.4217  0.2106
 1406W        W18254  14.432   7.104  13.756  0.1453  0.0005 -0.0791
 1407W        W18255   9.674   8.769   2.705 -0.1377 -0.0167 -0.0761
 1408W        W18256  10.264  16.990  17.665  0.0036  0.1413  0.0169
 1409W        W18257  16.658   0.372  14.492  0.1964 -0.1044 -0.0040
 1410W        W18258  10.312  14.469   3.883  0.1822  0.2898  0.0255
 1411W        W18259   1.739   8.219   2.615 -0.1030 -0.1348  0.2016
 1412W        W18260  14.134  11.608  13.285 -0.1634 -0.1560  0.2265
 1413W        W18261  16.307  12.549  17.372  0.1726  0.0946  0.0150
 1414W        W18262   7.272   7.175  12.606 -0.0388  0.0171  0.1473
 1415W        W18263   6.904  14.481   3.039 -0.0117 -0.1902 -0.0396
 1416W        W18264   0.347   5.241  12.191 -0.0192  0.1243 -0.2091
 1417W        W18265  14.330   1.796  13.222  0.0411 -0.0058  0.0872
 1418W        W18266   3.990   1.575   3.639  0.2384  0.1353  0.0483
 1419W        W18267  10.934   3.301  16.878 -0.1467 -0.2169 -0.2960
 1420W        W18268  15.319   4.511   5.356  0.0310 -0.0056 -0.1220
 1421W        W18269   7.101  13.999  15.407 -0.0424  0.1036 -0.0642
 1422W        W18270   9.043  10.121   3.460  0.3403 -0.4346  0.3674
 1423W        W18271  14.771  12.821  12.778 -0.2482  0.0057  0.1881
 1424W        W18272  11.108   6.759  15.671 -0.1305  0.1876 -0.1634
 1425W        W18273  12.580  14.329   2.760  0.0267  0.2761 -0.0573
 1426W        W18274   1.785   9.594  16.702  0.4132  0.1514 -0.2241
 1427W        W18275  14.848   3.997  17.118  0.2579  0.0483 -0.0969
 1428W        W18276   4.163  12.441   2.113 -0.0668 -0.0929 -0.0650
 1429W        W18277   8.451   1.215  15.472  0.1972  0.0574 -0.2373
 1430W        W18278  13.117   1.866  10.794 -0.0584 -0.0613 -0.0155
 1431W        W18279   5.717   7.954  13.099  0.2371 -0.4689  0.1208
 1432W        W18280   9.924   2.280  12.438  0.0073  0.0889 -0.3048
 1433W        W18281   9.650   9.210  12.607  0.2990  0.1664 -0.0065
 1434W        W18282   4.842   5.940  17.115  0.4420 -0.3674  0.0657
 1435W        W18283   2.665  16.755  12.237  0.0559  0.0436 -0.0958
 1436W        W18284   5.802   8.924   1.852 -0.0515  0.1767 -0.0586
 1437W        W18285   8.767  10.459   0.839 -0.1536 -0.0314  0.0969
 1438W        W18286  14.760   4.522  12.144  0.1541  0.2014 -0.0880
 1439W        W18287   0.088  12.651   2.193 -0.1245 -0.0276 -0.0097
 1440W        W18288  13.686  14.076  16.631 -0.0508  0.0589 -0.0571
 1441W        W18289  12.678   1.977  11.597  0.0661  0.0909 -0.2923
 1442W        W18290   8.398   2.216  15.273  0.0406  0.0872 -0.0449
 1443W        W18291  16.249  14.398  15.085 -0.1492 -0.3341  0.1846
 1444W        W18292   1.658   0.213  17.744 -0.2733 -0.2798 -0.1325
 1445W        W18293  12.938   1.805  15.108  0.1294 -0.0041  0.2931
 1446W        W18294   6.116  11.529  15.144 -0.0265  0.1278 -0.0567
 1447W        W18295  10.602  12.676  12.839 -0.0037  0.0912 -0.1647
 1448W        W18296  11.029  10.060   0.241  0.0964 -0.1729  0.2109
 1449W        W18297   1.627  10.957  12.422  0.0043 -0.1960  0.0094
 1450W        W18298   6.000   6.678   3.327  0.0202  0.0780 -0.1248
 1451W        W18299   5.599  14.644  14.323  0.0084  0.1854 -0.2580
 1452W        W18300   7.724   2.518   4.504  0.0638 -0.0559  0.0960
 1453W        W18301  12.041  10.209   0.622 -0.3981  0.0989 -0.3382
 1454W        W18302   8.306   4.348  11.829  0.0158  0.1084 -0.0024
 1455W        W18303   5.906   4.099   2.404 -0.1817 -0.0851  0.1980
 1456W        W18304   0.392   2.987  14.918 -0.0145  0.4209 -0.0059
 1457W        W18305  15.565  15.747   2.383  0.3621  0.0499  0.0803
 1458W        W18306  15.020  14.629  17.068 -0.2315  0.0977 -0.0236
 1459W        W18307   5.618   4.358  16.719 -0.1974  0.0969 -0.3406
 1460W        W18308   8.522  11.650  15.175  0.0020  0.1558 -0.2354
 1461W        W18309   2.158  13.836   6.518  0.1972 -0.3279  0.0910
 1462W        W18310  10.517  16.879  14.982  0.2638  0.0453  0.1553
 1463W        W18311  14.314   4.805   2.567  0.0114 -0.0270  0.0459
 1464W        W18312   6.970   1.883  14.218  0.1286  0.0374  0.2077
 1465W        W18313   6.650  12.233   5.425 -0.4314  0.1521  0.1752
 1466W        W18314   9.891   0.172  16.764  0.0717 -0.0147  0.1400
 1467W        W18315  16.565   2.953  17.626  0.1329  0.0866 -0.2122
 1468W        W18316  14.344   2.051   3.739  0.0284 -0.0780 -0.2550
 1469W        W18317   5.712  15.739  12.284 -0.1152  0.0189 -0.3691
 1470W        W18318   3.165  11.118  15.657  0.0878 -0.4132 -0.2212
 1471W        W18319  15.137  13.897  15.888 -0.0511 -0.4877  0.1908
 1472W        W18320   1.216   3.431  16.806 -0.0300  0.0957  0.0800
 1473W        W18321   2.914   5.515  15.478 -0.1853  0.0595 -0.1566
 1474W        W18322   7.319  10.921   5.552  0.0618 -0.1243  0.4262
 1475W        W18323  14.856   6.507  15.875 -0.1926 -0.0617 -0.1557
 1476W        W18324  14.304  16.954  13.093  0.0320 -0.0337  0.1693
 1477W        W18325  12.463  12.269  17.442  0.0559 -0.0226 -0.0046
 1478W        W18326  16.413   4.926  14.495  0.0879  0.0929 -0.0267
 1479W        W18327  16.881   3.211   2.690 -0.0667 -0.1575 -0.4507
 1480W        W18328   4.063  10.600   0.843 -0.2714  0.0775  0.3239
 1481W        W18329   2.297  11.589   0.412 -0.0227  0.2698 -0.1942
 1482W        W18330  15.032   5.843  16.569  0.0753 -0.1292  0.1305
 1483W        W18331  12.450  16.339  15.643  0.1249 -0.0197  0.0768
 1484W        W18332   2.917   6.795   5.670  0.0920 -0.4036 -0.0431
 1485W        W18333  13.973   5.319   1.470  0.1328 -0.2971 -0.1035
 1486W        W18334   4.015   4.217  12.340 -0.0190  0.0427  0.2326
 1487W        W18335   9.422   8.019  17.838  0.1843 -0.0254 -0.3711
 1488W        W18336   5.872   1.834  13.370  0.1959  0.0034  0.0121
 1489W        W18337   3.951  12.490  15.070  0.1302  0.0173 -0.1003
 1490W        W18338   4.156  14.189   0.175 -0.2457  0.0785 -0.0482
 1491W        W18339   2.090   5.693  17.596  0.1825 -0.1096 -0.0740
 1492W        W18340  10.037   1.973  13.400 -0.3718  0.1214 -0.0862
 1493W        W18341  12.955   5.188   0.838 -0.0345  0.0236 -0.1517
 1494W        W18342  16.713   3.968  13.611  0.0241  0.2161 -0.0261
 1495W        W18343  13.509  15.197   2.341  0.1763 -0.0927  0.2988
 1496W        W18344  13.621   4.147  15.762  0.2689  0.0525  0.0113
 1497W        W18345  15.684   2.900  16.279  0.2133 -0.1392 -0.1111
 1498W        W18346  16.412   9.188   2.345 -0.2072 -0.4556 -0.3452
 1499W        W18347   9.622   2.497   5.434  0.2177 -0.1579 -0.2794
 1500W        W18348   9.775  14.985  14.828  0.0343 -0.2883 -0.0314
 1501W        W18349   3.186  13.700  12.435 -0.2769 -0.0026 -0.0453
 1502W        W18350   1.089  12.300  17.372 -0.1458  0.2892 -0.1256
 1503W        W18351   0.630   3.114  17.354  0.0182 -0.0338 -0.0950
 1504W        W18352   6.207   7.678  16.249 -0.0264  0.2232  0.3599
 1505W        W18353  10.480   3.055  15.114  0.1743  0.1584  0.1231
 1506W        W18354   0.666   8.048  12.723 -0.2381  0.0868 -0.6134
 1507W        W18355  12.287  15.751  15.373  0.4264 -0.2128  0.0594
 1508W        W18356   5.286  12.590  14.613 -0.0845 -0.1018  0.1908
 1509W        W18357  13.666  15.564   3.448 -0.0954 -0.1781 -0.1648
 1510W        W18358   0.859   1.930  14.020  0.0140  0.2740 -0.0831
 1511W        W18359  15.703   3.237   4.385  0.0452 -0.2699 -0.1768
 1512W        W18360  15.889   6.231  17.007  0.0399 -0.0118  0.1140
 1513W        W18361   5.754   3.529   6.556  0.1305 -0.2490  0.1033
 1514W        W18362  10.025  13.516   4.051 -0.0953  0.0383 -0.3647
 1515W        W18363   6.357  16.748  15.589  0.3008  0.0155 -0.1871
 1516W        W18364   3.493  11.510  15.611 -0.2490 -0.1272 -0.0401
 1517W        W18365   3.551   6.954   0.199  0.0269  0.0394 -0.2349
 1518W        W18366  15.021  14.149  13.393  0.0841  0.0963  0.2461
 1519W        W18367   6.341   9.375  15.651 -0.1583  0.1156  0.0211
 1520W        W18368  14.235  13.643   3.157  0.0338 -0.0644  0.1075
 1521W        W18369  15.933  16.381   5.200  0.0521 -0.3522 -0.3129
 1522W        W18370   1.024  11.247   0.935 -0.0406  0.1739 -0.1529
 1523W        W18371  11.707   4.282   3.152  0.0740  0.0783  0.1853
 1524W        W18372  11.183   3.462   5.409 -0.0532 -0.1343  0.3996
 1525W        W18373   4.297  10.021  16.850 -0.3827 -0.0492 -0.0492
 1526W        W18374   4.611  10.029   1.070 -0.0811 -0.0020  0.1650
 1527W        W18375   5.589  11.220  17.654 -0.0383  0.0625 -0.1243
 1528W        W18376  14.472   6.369   3.245  0.0809 -0.1333 -0.0453
 1529W        W18377  12.337  13.966  15.357 -0.0131  0.0993 -0.1032
 1530W        W18378  11.487   2.425   5.453 -0.0424 -0.0832  0.0168
 1531W        W18379   9.963   9.983   4.821  0.2021  0.0728  0.0571
 1532W        W18380   4.291  12.255  16.571 -0.2326  0.1312 -0.0046
 1533W        W18381   7.344   5.762   3.953  0.0824 -0.1214  0.3250
 1534W        W18382   3.669   3.247   5.808  0.2373  0.4886  0.0757
 1535W        W18383   1.528   7.693  16.223 -0.1508 -0.0469 -0.0537
 1536W        W18384  14.540   5.898   5.332  0.0583 -0.2858  0.3717
 1537W        W18385   5.160   9.609   0.433 -0.0631 -0.2577 -0.1575
 1538W        W18386  10.538   9.911   2.206 -0.0085  0.2009  0.2026
 1539W        W18387  16.737  15.488  16.824 -0.1765 -0.2024 -0.1263
 1540W        W18388   4.079   9.594  13.495  0.1813 -0.0770  0.0849
 1541W        W18389   7.144   3.608  12.632 -0.1594 -0.1495 -0.2582
 1542W        W18390  15.711   5.565   2.782  0.3311  0.0425  0.0638
 1543W        W18391   7.949   2.387  13.680 -0.0094 -0.4458 -0.0968
 1544W        W18392   6.152   6.185  15.386 -0.0443  0.4075  0.2657
 1545W        W18393  12.722   5.178  16.703  0.1110 -0.0535  0.1541
 1546W        W18394   0.842   7.941  14.446 -0.0587  0.4053  0.1549
 1547W        W18395  16.804   6.821   0.424 -0.0845 -0.1773  0.2152
 1548W        W18396  14.858  11.409   1.225 -0.0935 -0.4044 -0.0824
 1549W        W18397   6.376   9.914  12.481  0.0271 -0.0238 -0.2508
 1550W        W18398   8.168  15.893   0.250  0.0184  0.0512  0.2840
 1551W        W18399   3.533   4.721  15.913  0.1841  0.1883  0.1100
 1552W        W18400   1.324  12.279   1.989  0.1118  0.1537 -0.1481
 1553W        W18401   0.297   0.204   3.636 -0.0555 -0.1272  0.0052
 1554W        W18402  13.880   3.489  14.241 -0.0202 -0.1789 -0.0988
 1555W        W18403   7.871   3.461   2.690 -0.3071  0.0934 -0.0759
 1556W        W18404  10.496  14.431   5.613  0.1056  0.1542 -0.0917
 1557W        W18405   8.135  11.460   3.542 -0.0506  0.0503 -0.2013
 1558W        W18406   7.663   9.040   1.950 -0.2199  0.0541 -0.0964
 1559W        W18407  15.754   1.953  17.556  0.0315  0.0101  0.1727
 1560W        W18408  13.725   1.718   4.637  0.2836 -0.0475  0.1624
 1561W        W18409   7.692  16.096   3.987 -0.0181 -0.0408 -0.1585
 1562W        W18410   2.220   6.638  14.391 -0.1674 -0.0098  0.1224
 1563W        W18411   9.659   5.740  16.044 -0.0836 -0.0679  0.0098
 1564W        W18412   2.495  12.094   0.387 -0.1302 -0.4389  0.1593
 1565W        W18413  12.531  16.365   5.581  0.1089 -0.0928  0.0284
 1566W        W18414   0.308   6.492  16.847 -0.4264 -0.1164  0.4133
 1567W        W18415   2.198  15.344   2.935  0.2611  0.2408 -0.0102
 1568W        W18416  15.425   3.412  17.801  0.1714 -0.2262 -0.1488
 1569W        W18417   7.329   8.352  13.145  0.0307 -0.0721  0.0462
 1570W        W18418   0.288  10.946   5.658 -0.1162  0.0931 -0.0117
 1571W        W18419   5.134   0.940   2.441  0.0775 -0.1597  0.1267
 1572W        W18420  16.143   7.631   5.098  0.1405 -0.2220 -0.0131
 1573W        W18421  14.927  11.216  14.640  0.1918 -0.0437 -0.0990
 1574W        W18422  11.123  13.977  16.247  0.3053 -0.0541  0.0332
 1575W        W18423  17.064   8.145   0.386  0.2789  0.1531  0.0119
 1576W        W18424  14.262  10.122  14.277  0.0604 -0.0606  0.0953
 1577W        W18425   1.256  10.842  15.162  0.0071  0.0843 -0.0651
 1578W        W18426   1.269   1.787  17.155  0.0225 -0.3385  0.1098
 1579W        W18427   5.563  13.787   1.349 -0.1497 -0.2761 -0.1450
 1580W        W18428  10.001   9.263   0.893  0.3450 -0.2356 -0.2607
 1581W        W18429  13.908  12.952   2.945  0.1204 -0.0772  0.1510
 1582W        W18430   8.338   1.001   3.645  0.1444  0.1324  0.0345
 1583W        W18431   1.703   5.102  14.775  0.1165  0.2517 -0.0352
 1584W        W18432   6.615   5.030   4.605  0.2108 -0.0458 -0.2221
 1585W        W18433   7.836   0.431   0.862  0.3515  0.0057  0.0053
 1586W        W18434  14.736  10.796  13.297  0.1620 -0.0486  0.1545
 1587W        W18435  16.497   4.281  12.380 -0.1210  0.0671 -0.0021
 1588W        W18436  15.002   4.797   1.949 -0.0725 -0.0650 -0.0280
 1589W        W18437   8.993  14.182  15.188 -0.0123  0.1957  0.1821
 1590W        W18438   7.737   9.635  12.475 -0.1731  0.2138  0.0573
 1591W        W18439   0.886   7.527   2.511  0.1883 -0.1533 -0.2827
 1592W        W18440  10.805   4.849   3.586  0.0287  0.2114 -0.0501
 1593W        W18441   1.900   3.662   3.412 -0.4115  0.2266 -0.0314
 1594W        W18442   4.119  10.816  15.801  0.3086 -0.2138 -0.1202
 1595W        W18443   7.049  14.516  15.919  0.3513 -0.0579 -0.0078
 1596W        W18444  11.360   5.656   2.716 -0.1487  0.1232  0.1402
 1597W        W18445   8.209   6.244  17.708 -0.3095  0.0159 -0.1253
 1598W        W18446   7.053   9.636  17.179  0.0768  0.3837 -0.3007
 1599W        W18447  14.680   3.722  16.708 -0.0504 -0.2321 -0.0701
 1600W        W18448  16.861   4.431   3.286  0.0459  0.0810  0.0303
 1601W        W18449  16.117   5.756   5.738 -0.2635  0.0000  0.2857
 1602W        W18450  16.216  10.827   0.673  0.0763 -0.1349  0.0902
 1603W        W18451  13.526   6.333   4.891  0.1679 -0.0403 -0.0094
 1604W        W18452   4.345  12.824   4.862 -0.3413  0.2789  0.0310
 1605W        W18453   8.680   1.788   3.455  0.1975 -0.1054  0.0752
 1606W        W18454  10.518  12.313  17.388  0.2613 -0.0557 -0.3913
 1607W        W18455   4.978   9.734   4.254  0.1351 -0.0940 -0.0977
 1608W        W18456   7.274   3.683  14.540  0.0424 -0.1182  0.1681
 1609W        W18457   3.770  15.929  15.526 -0.0445  0.1947  0.1836
 1610W        W18458  15.348  13.231  13.012 -0.1409  0.0713  0.3377
 1611W        W18459  13.158  12.238  14.727  0.0469 -0.1368 -0.0274
 1612W        W18460   2.336   6.757   3.220  0.1505 -0.1736  0.0651
 1613W        W18461   2.403   3.475   1.845  0.0625 -0.1183  0.1235
 1614W        W18462  16.551  13.066   4.998  0.1559  0.3832  0.2911
 1615W        W18463  11.971  16.173  14.043 -0.0776 -0.2228 -0.0767
 1616W        W18464  13.101  16.807   2.211  0.0133 -0.5751 -0.0380
 1617W        W18465   6.660   8.341   5.962  0.0787 -0.0399  0.0553
 1618W        W18466  10.339   6.655   0.987 -0.1395 -0.2264 -0.1666
 1619W        W18467   5.033  12.451   3.284  0.2915  0.0564  0.0378
 1620W        W18468  10.182  11.929  17.108 -0.2847 -0.1729 -0.0859
 1621W        W18469  14.239   4.971  14.464 -0.0415 -0.2323 -0.1728
 1622W        W18470   5.871   2.886  16.779  0.1349 -0.0142 -0.2611
 1623W        W18471   9.699   2.490  14.107  0.0636  0.1995  0.4351
 1624W        W18472  16.397   0.939   1.660  0.2882 -0.1480 -0.0330
 1625W        W18473   1.568   2.518   0.448 -0.0153  0.0020  0.0022
 1626W        W18474  13.692  10.663  17.485  0.0133 -0.3653  0.2208
 1627W        W18475   5.436  10.591   3.688 -0.2851 -0.0558  0.0640
 1628W        W18476   4.802  12.092  16.622  0.0767  0.1102  0.0367
 1629W        W18477  12.441   6.000  13.161 -0.1689 -0.0889  0.1547
 1630W        W18478  16.510  16.843  13.280  0.0034  0.2438 -0.4141
 1631W        W18479  16.718  10.248   0.001  0.4630 -0.1607 -0.0230
 1632W        W18480   6.184  13.251   1.764  0.2254  0.1540 -0.0983
 1633W        W18481   2.091  13.701  17.039 -0.0728  0.2482  0.1662
 1634W        W18482   6.018   0.021   5.140  0.2324  0.2561  0.3194
 1635W        W18483  16.726   1.487   0.491  0.2343  0.0846 -0.0180
 1636W        W18484  10.725  16.964  13.519 -0.0129 -0.0805  0.0690
 1637W        W18485   2.578  16.311   1.600  0.1206 -0.2850  0.3116
 1638W        W18486   5.695  13.283   2.586 -0.0392 -0.0607 -0.2932
 1639W        W18487  11.188  17.042  13.354 -0.3000 -0.1728 -0.0027
 1640W        W18488   8.211  13.810   4.082  0.0726  0.4691  0.0361
 1641W        W18489   2.517   1.020   2.201  0.0893  0.0132 -0.0746
 1642W        W18490  11.537   7.709   3.146  0.1167 -0.1028  0.1245
 1643W        W18491  11.686   1.716  16.493  0.1602 -0.0886 -0.2428
 1644W        W18492  12.065   3.013  13.491  0.0574  0.1251  0.1164
 1645W        W18493   4.133   3.713   1.568 -0.0942 -0.2677 -0.0347
 1646W        W18494  14.374   3.173  12.176 -0.0343  0.1797  0.0456
 1647W        W18495  15.036  13.255  14.113 -0.1452  0.0377  0.0161
 1648W        W18496   2.362  16.819  14.432  0.0176 -0.2847  0.0189
 1649W        W18497  13.382  11.195  16.643 -0.1024 -0.0024 -0.1481
 1650W        W18498   8.560  14.530   1.476 -0.1543  0.2161 -0.1302
 1651W        W18499  14.044   0.308  16.284  0.1978  0.1925 -0.2358
 1652W        W18500   7.388   8.733  15.379  0.1826  0.3662 -0.0179
 1653W        W18501   6.506   7.999   6.285  0.3738 -0.1460  0.2363
 1654W        W18502  10.844   0.627  12.061 -0.0888  0.1039 -0.0246
 1655W        W18503   2.997  13.717   2.502 -0.0581  0.2689 -0.0925
 1656W        W18504   7.891  16.634   3.567  0.1149 -0.3059  0.0997
 1657W        W18505   5.808  13.064   5.517  0.2808  0.1479  0.0340
 1658W        W18506  10.197   6.995   0.303 -0.1526  0.0241  0.1122
 1659W        W18507   3.203   1.264   1.758 -0.1751 -0.1798  0.2514
 1660W        W18508   4.218  10.350   2.832 -0.1675  0.2812 -0.1180
 1661W        W18509   9.478  14.952   3.877 -0.0535  0.2367 -0.1940
 1662W        W18510  13.128   5.338   3.130 -0.2871 -0.1618 -0.0670
 1663W        W18511  10.268  16.572   3.689 -0.2342  0.2004  0.2886
 1664W        W18512  14.893  14.499   0.080  0.1522  0.0743  0.1746
 1665W        W18513  10.149   3.350  13.944  0.2075 -0.1469  0.1143
 1666W        W18514  10.123  12.104  17.673 -0.4326 -0.0341 -0.2663
 1667W        W18515  10.843   2.921  15.956  0.1988 -0.1011 -0.3212
 1668W        W18516  12.584   1.822  12.952  0.3046 -0.0091 -0.0129
 1669W        W18517   3.293   6.418   0.362 -0.0936 -0.0721  0.0110
 1670W        W18518  11.655   1.666  17.440 -0.0286  0.1793  0.0323
 1671W        W18519  10.345  12.363   3.424 -0.0629 -0.3282  0.2008
 1672W        W18520  11.594  15.607   2.136  0.0704 -0.0553  0.0343
 1673W        W18521  14.031   8.222  17.262 -0.2923 -0.1848 -0.0606
 1674W        W18522   4.587   8.726  15.843 -0.3775 -0.0449  0.0007
 1675W        W18523  14.540  16.128  14.731  0.1877 -0.1452  0.2164
 1676W        W18524  11.833   8.713  14.872  0.0488  0.2858  0.2523
 1677W        W18525   7.556   4.619  17.227  0.0153 -0.3986  0.0233
 1678W        W18526   1.458   9.159  14.653  0.0170 -0.1605  0.3983
 1679W        W18527  10.336  10.535  14.604  0.0372  0.2403 -0.2444
 1680W        W18528   9.745   3.035   3.749  0.1036 -0.1664  0.1465
 1681W        W18529   7.567   2.855   0.755  0.0123 -0.1393 -0.2464
 1682W        W18530   9.428  13.124   3.791 -0.0150 -0.3102 -0.0713
 1683W        W18531  14.471   6.702   6.382 -0.1324  0.1566 -0.1129
 1684W        W18532  16.377  16.389   4.390  0.1190 -0.0356  0.2047
 1685W        W18533   2.775  16.492  14.379 -0.1699  0.0666 -0.3102
 1686W        W18534  14.484  12.117   4.332 -0.1513  0.2860  0.0379
 1687W        W18535  15.105   6.318   1.873 -0.0207 -0.2267 -0.1513
 1688W        W18536   6.132   1.849  11.300  0.0207  0.0853 -0.2248
 1689W        W18537  13.223   8.945  16.348 -0.1435  0.1177  0.0470
 1690W        W18538   7.895  14.504  17.447  0.3054  0.2158  0.0477
 1691W        W18539  10.487   5.045  13.417  0.1161 -0.1661 -0.1158
 1692W        W18540  11.333   7.435  13.401  0.2074 -0.0374 -0.3367
 1693W        W18541  10.610   9.730   4.186 -0.0502 -0.3123 -0.0410
 1694W        W18542  15.979   7.455  13.944  0.0305  0.1475 -0.2503
 1695W        W18543   1.139   1.139   5.431 -0.0522  0.0598 -0.0791
 1696W        W18544   2.478   8.323  12.364  0.1488  0.1974 -0.0239
 1697W        W18545   0.897   9.457  16.413 -0.0384 -0.1854  0.2001
 1698W        W18546  16.227  12.950   4.177 -0.1558  0.0067 -0.2801
 1699W        W18547   0.898   8.889   4.407 -0.1676  0.1609  0.2174
 1700W        W18548   8.767   8.841  12.985 -0.2661  0.3184 -0.0525
 1701W        W18549  14.030  15.764  13.602 -0.0902 -0.0737 -0.3502
 1702W        W18550   7.276  12.139  15.783 -0.1351 -0.0209  0.1247
 1703W        W18551   2.256   9.826  17.847  0.1741  0.0310  0.0443
 1704W        W18552   3.152   6.349   5.593 -0.1498 -0.0348  0.4166
 1705W        W18553   8.207   9.145  15.438 -0.2699  0.1848  0.0602
 1706W        W18554   9.805   0.172   0.161 -0.1637 -0.1598  0.0635
 1707W        W18555  15.827   8.655   2.061 -0.2309  0.2489 -0.1140
 1708W        W18556  14.750  16.813  17.809  0.1108  0.1475 -0.1331
 1709W        W18557  15.462   8.605  12.623 -0.3077  0.2692 -0.0480
 1710W        W18558  15.883  16.174   1.970  0.0521  0.2826 -0.3214
 1711W        W18559  15.936   7.485   4.226 -0.2586  0.1198 -0.0945
 1712W        W18560   6.542   8.090   4.728 -0.3555  0.1201 -0.2257
 1713W        W18561   2.778  15.639   3.588  0.2363 -0.0353  0.2540
 1714W        W18562   6.947  16.232   0.098  0.0043 -0.1258  0.1971
 1715W        W18563   7.414  13.744   0.736 -0.1983  0.1612  0.0167
 1716W        W18564   1.581   9.094   3.003  0.1409 -0.1428  0.1378
 1717W        W18565   2.782   8.755   1.163  0.0634  0.3281  0.2668
 1718W        W18566   7.984  10.619   5.110 -0.2703  0.1394 -0.1392
 1719W        W18567  14.606   8.477  16.465 -0.0287 -0.3169 -0.2257
 1720W        W18568  16.591   9.462  13.398  0.0541  0.0558  0.1514
 1721W        W18569  10.211   2.893  13.138  0.2562 -0.2190  0.2875
 1722W        W18570  15.697   3.245   1.313 -0.2405 -0.1818 -0.1444
 1723W        W18571   2.931   1.669   1.014  0.1746 -0.0417  0.4485
 1724W        W18572   0.537  12.968   0.621  0.1602 -0.0400 -0.0981
 1725W        W18573  15.092  14.084  15.400  0.0117  0.0829 -0.2915
 1726W        W18574  17.047  13.684  13.239 -0.0343 -0.1657 -0.1457
 1727W        W18575   6.057   5.033   3.123  0.1523 -0.1107  0.2527
 1728W        W18576  14.391  10.486   5.908 -0.0033  0.0221  0.0086
 1729W        W18577   3.392   8.487  15.586 -0.2287  0.1584  0.0457
 1730W        W18578  14.587  10.804  17.437  0.0052  0.0668  0.1336
 1731W        W18579  12.261   9.540  13.335 -0.1356 -0.4291  0.1848
 1732W        W18580  10.559   1.505   3.378  0.0640  0.0029  0.3813
 1733W        W18581   8.026   7.657  12.416  0.0209  0.0268 -0.0542
 1734W        W18582   9.163   6.654   1.018 -0.0126  0.0390 -0.2531
 1735W        W18583   8.772   8.521   2.528 -0.0193 -0.1172  0.1389
 1736W        W18584   8.880   7.641   5.606  0.1860  0.2979 -0.3330
 1737W        W18585   2.664  13.049  12.528  0.3428 -0.0049 -0.2358
 1738W        W18586   9.648   8.282  15.963 -0.1049  0.0257  0.0347
 1739W        W18587   5.889  14.315  14.058 -0.1389  0.1194 -0.0165
 1740W        W18588   7.236  14.890  14.325 -0.0492  0.2609  0.0858
 1741W        W18589  10.470   0.576  14.369 -0.0176  0.2429 -0.1418
 1742W        W18590   0.987  17.001   1.962  0.0756  0.0734 -0.1010
 1743W        W18591   3.047   6.036   1.653  0.0236 -0.2230 -0.3083
 1744W        W18592   3.022   7.030  16.656 -0.1576  0.0633  0.3047
 1745W        W18593   1.725   6.121   2.149  0.1449  0.2932 -0.1648
 1746W        W18594  14.007  11.312  16.083  0.2361 -0.3340 -0.1301
 1747W        W18595  14.850  16.732   0.855  0.2067  0.1620 -0.1929
 1748W        W18596  13.625   7.634   5.797 -0.4534 -0.0964  0.3944
 1749W        W18597  16.213   3.761  16.274  0.0563 -0.1857  0.0013
 1750W        W18598   7.129  15.845   4.122  0.1629 -0.1763  0.2854
 1751W        W18599  13.861   6.190  13.818 -0.0673  0.0235 -0.1931
 1752W        W18600  16.739   2.254  13.591 -0.2614 -0.2540  0.1826
 1753W        W18601  11.260  11.585  16.531  0.0598 -0.2166 -0.0854
 1754W        W18602   4.189   0.457  15.245  0.0388  0.1675  0.2848
 1755W        W18603  14.038  11.575   1.493  0.2540  0.2502 -0.3268
 1756W        W18604   6.620   2.743   4.973  0.0345 -0.0067  0.0649
 1757W        W18605   6.391   6.565   0.962 -0.3520  0.0049 -0.3592
 1758W        W18606   4.912  15.937  16.512 -0.1200 -0.1165  0.1449
 1759W        W18607   8.850   1.081   2.393  0.1124  0.1555 -0.0845
 1760W        W18608   9.890   2.913   1.240  0.2049 -0.1282 -0.0787
 1761W        W18609   3.368   4.223  15.373  0.1391 -0.1368 -0.1300
 1762W        W18610   3.580   6.780   1.164 -0.2131  0.0273  0.2505
 1763W        W18611   3.432  13.942  14.621  0.0555  0.0305  0.2007
 1764W        W18612  15.485   7.830  13.044  0.1515 -0.0303 -0.0330
 1765W        W18613   0.272   2.328  17.227  0.1280  0.1034 -0.0352
 1766W        W18614  13.295   2.809  17.341 -0.0710 -0.0996 -0.3117
 1767W        W18615  14.737   9.336  16.238  0.3628 -0.2352 -0.1354
 1768W        W18616   1.440   5.497   2.659  0.0273 -0.1666  0.2472
 1769W        W18617  10.542  15.032   2.068 -0.2705 -0.0381 -0.3135
 1770W        W18618   9.437   6.396   0.624  0.0813  0.3389 -0.0216
 1771W        W18619   9.481   1.720   0.826  0.2801  0.1324 -0.0233
 1772W        W18620   8.095   1.429  17.278 -0.0732 -0.1644  0.1224
 1773W        W18621  13.813   4.900  13.567  0.1766  0.0871 -0.1779
 1774W        W18622   8.664  12.300   0.473 -0.1157  0.1125  0.2433
 1775W        W18623   5.805  15.354  15.762 -0.0855 -0.0998 -0.0122
 1776W        W18624   1.956  13.671   2.867 -0.0878  0.0694  0.0063
 1777W        W18625   5.820  11.620  17.743 -0.0682 -0.0948 -0.1228
 1778W        W18626   2.573   6.158   0.359 -0.0819 -0.2672 -0.1676
 1779W        W18627   1.486   3.863   4.440  0.1128 -0.0088  0.2396
 1780W        W18628  15.039   8.408  12.929  0.0725  0.1258 -0.0713
 1781W        W18629   0.711   0.180   1.636  0.0329 -0.0794  0.1806
 1782W        W18630   0.612   0.885   0.484 -0.1570 -0.0558  0.0532
 1783W        W18631   1.688   1.951  11.429 -0.1763  0.1875 -0.2000
 1784W        W18632  15.065   1.506   3.598 -0.2566 -0.2631 -0.2793
 1785W        W18633   9.178   7.967  15.881 -0.2231 -0.0315  0.1366
 1786W        W18634   2.476   7.694   6.115  0.1889 -0.0508  0.1291
 1787W        W18635   8.623   9.864   3.426 -0.0418 -0.3908  0.0239
 1788W        W18636  15.439   2.395   3.005 -0.0334  0.0162  0.1330
 1789W        W18637   1.863   9.411  12.569  0.1855 -0.2257 -0.0305
 1790W        W18638  13.355  15.938  15.443  0.1302  0.0832 -0.1083
 1791W        W18639   7.834  11.767   5.658 -0.4610  0.0160 -0.0329
 1792W        W18640   1.904   7.703  12.448 -0.1910 -0.0815  0.1304
 1793W        W18641  15.772   9.101   1.183  0.1856  0.0500  0.0755
 1794W        W18642   6.233   3.197   6.532  0.2346  0.1660 -0.1849
 1795W        W18643   9.350   1.607   0.128 -0.0337  0.2550 -0.0385
 1796W        W18644   6.248   4.552   0.007 -0.1783  0.0326  0.1308
 1797W        W18645   2.643   5.769  12.966  0.1098 -0.1281  0.3621
 1798W        W18646   0.066  16.579  14.735 -0.0289 -0.1526  0.0382
 1799W        W18647  15.946   7.034  14.516 -0.0231 -0.0012 -0.1542
 1800W        W18648   3.082   6.593   1.153  0.0349  0.1863 -0.0635
 1801W        W18649  15.027   9.189   2.478  0.4379 -0.0509  0.0273
 1802W        W18650  11.495  11.089   5.957  0.0104 -0.0451 -0.1867
 1803W        W18651   5.924   3.359   0.320 -0.2491  0.2012 -0.1890
 1804W        W18652   1.106  13.387  16.116  0.0537  0.0802 -0.0682
 1805W        W18653  12.642   0.341  11.714  0.4579 -0.1728 -0.1145
 1806W        W18654  12.792  10.491   4.259 -0.1167  0.1318  0.0376
 1807W        W18655   2.804   8.317   1.362  0.0249  0.2366  0.1341
 1808W        W18656   4.552   8.377   1.199  0.0267  0.2088 -0.2388
 1809W        W18657   6.032   8.597  16.866 -0.1302 -0.2642 -0.3156
 1810W        W18658   0.142  15.362   3.866 -0.0417  0.3600  0.0265
 1811W        W18659   9.529   1.803   3.924  0.1407 -0.1332  0.0448
 1812W        W18660  11.783  15.895  12.298 -0.0188 -0.0892  0.0554
 1813W        W18661   7.381  13.297   5.099  0.1053  0.2556 -0.0485
 1814W        W18662  11.345  12.653  14.837 -0.1854  0.1335  0.1901
 1815W        W18663   1.734   8.064   3.495 -0.1165  0.2822 -0.0096
 1816W        W18664  13.454  11.653  15.191 -0.4332 -0.1164 -0.0660
 1817W        W18665  15.514   0.255  14.734 -0.1290  0.0950 -0.0967
 1818W        W18666  10.394   5.100   4.235 -0.0436  0.0201 -0.1345
 1819W        W18667   3.639   1.553   1.675 -0.0143  0.2810 -0.0601
 1820W        W18668   1.216  16.245  15.082 -0.4033  0.0228 -0.1388
 1821W        W18669  13.191  12.524   3.914  0.3223 -0.3007 -0.2036
 1822W        W18670   1.902   9.055  15.089  0.2222  0.0828 -0.0205
 1823W        W18671   0.547  16.401  13.888  0.3545 -0.0413  0.0341
 1824W        W18672   4.709   3.361   1.064 -0.0487  0.0744 -0.0406
 1825W        W18673  13.607  11.497   0.047 -0.0842 -0.1077 -0.0472
 1826W        W18674   3.641  16.623   0.515  0.1545 -0.0111  0.5286
 1827W        W18675   6.503  17.046  14.199  0.0568  0.1102 -0.1479
 1828W        W18676   4.553   7.104   4.317  0.0900 -0.1337  0.1708
 1829W        W18677  16.218   9.952  12.114 -0.2381  0.4796 -0.0257
 1830W        W18678   0.701  16.797  13.667  0.0402 -0.0725  0.0373
 1831W        W18679  16.137  12.540  14.929 -0.1166 -0.0974  0.0649
 1832W        W18680  10.180   8.180  16.869  0.0069  0.0049  0.0677
 1833W        W18681   0.317   5.001  16.880 -0.0547  0.0307  0.2227
 1834W        W18682   2.273  16.913  16.005  0.3989  0.0602 -0.1688
 1835W        W18683   0.734   7.118  14.799 -0.2630 -0.1690  0.1417
 1836W        W18684   1.785   2.986   0.769  0.1522 -0.1704  0.0773
 1837W        W18685   1.090  15.826  15.956 -0.1624  0.0598  0.1485
 1838W        W18686   1.643   6.773  15.778  0.1619  0.0498  0.1102
 1839W        W18687   3.381   6.913   5.636  0.0254  0.0771  0.2381
 1840W        W18688  13.847  15.359  13.301  0.2497 -0.0302 -0.1400
 1841W        W18689  13.224  10.412  17.428  0.2357  0.4108  0.0378
 1842W        W18690  11.349   9.632   1.740  0.1043  0.0403 -0.1976
 1843W        W18691   4.317   8.706   2.508 -0.0823  0.1099 -0.1701
 1844W        W18692  12.441  11.132   1.674 -0.0867  0.1707 -0.0881
 1845W        W18693  10.542   0.788  15.763  0.1991 -0.0916 -0.2851
 1846W        W18694   8.652  14.871  12.604  0.2226 -0.2989 -0.0920
 1847W        W18695  13.506   1.408   0.099 -0.0448 -0.1388 -0.2720
 1848W        W18696  13.652  11.135   4.457 -0.0185  0.1052  0.3551
 1849W        W18697  11.383  16.869  11.286  0.0882 -0.0796 -0.0877
 1850W        W18698  17.063   0.782   0.389 -0.0430  0.1235  0.1281
 1851W        W18699   3.196   5.525  13.987  0.2126  0.2363  0.4055
 1852W        W18700   2.895   7.577   4.030  0.1300 -0.2113 -0.1012
 1853W        W18701   1.931  10.373   2.723  0.0188 -0.2005 -0.1022
 1854W        W18702   2.922  15.882   1.113 -0.0521 -0.0807 -0.1245
 1855W        W18703   0.062   6.877   2.632  0.1466 -0.1273  0.0137
 1856W        W18704   8.097  16.144   1.964 -0.2209  0.1881 -0.0762
 1857W        W18705   8.733  16.289   0.732  0.0373  0.0044  0.2204
 1858W        W18706   1.068  16.474   1.618  0.2521 -0.0444  0.0513
 1859W        W18707  14.942   5.581   3.460 -0.0120  0.3136  0.0516
 1860W        W18708  14.716  11.887   1.010  0.0665  0.2234 -0.0734
 1861W        W18709   4.499   6.114   5.129 -0.1385  0.1537 -0.0660
 1862W        W18710  13.989   3.224  16.024 -0.0244 -0.3397  0.1909
 1863W        W18711   1.656   8.401  15.525  0.1204 -0.2913  0.1926
 1864W        W18712  10.416  15.861  11.318  0.0072  0.0856 -0.2009
 1865W        W18713   7.721   3.087  17.126 -0.0476  0.2196  0.1060
 1866W        W18714   2.866   0.783  12.956 -0.1696  0.1130  0.1808
 1867W        W18715   1.719   9.424  13.526 -0.0112 -0.0132  0.0151
 1868W        W18716   6.757   1.348   0.151  0.1247 -0.2010  0.0986
 1869W        W18717  10.544  15.174  14.685  0.0127  0.1436 -0.0072
 1870W        W18718  14.522   0.004   1.049  0.2601  0.0309  0.0700
 1871W        W18719   9.258   8.320  15.528 -0.4072 -0.0079  0.1561
 1872W        W18720  15.603  11.478   2.560 -0.1034 -0.2196  0.1661
 1873W        W18721   6.540   1.033   3.829  0.1684  0.3233 -0.0906
 1874W        W18722  12.690   2.139  12.157 -0.2512 -0.1149 -0.0746
 1875W        W18723   5.204  16.017  15.529  0.0992 -0.1613  0.0560
 1876W        W18724   3.405   6.467  14.043 -0.0745  0.1758 -0.2088
 1877W        W18725  13.967   8.509  13.791  0.2478 -0.1248 -0.1120
 1878W        W18726   1.452   9.936  13.629 -0.1696 -0.3055 -0.1209
 1879W        W18727   6.947   9.686  13.553 -0.1420 -0.0667 -0.0355
 1880W        W18728   5.130   2.765  13.029  0.0009  0.1161  0.1565
 1881W        W18729  13.265   2.613  15.676  0.2476 -0.1951  0.1622
 1882W        W18730  16.686   0.119  12.987  0.1369  0.0020  0.0804
 1883W        W18731   1.863  11.371  12.322 -0.2528  0.2533  0.1009
 1884W        W18732  14.789   1.556   0.275 -0.1209  0.1327  0.1108
 1885W        W18733   6.731  14.664   3.563  0.0864  0.1205 -0.0131
 1886W        W18734  13.692   9.308  16.153 -0.2703 -0.1055  0.2681
 1887W        W18735   2.191   7.914   1.323 -0.1659  0.0625 -0.4001
 1888W        W18736   2.419  13.505  17.369 -0.0911 -0.0013 -0.1699
 1889W        W18737   5.158  12.104  17.724 -0.3945  0.3321 -0.2445
 1890W        W18738  10.402   6.313   3.823  0.0853 -0.0096 -0.3245
 1891W        W18739  14.491   2.810  14.725 -0.0440  0.0522  0.0888
 1892W        W18740   1.971   4.286  17.142 -0.2525 -0.1084  0.0388
 1893W        W18741   0.842  13.001   0.998  0.1065 -0.3609  0.3547
 1894W        W18742   2.766   3.146   4.222  0.1578  0.3312 -0.0693
 1895W        W18743   5.181   0.100   4.636  0.0407 -0.1787  0.0430
 1896W        W18744   9.457   1.045  14.937  0.2128 -0.2564 -0.2386
 1897W        W18745   2.011   2.957  15.012  0.2054  0.2168  0.2754
 1898W        W18746  14.149   9.328  13.695 -0.0850 -0.0216  0.0164
 1899W        W18747  12.622   3.408  15.916 -0.2618  0.0361 -0.1355
 1900W        W18748   9.086   5.089   0.887 -0.0579 -0.3093  0.1171
 1901W        W18749   3.814   7.731  17.156 -0.2198  0.2144 -0.0525
 1902W        W18750   2.308   6.062   5.677  0.0356  0.1635  0.1570
 1903W        W18751   9.104  13.638   4.918  0.0020 -0.0256 -0.0367
 1904W        W18752   4.694  15.962   0.778  0.0229  0.0229  0.4733
 1905W        W18753  13.022  11.445   3.695  0.0346 -0.0434  0.2868
 1906W        W18754  11.481  14.621   5.201 -0.0575 -0.0167 -0.2285
 1907W        W18755   3.394  10.982  14.863  0.2879  0.1770 -0.2112
 1908W        W18756   8.677   0.651  13.044  0.3202 -0.1758  0.1008
 1909W        W18757   7.699  12.957   0.169 -0.2684 -0.0102  0.2290
 1910W        W18758  15.167   4.213   3.528 -0.2778  0.0148 -0.2478
 1911W        W18759  11.389  12.793  14.123 -0.2999  0.0725 -0.1273
 1912W        W18760   2.573  13.596  16.910 -0.1600 -0.2927  0.0397
 1913W        W18761  10.706   5.656   0.103 -0.1615  0.4273  0.3492
 1914W        W18762   9.804   3.345   5.060 -0.0794  0.0230 -0.1885
 1915W        W18763   4.151   3.298   6.537  0.0931 -0.0256 -0.0640
 1916W        W18764   0.985  15.469   5.141  0.0557 -0.2466 -0.1423
 1917W        W18765   7.794   5.784  13.748  0.2335 -0.3572 -0.1431
 1918W        W18766   2.977   3.114   2.186 -0.0354 -0.2344 -0.2003
 1919W        W18767   0.223  15.485  16.867 -0.0848 -0.2280 -0.0766
 1920W        W18768   3.706   9.865  13.797 -0.3862  0.1675 -0.0122
 1921W        W18769   9.135  10.476  14.629  0.0251 -0.0485  0.1024
 1922W        W18770   2.359  14.325   2.310  0.4942 -0.0177  0.0262
 1923W        W18771  15.959   4.883  17.772  0.2701  0.1508  0.0562
 1924W        W18772   4.940  15.400  16.685  0.2685 -0.2105  0.0514
 1925W        W18773  15.364  12.432   5.555 -0.1650  0.1083  0.0089
 1926W        W18774   0.362  10.634  15.884 -0.3010  0.2694  0.2919
 1927W        W18775   4.562  14.850  12.168 -0.2113  0.0234  0.2710
 1928W        W18776   7.417  14.663   4.016 -0.2741 -0.0634 -0.0719
 1929W        W18777   7.858  14.806   0.904 -0.1439  0.1765  0.0469
 1930W        W18778   3.785   5.227   1.046  0.0801  0.1431 -0.3227
 1931W        W18779  11.259   1.528   1.507  0.3351 -0.1764  0.3271
 1932W        W18780  14.884  12.497  16.216  0.0827  0.0483  0.0325
 1933W        W18781   3.159  12.128  17.370  0.3214  0.2645  0.2181
 1934W        W18782  11.346  16.683  15.987  0.0171 -0.1948 -0.1340
 1935W        W18783   8.278   5.729  15.444 -0.0592 -0.0423  0.0625
 1936W        W18784   3.026   7.516   4.485 -0.0128 -0.0901 -0.0461
 1937W        W18785  10.091   4.815  13.073  0.1013 -0.0842 -0.2462
 1938W        W18786   0.710   3.906   5.088  0.0996  0.0841 -0.0098
 1939W        W18787   4.307   1.870  15.510  0.2661 -0.1508 -0.0817
 1940W        W18788  11.782  14.529   4.353 -0.2256 -0.0471  0.1163
 1941W        W18789   9.447   9.937  14.734 -0.0967  0.2318 -0.2726
 1942W        W18790  11.405   3.500   6.190  0.0635  0.2334  0.1805
 1943W        W18791  13.805   8.182   0.665 -0.0234  0.2535  0.3761
 1944W        W18792   0.741  12.394  16.472  0.1073  0.0726  0.2389
 1945W        W18793  12.282   0.102   3.328  0.1787 -0.2169 -0.3648
 1946W        W18794  11.711  13.297  16.357 -0.0758 -0.1472  0.2188
 1947W        W18795   5.151   1.569   2.433 -0.1777 -0.0089 -0.0613
 1948W        W18796   4.007  10.419   1.715 -0.0111 -0.1964 -0.1044
 1949W        W18797  13.235   5.934  17.622  0.0481 -0.1879 -0.0500
 1950W        W18798  11.994   6.693   2.259  0.1502 -0.2170  0.1090
 1951W        W18799   0.046  13.748  16.833 -0.4997 -0.0099  0.0010
 1952W        W18800   4.670  14.486  11.119  0.0865 -0.2774 -0.1066
 1953W        W18801   1.867   3.214  15.400  0.1200 -0.1301 -0.0398
 1954W        W18802   3.390   7.566  14.020 -0.1648  0.2574 -0.1085
 1955W        W18803   7.176  10.112  17.011  0.2731  0.1443 -0.1921
 1956W        W18804   1.302   2.137   4.560 -0.3673  0.4149  0.1529
 1957W        W18805   5.097  10.165   4.526  0.2987  0.0213  0.0238
 1958W        W18806  12.025  14.192  16.220  0.2058  0.0087  0.1785
 1959W        W18807   5.212   2.122   1.383 -0.2391  0.0235 -0.2595
 1960W        W18808   6.060  15.588  14.804  0.4266  0.2052 -0.0438
 1961W        W18809   8.370  12.667  16.167 -0.0237 -0.0670 -0.0161
 1962W        W18810   4.548   6.364   3.479 -0.1637 -0.0209  0.0033
 1963W        W18811   3.781   7.074  14.538 -0.2466 -0.1322 -0.0104
 1964W        W18812  15.208   1.159   1.511  0.2418  0.1122 -0.1316
 1965W        W18813   4.541  15.015   5.524  0.0307  0.0655 -0.1980
 1966W        W18814   5.865  16.171   3.663  0.1748 -0.0517 -0.4472
 1967W        W18815  14.551   3.271  15.524  0.1378  0.0095 -0.0296
 1968W        W18816   8.401  14.485  17.543 -0.0763  0.0294  0.1271
 1969W        W18817  10.945  15.839  12.553  0.3011  0.4062 -0.0148
 1970W        W18818   5.108   7.562  17.740 -0.2181 -0.2070 -0.2543
 1971W        W18819   9.427  14.343   2.344  0.1930  0.1530  0.0735
 1972W        W18820  12.321  12.821   5.065  0.1971 -0.2575  0.0431
 1973W        W18821  10.687  10.494  16.920  0.3368 -0.0471  0.1112
 1974W        W18822   3.677  13.583  14.893 -0.2106  0.0971 -0.4340
 1975W        W18823   1.802   5.258   0.051  0.1438  0.0597  0.0138
 1976W        W18824   2.731   7.924   4.747 -0.0678  0.0762  0.0219
 1977W        W18825   5.460  12.272  17.243 -0.0127  0.0565  0.0527
 1978W        W18826   0.811   5.013  13.470  0.0137 -0.0709 -0.4171
 1979W        W18827   6.752   3.152  12.071 -0.2272 -0.3332  0.1987
 1980W        W18828   9.664   0.896   0.730 -0.0335 -0.1541  0.1278
 1981W        W18829   0.131  13.130  11.797 -0.3899 -0.3007  0.0298
 1982W        W18830  10.348   0.383   3.848 -0.0172 -0.0744  0.1991
 1983W        W18831   5.067   5.339   5.804  0.0451 -0.2556  0.2108
 1984W        W18832  10.732   5.398  13.753  0.2403  0.0844 -0.2189
 1985W        W18833   1.944  13.650  17.610  0.2183  0.0803  0.0373
 1986W        W18834  13.626   5.438   4.197  0.0949 -0.0180 -0.1286
 1987W        W18835  15.976  15.142  16.563 -0.0662 -0.0015 -0.0237
 1988W        W18836   5.701   9.719  15.245  0.0628 -0.1935 -0.1484
 1989W        W18837   8.563  13.526   1.084  0.1246  0.1651  0.0826
 1990W        W18838  13.790   2.991  13.494  0.0580 -0.1537 -0.1024
 1991W        W18839  10.643   0.165  14.113 -0.0073 -0.0533  0.0778
 1992W        W18840   6.007  16.246  17.014 -0.0214  0.0967  0.0071
 1993W        W18841  12.298  12.562  16.594  0.3409 -0.1885 -0.0636
 1994W        W18842   5.070  16.963  11.192 -0.1508  0.0435 -0.0896
 1995W        W18843   3.213   7.795  15.895 -0.4156  0.0911  0.1785
 1996W        W18844   0.370  16.992   5.361  0.1665  0.0044  0.0223
 1997W        W18845   7.408  12.879  11.546  0.7548 -0.0807 -0.1037
 1998W        W18846  12.184   8.572   6.056 -0.0228 -0.3009 -0.0842
 1999W        W18847   5.843  15.670  12.795 -0.1035 -0.2798 -0.0088
 2000W        W18848   2.301   9.060  17.237  0.0023  0.1916  0.1323
 2001W        W18849   6.369   7.984  12.340 -0.0935  0.4039 -0.2902
 2002W        W18850   7.031  10.412  12.714 -0.1779 -0.0479 -0.0724
 2003W        W18851   9.324  13.037  15.036 -0.2158 -0.0866  0.2008
 2004W        W18852   5.311  11.866  16.020 -0.0949 -0.0003 -0.0628
 2005W        W18853   2.152  15.959   2.925  0.0057 -0.3705 -0.0208
 2006W        W18854   7.873   6.123   4.486  0.1097  0.2365  0.3426
 2007W        W18855  14.498   1.696  16.734  0.1158  0.1069 -0.2356
 2008W        W18856   1.258   1.558   3.417  0.1883 -0.0807 -0.0649
 2009W        W18857  14.912  12.467   5.130  0.1897 -0.0833 -0.0777
 2010W        W18858   3.465   7.704   2.724 -0.1938  0.2842 -0.1986
 2011W        W18859  10.571   5.820   3.779  0.3147  0.3379  0.2456
 2012W        W18860   5.001  15.474  17.760  0.2324  0.1174  0.2408
 2013W        W18861   5.005  12.276  15.781  0.0108 -0.2615  0.0823
 2014W        W18862  15.779   4.841   4.230  0.2441 -0.0874 -0.0528
 2015W        W18863  13.264  13.170   4.605  0.0458 -0.2449 -0.1612
 2016W        W18864  10.041   6.877  15.806 -0.0241  0.0292  0.0439
 2017W        W18865  12.635   3.095  11.772  0.2264 -0.3328  0.0115
 2018W        W18866  14.872  16.441   3.238  0.2107 -0.0591  0.2680
 2019W        W18867  16.302   0.159   0.367  0.0498 -0.0571  0.2408
 2020W        W18868  11.734   7.006  15.366 -0.3976 -0.1454  0.0819
 2021W        W18869   1.825   6.514   3.922 -0.2249 -0.1055 -0.1497
 2022W        W18870   7.194  11.143   0.355  0.1160 -0.3246  0.1311
 2023W        W18871   2.976  12.154  13.482  0.2290 -0.0043 -0.0744
 2024W        W18872   5.381  10.863  14.125  0.0701  0.1413  0.1137
 2025W        W18873  11.297  15.579   0.613 -0.2568 -0.3267 -0.2282
 2026W        W18874   2.058   0.931  13.879 -0.1122 -0.1908  0.0588
 2027W        W18875  14.885  15.639  17.847  0.0488 -0.1303 -0.2579
 2028W        W18876   8.096  15.602  16.636  0.0227  0.0448 -0.1552
 2029W        W18877   4.664   9.988  13.085 -0.0619  0.2475 -0.1060
 2030W        W18878   0.630  11.958   1.758 -0.3377 -0.2026  0.2819
 2031W        W18879  13.438  15.846   3.043  0.0014 -0.1111 -0.1773
 2032W        W18880   3.600  10.711  12.514  0.2991 -0.2077  0.2082
 2033W        W18881  15.136  15.215   0.589  0.1312 -0.2590 -0.0835
 2034W        W18882  12.783  11.568  16.946  0.0786  0.0359 -0.1824
 2035W        W18883  10.704  15.828   1.050  0.4184  0.0259  0.1200
 2036W        W18884   3.940  14.814  14.715  0.1166 -0.0161  0.2579
 2037W        W18885   6.050   5.266  12.524 -0.1556 -0.1586 -0.2385
 2038W        W18886   5.458   8.870  15.214 -0.3208 -0.1566  0.2344
 2039W        W18887   2.217  11.315  14.627 -0.0073 -0.0045  0.1275
 2040W        W18888  15.723   8.770   1.586 -0.2357  0.0615  0.0096
 2041W        W18889   0.064   2.335   0.922 -0.1229  0.2490  0.2355
 2042W        W18890   6.828   3.479   0.889 -0.0472  0.0158  0.3916
 2043W        W18891   0.893   6.186  15.712  0.4266 -0.2287 -0.1976
 2044W        W18892   9.410   7.096   0.249  0.2306 -0.1124 -0.0918
 2045W        W18893   1.521   3.413  12.335  0.3867  0.1869 -0.1904
 2046W        W18894   2.876  14.655  16.553 -0.2278 -0.2178 -0.1540
 2047W        W18895   7.059   0.088   0.077  0.0499 -0.0460  0.2876
 2048W        W18896   1.767  10.624   4.068  0.1316 -0.0356 -0.0594
 2049W        W18897  16.830   8.324  17.591  0.0482  0.0585  0.2819
 2050W        W18898   4.185  10.111  13.643  0.1122 -0.1744  0.2985
 2051W        W18899   2.489  11.393  16.314  0.1132  0.1635  0.0213
 2052W        W18900   0.610   2.625  13.705  0.1021 -0.0353  0.2548
 2053W        W18901   5.686  11.980   4.224  0.2737 -0.2569 -0.0195
 2054W        W18902   0.103   3.904   5.196  0.0242  0.0319  0.2869
 2055W        W18903   1.861   1.864   5.578 -0.0416 -0.0730  0.0221
 2056W        W18904   6.363   8.171   0.252  0.1050 -0.2169 -0.2531
 2057W        W18905  12.529   6.232   0.447 -0.0876  0.1723  0.0051
 2058W        W18906  11.245   4.917   3.327  0.1784 -0.0207  0.0367
 2059W        W18907   0.318   4.792   2.589  0.0074  0.2152 -0.1545
 2060W        W18908   5.567   1.441  16.937 -0.2609 -0.0135 -0.1127
 2061W        W18909  10.970  13.054  12.874  0.2098 -0.0731  0.1791
 2062W        W18910  10.512  10.221   4.331 -0.1530 -0.0336 -0.2264
 2063W        W18911   7.841  15.842   2.255  0.0705  0.1072 -0.0885
 2064W        W18912   6.754   8.559   4.676  0.1653 -0.0191  0.0444
 2065W        W18913   4.137  10.904   1.790  0.0724  0.1343  0.1456
 2066W        W18914  16.161   1.313  12.982  0.0682 -0.0057  0.2336
 2067W        W18915   3.309  15.828   1.976  0.3169 -0.1380 -0.1122
 2068W        W18916  16.503   4.714   6.880 -0.0759  0.0342 -0.3582
 2069W        W18917  10.731   5.321   1.066  0.0265 -0.1689 -0.1924
 2070W        W18918   2.942   7.420   1.359 -0.2339 -0.0210  0.0102
 2071W        W18919   4.633   0.040  13.175  0.2160  0.3167 -0.1849
 2072W        W18920   8.050   7.541  14.350  0.0578 -0.0028 -0.0029
 2073W        W18921   5.081  14.140   2.914 -0.0196  0.0555 -0.0433
 2074W        W18922   4.418   9.860   1.590 -0.2102 -0.0936 -0.1719
 2075W        W18923   2.876  10.325   3.611  0.1080  0.0981  0.0770
 2076W        W18924   0.648   9.022   3.131 -0.2385 -0.0893  0.1230
 2077W        W18925   3.295  14.974   4.987 -0.1562  0.0560 -0.1225
 2078W        W18926  10.975   0.190   4.876 -0.3548 -0.0794 -0.0645
 2079W        W18927   8.902  10.148   5.078  0.2347 -0.0165 -0.4337
 2080W        W18928   0.115  11.666  17.244  0.1573  0.0288  0.1651
 2081W        W18929   1.092   3.685   1.106  0.1833  0.0236  0.0985
 2082W        W18930   6.466   1.136  16.777  0.0451 -0.0717  0.3092
 2083W        W18931   7.087  12.817  16.108  0.1227  0.1491  0.1064
 2084W        W18932  12.816   2.559  17.065 -0.0580 -0.2303  0.1073
 2085W        W18933   3.787   5.947   4.605 -0.1385  0.1717  0.1393
 2086W        W18934  15.199   5.531   4.266 -0.0529  0.1842 -0.1149
 2087W        W18935   5.465  17.012   1.584  0.0805 -0.0965  0.3306
 2088W        W18936   6.634   4.310   5.718  0.1772 -0.2823 -0.0458
 2089W        W18937  10.079   1.552  15.742  0.0450  0.0389  0.2825
 2090W        W18938  11.349   6.121   4.823  0.3499 -0.0293  0.0714
 2091W        W18939   4.197   9.943   3.513 -0.1306 -0.2448 -0.0649
 2092W        W18940  14.194   7.251  14.250  0.1738  0.0002 -0.2109
 2093W        W18941  11.850  14.253  15.018  0.3285 -0.1077  0.2085
 2094W        W18942   9.459   2.035  17.223  0.0214  0.0371 -0.3663
 2095W        W18943  16.334  10.365   0.869 -0.1923 -0.0377  0.0411
 2096W        W18944   0.523   8.554  15.145 -0.2733 -0.1536  0.3291
 2097W        W18945   9.792  17.006  13.170  0.1498 -0.1422 -0.4209
 2098W        W18946   2.798  15.670  15.785 -0.0411 -0.1823  0.2147
 2099W        W18947   5.195   5.222   4.293 -0.4343  0.4199  0.0251
 2100W        W18948  15.047  10.014   3.582  0.3068  0.1099 -0.0669
 2101W        W18949  13.776   7.362  16.858  0.3006 -0.0259  0.0203
 2102W        W18950   7.803   5.951   0.535  0.1286 -0.1048  0.1521
 2103W        W18951   7.669   4.296  15.296  0.1281  0.1349  0.1401
 2104W        W18952   0.189  13.329   0.720  0.1149 -0.0360  0.0942
 2105W        W18953  15.792   6.399  12.575 -0.2515  0.3711  0.2574
 2106W        W18954   9.448  14.676   6.483 -0.1510  0.1204 -0.0526
 2107W        W18955   9.325  16.370  13.957  0.2774  0.0389 -0.1328
 2108W        W18956  16.861   3.064  13.690  0.0854 -0.2307 -0.3674
 2109W        W18957  15.329  11.296   1.271 -0.0652  0.2776  0.0018
 2110W        W18958   6.701   3.375  12.568  0.1155 -0.0859  0.0627
 2111W        W18959   8.194   2.828  17.776  0.0639 -0.0740  0.2019
 2112W        W18960  10.541   9.504  12.506  0.1369 -0.0964 -0.2666
 2113W        W18961   7.693   8.924  16.299 -0.0899 -0.0873  0.1462
 2114W        W18962   5.066  11.744   4.172  0.0800 -0.1762  0.2546
 2115W        W18963   7.945  15.750  13.192 -0.1051  0.0438 -0.3323
 2116W        W18964  13.176   0.794   5.119  0.0381 -0.0325  0.0276
 2117W        W18965  16.383  11.752   2.147 -0.0128 -0.0726 -0.0611
 2118W        W18966   8.373  12.681   0.235 -0.1318 -0.0394  0.0564
 2119W        W18967   2.816   3.705  14.330  0.0714  0.2701 -0.0265
 2120W        W18968   3.331   3.787  16.271 -0.0209 -0.0599 -0.0280
 2121W        W18969  13.366  12.332   4.703  0.1066  0.2467  0.2109
 2122W        W18970  13.916  13.511  11.548  0.0851 -0.3682 -0.1444
 2123W        W18971  10.409  10.715   1.504 -0.0238 -0.2815  0.1402
 2124W        W18972   3.444   9.216  14.064  0.2364 -0.1181  0.0772
 2125W        W18973   9.681   1.671   5.216  0.0046  0.0057 -0.1375
 2126W        W18974   0.060   1.210   4.185  0.1805 -0.0007  0.1554
 2127W        W18975  11.259   5.279  17.396  0.1303  0.2128 -0.0449
 2128W        W18976  15.884   7.477   0.743  0.1329 -0.2556  0.2428
 2129W        W18977  12.765  11.071   0.439  0.1476  0.2319 -0.2124
 2130W        W18978   0.965  15.205   3.452  0.0014  0.0680 -0.0161
 2131W        W18979  12.354   3.108   4.394 -0.3823  0.1570 -0.2910
 2132W        W18980  13.158  11.480  13.348 -0.2582  0.3802 -0.1737
 2133W        W18981   6.719   6.142   5.209 -0.4699  0.1110  0.1758
 2134W        W18982   4.056   7.819  13.317  0.0079 -0.0557 -0.3022
 2135W        W18983  15.842  14.588   4.805 -0.0505 -0.0319  0.0844
 2136W        W18984   2.828   1.249   5.082 -0.1991  0.3274  0.0107
 2137W        W18985  11.066   5.379   3.653 -0.0976  0.1558 -0.0662
 2138W        W18986   7.648  10.292  13.611 -0.0699 -0.1344  0.1130
 2139W        W18987  14.169  15.844   3.455 -0.1671  0.0261 -0.3710
 2140W        W18988   9.018  13.818  14.744  0.0586 -0.1016  0.0752
 2141W        W18989  13.235   4.522  15.610 -0.0777 -0.0379 -0.0292
 2142W        W18990   8.565   9.022  12.188 -0.2075 -0.2298 -0.3010
 2143W        W18991   7.631  12.548   5.287 -0.1542 -0.2176 -0.4285
 2144W        W18992   7.209  13.279  13.226 -0.0260  0.3943 -0.0868
 2145W        W18993   7.506   4.875   4.224  0.1791 -0.2304  0.0619
 2146W        W18994  10.212   5.973   1.700 -0.0072 -0.0254  0.1718
 2147W        W18995  11.662   0.209  12.726  0.1285 -0.0172  0.1045
 2148W        W18996  17.006  16.384   2.815  0.0100  0.0074  0.0427
 2149W        W18997   7.461   8.237  15.370 -0.0972 -0.0049  0.2042
 2150W        W18998  15.562  16.061  16.950  0.1934 -0.0786 -0.1078
 2151W        W18999   1.442   7.616   3.184 -0.0765 -0.0962  0.0210
 2152W        W19000   6.952   0.271   4.350 -0.3096  0.2095  0.0582
 2153W        W19001   4.074   6.760  13.642 -0.1846  0.0816 -0.0488
 2154W        W19002   1.540   7.061  15.184  0.1090  0.1751 -0.1120
 2155W        W19003   1.314   8.675  16.403  0.1876 -0.2535 -0.1450
 2156W        W19004  10.494   4.881   0.978 -0.3274  0.3046 -0.1379
 2157W        W19005  11.859   0.389  15.355  0.3522  0.1979  0.1282
 2158W        W19006  10.903   8.869   0.813  0.1248 -0.2284  0.0434
 2159W        W19007   4.108  12.085   4.284  0.0099  0.1085  0.0274
 2160W        W19008   7.424   4.047  13.254 -0.0644  0.0914 -0.0165
 2161W        W19009   3.672  12.976   4.444 -0.3415  0.1652  0.1069
 2162W        W19010  11.500  15.072   2.199 -0.2365 -0.0625  0.1904
 2163W        W19011   9.086   6.263   4.310  0.1225 -0.3455  0.0021
 2164W        W19012   1.809   8.454   2.164 -0.1820 -0.1167  0.0001
 2165W        W19013   1.279  10.629  15.638  0.5068  0.0942  0.2555
 2166W        W19014   8.164  12.328  13.601 -0.1510 -0.5008  0.3210
 2167W        W19015   9.170   8.020  13.070 -0.0204 -0.0813  0.1347
 2168W        W19016   6.934   2.602  12.919 -0.2401 -0.1438 -0.1336
 2169W        W19017  10.735  10.512   2.919  0.1976  0.1715 -0.0824
 2170W        W19018   0.936   6.007   0.795 -0.0754  0.0431  0.0981
 2171W        W19019   1.435  14.912  17.027  0.0586  0.1945  0.1666
 2172W        W19020  16.658  13.386   1.716 -0.0454 -0.2712  0.0461
 2173W        W19021  13.550  13.184   3.635 -0.2235  0.0823 -0.4587
 2174W        W19022   4.161   3.093   2.871 -0.1565  0.3825 -0.1954
 2175W        W19023   0.413   0.840   1.506 -0.1832 -0.2695 -0.2158
 2176W        W19024   5.449   4.464  15.139 -0.2060  0.0221  0.0586
 2177W        W19025   5.687   7.374  15.063 -0.1377 -0.2144  0.1345
 2178W        W19026   9.610   3.962  12.883  0.2418  0.1459 -0.0544
 2179W        W19027   6.200  11.759   4.811 -0.1782 -0.2181 -0.0177
 2180W        W19028  16.147   4.246   5.730 -0.1488  0.0246  0.0039
 2181W        W19029  13.642  11.191   2.686 -0.0487 -0.0237 -0.0485
 2182W        W19030   2.859   5.994  11.821  0.0545  0.2428  0.1652
 2183W        W19031   7.479   2.245   0.218 -0.0038 -0.0258  0.0256
 2184W        W19032   7.313   5.715   0.794  0.1108 -0.1626 -0.1307
 2185W        W19033   8.553   9.694  11.307  0.0314  0.0537 -0.0075
 2186W        W19034   1.356   5.180   1.028  0.1945 -0.1820 -0.0839
 2187W        W19035   9.091  11.778  12.417 -0.0717  0.4410 -0.0646
 2188W        W19036  11.180   9.198   1.555 -0.1823 -0.1105 -0.0731
 2189W        W19037  12.265   0.136  15.206 -0.1092 -0.0549  0.4541
 2190W        W19038  10.555   1.198  16.635 -0.0927  0.0996  0.1244
 2191W        W19039   1.187  12.483   3.232 -0.0151  0.0993 -0.1819
 2192W        W19040  15.351  15.142   4.583  0.2207 -0.3959 -0.2349
 2193W        W19041  16.992  15.277  13.831 -0.1833  0.1190 -0.2161
 2194W        W19042  14.174   8.304   0.967  0.0557  0.1007  0.5054
 2195W        W19043   5.234   4.895   1.967 -0.1414  0.2698 -0.2841
 2196W        W19044  12.474  14.532   1.899 -0.1249  0.2406  0.2612
 2197W        W19045   1.798  13.774  14.438 -0.0982  0.0277 -0.0066
 2198W        W19046  12.922  13.341  16.602 -0.0366 -0.3851 -0.1557
 2199W        W19047  16.375   3.550  13.612 -0.2901  0.0798 -0.1577
 2200W        W19048   7.652   0.358   6.294  0.1450 -0.1287  0.0065
 2201W        W19049   6.128   7.003   6.016 -0.1213  0.1394 -0.0073
 2202W        W19050   2.553  16.740  15.627  0.0722  0.2453 -0.0336
 2203W        W19051  10.132   9.695  14.278 -0.1346 -0.1135 -0.1603
 2204W        W19052   6.122   7.410  12.488  0.3245 -0.2002 -0.1413
 2205W        W19053   5.883   0.211   1.007  0.1055 -0.0023  0.0148
 2206W        W19054   9.455   5.301   3.142 -0.0378 -0.1005 -0.0965
 2207W        W19055   7.894  14.116  13.727 -0.1671 -0.0553 -0.1041
 2208W        W19056   8.170   8.404  14.746 -0.3800  0.2029 -0.1455
 2209W        W19057   4.953   5.280   3.551  0.0247 -0.2453  0.0501
 2210W        W19058   6.384  10.980   0.808 -0.0337  0.3483 -0.3130
 2211W        W19059   5.529  14.429  16.238  0.2278  0.2561 -0.0258
 2212W        W19060   2.840   7.143   4.231  0.2201 -0.0487  0.1712
 2213W        W19061   4.948   8.994   0.354  0.0129  0.0417  0.0180
 2214W        W19062   3.349   5.870  14.317 -0.0757  0.1813 -0.2665
 2215W        W19063   4.881   1.956  17.023  0.0094  0.1185 -0.0524
 2216W        W19064  13.395   3.233   3.056  0.0955 -0.0331  0.0493
 2217W        W19065  16.935   6.062  16.336 -0.1037  0.0249  0.0142
 2218W        W19066   0.742   9.562   0.057  0.1411 -0.1419  0.3632
 2219W        W19067   3.373  13.494  17.036 -0.0565 -0.1056  0.1466
 2220W        W19068   9.140  12.194   2.768  0.0220  0.1306  0.0599
 2221W        W19069   0.346  11.068  14.567 -0.2829  0.4054 -0.1039
 2222W        W19070   1.122   0.320  17.778  0.2301 -0.5965  0.1295
 2223W        W19071  12.714   7.384   1.610 -0.1022 -0.0135  0.0312
 2224W        W19072  10.931  12.506   3.547  0.0988 -0.1872  0.0980
 2225W        W19073  11.610  13.407  15.542  0.1357 -0.2862 -0.0250
 2226W        W19074   3.288   9.071  14.984  0.1035 -0.2768  0.0896
 2227W        W19075   2.400  11.549   3.260 -0.0538  0.2847  0.1449
 2228W        W19076   5.777  10.843  14.764 -0.3196 -0.2859  0.1557
 2229W        W19077   9.487  13.461  12.876  0.1722 -0.1018 -0.1299
 2230W        W19078  12.624   8.822   0.426  0.1050  0.0050 -0.1895
 2231W        W19079   6.554  13.599   1.677 -0.0405 -0.0335 -0.0323
 2232W        W19080   4.963   1.036  15.065  0.2074 -0.0709 -0.0484
 2233W        W19081   2.869  11.659  17.400  0.0754 -0.0649  0.0920
 2234W        W19082   6.483   1.766  16.807  0.1809  0.0760 -0.0503
 2235W        W19083   3.230   4.440  16.302 -0.0185  0.4439 -0.0905
 2236W        W19084  16.422   2.001   2.596  0.0045  0.0203  0.1109
 2237W        W19085   1.492   6.301  15.998  0.2373 -0.2384 -0.0814
 2238W        W19086  13.750   9.928  14.335 -0.0437 -0.2103 -0.1518
 2239W        W19087   3.371   8.026   2.307 -0.0218  0.0478  0.3916
 2240W        W19088   4.318  15.404  12.733  0.0735 -0.0668 -0.0504
 2241W        W19089   0.203   1.947  15.852  0.0153 -0.1323  0.0808
 2242W        W19090   6.849   7.110  12.296 -0.1769  0.1540  0.0174
 2243W        W19091   1.413   5.767   0.984 -0.0837 -0.1252  0.2908
 2244W        W19092  16.232   7.878   2.686  0.1936  0.2199 -0.1538
 2245W        W19093   8.841  15.668   5.306 -0.1263 -0.1002 -0.0982
 2246W        W19094  12.436  11.830   3.841  0.0046 -0.3436 -0.1766
 2247W        W19095  14.096   0.986  12.172  0.0285 -0.4590  0.1923
 2248W        W19096   6.719  13.391  14.972 -0.0837 -0.3575  0.0819
 2249W        W19097   9.047  12.772   4.636 -0.0836 -0.0165  0.3649
 2250W        W19098   8.021  12.703  17.285 -0.0219 -0.2260 -0.0589
 2251W        W19099  14.214   8.337   4.933 -0.0559 -0.1858  0.1239
 2252W        W19100  16.614  12.270  14.841  0.3623  0.3261  0.2995
 2253W        W19101  15.111  13.304   3.250  0.1593  0.2303  0.1865
 2254W        W19102   9.935  10.009  17.161  0.1043 -0.0474 -0.0405
 2255W        W19103  12.158   0.628  15.005 -0.1918  0.2073  0.3751
 2256W        W19104   8.593  13.287   3.250  0.0270  0.0620 -0.2778
 2257W        W19105  12.952  15.740  13.780 -0.0129  0.3492  0.0600
 2258W        W19106   7.597  10.706   1.814 -0.3778 -0.0297 -0.1155
 2259W        W19107   3.066   1.433  17.272 -0.1753  0.1934  0.1628
 2260W        W19108  11.353   5.644  12.809 -0.0198  0.3829 -0.0238
 2261W        W19109   7.870  10.916   5.511  0.0698  0.0070  0.0575
 2262W        W19110   0.882  12.773  16.176 -0.0168 -0.1365  0.1701
 2263W        W19111  15.908   2.969  14.766 -0.0600  0.0729 -0.0755
 2264W        W19112   2.376  16.651   4.451  0.1614 -0.0179 -0.1401
 2265W        W19113  12.212  10.120   1.193  0.0823  0.3991  0.1468
 2266W        W19114  12.818   7.391   5.119  0.0866 -0.0803 -0.1545
 2267W        W19115   7.851   7.941  12.812 -0.0177  0.0282  0.0614
 2268W        W19116   1.537  13.416   2.374 -0.1511 -0.1767 -0.2405
 2269W        W19117   7.160   7.801  14.029  0.0945  0.0578 -0.0107
 2270W        W19118   2.495   4.763   5.336 -0.3018 -0.2082  0.0531
 2271W        W19119   1.723  13.882   5.080  0.0473 -0.0053 -0.0038
 2272W        W19120   4.354  11.632  14.952  0.1547 -0.2153 -0.1335
 2273W        W19121   5.288   9.147   6.200 -0.1396  0.2189 -0.0723
 2274W        W19122   7.011   2.453   3.346 -0.0382 -0.3115 -0.1879
 2275W        W19123  15.781   8.235   5.817 -0.0157  0.2138  0.0151
 2276W        W19124   7.503   4.809   3.202 -0.1340 -0.1218 -0.1713
 2277W        W19125   0.037  12.248   4.935  0.0701  0.0344  0.0605
 2278W        W19126   4.887  11.323  14.705  0.3036 -0.1546 -0.2760
 2279W        W19127   5.629  14.256   1.086  0.1440  0.1196  0.0521
 2280W        W19128   9.505   0.924  17.038 -0.0267 -0.1917 -0.2084
 2281W        W19129   0.053  12.693  12.640  0.1977  0.1247 -0.1288
 2282W        W19130   2.523   9.881   2.640 -0.0506 -0.0936 -0.5046
 2283W        W19131   6.560  11.872  13.183  0.1059 -0.0199 -0.0893
 2284W        W19132   1.520   9.629   0.751 -0.0633 -0.1238 -0.0783
 2285W        W19133  13.458   1.079   0.854 -0.0465 -0.0893 -0.0890
 2286W        W19134  16.241   3.413   0.583 -0.1901 -0.4092 -0.0377
 2287W        W19135   3.214   8.478   1.962  0.0231  0.2519  0.3313
 2288W        W19136  10.292  11.515  13.324  0.1633 -0.2052 -0.1950
 2289W        W19137   7.765  13.109  16.546 -0.2584 -0.0841 -0.1806
 2290W        W19138   7.295  11.997   1.590 -0.0680  0.3330  0.0170
 2291W        W19139  15.497   7.037  13.610  0.1416 -0.3429  0.4568
 2292W        W19140   1.542   1.993   2.991 -0.2655  0.0420  0.1766
 2293W        W19141  10.828   6.037  17.561 -0.0871  0.1216  0.1025
 2294W        W19142   1.757   9.579  14.938 -0.1837  0.0634 -0.3089
 2295W        W19143   1.962  13.576  13.795 -0.0466 -0.1415  0.4099
 2296W        W19144  13.251   3.739   4.333  0.3370  0.2571  0.0124
 2297W        W19145  12.989   0.528  16.446  0.1293  0.0037 -0.2922
 2298W        W19146   6.656  11.458  13.566 -0.1674 -0.2920  0.3662
 2299W        W19147   1.904  13.135   2.077  0.1148 -0.0298 -0.4234
 2300W        W19148   6.054   8.590  16.388 -0.1408 -0.1871  0.0946
 2301W        W19149   4.363  10.583  16.808  0.0545  0.0016  0.1425
 2302W        W19150   1.922  15.642  15.540 -0.1412  0.0993 -0.1041
 2303W        W19151  16.372   1.676   5.030  0.0345 -0.1516 -0.3680
 2304W        W19152   0.592   1.126   5.422  0.2358 -0.1793 -0.0120
 2305W        W19153   3.199  13.142   4.461  0.3376  0.0963  0.1363
 2306W        W19154   8.164  10.275   1.393  0.1159 -0.0328  0.3942
 2307W        W19155  16.929  16.378  12.973 -0.5075  0.2170  0.3009
 2308W        W19156  15.437   3.003  15.800  0.0548 -0.0953 -0.1816
 2309W        W19157   7.248  13.898  16.326  0.0185 -0.2443 -0.1715
 2310W        W19158  14.871  15.094  14.985 -0.1467 -0.0841 -0.0943
 2311W        W19159   7.945  16.747   1.213  0.1029  0.0386  0.1734
 2312W        W19160   3.433  14.872  14.504 -0.1870 -0.1491 -0.0375
 2313W        W19161   0.355   3.559   4.370 -0.2258 -0.0613 -0.2238
 2314W        W19162   0.712  13.227   5.284  0.1700  0.0341 -0.1932
 2315W        W19163  10.504   9.289   3.837 -0.1247  0.3921  0.3084
 2316W        W19164   4.890  17.028   2.460  0.0456 -0.0032 -0.2149
 2317W        W19165   2.165  15.262  13.070  0.2242 -0.0653  0.1053
 2318W        W19166  10.345   0.622  16.642  0.0653 -0.1123  0.0974
 2319W        W19167  16.632   2.059  16.639 -0.0239 -0.1955  0.2651
 2320W        W19168   7.162   4.876  12.270  0.0497  0.2597  0.1058
 2321W        W19169  14.049   1.181   5.131 -0.1459 -0.5127 -0.2260
 2322W        W19170   0.692  14.669  13.678  0.2872 -0.2742  0.1106
 2323W        W19171   2.596   3.346  17.747 -0.2782 -0.1042 -0.1721
 2324W        W19172  16.120   5.822  15.934 -0.1647  0.1161  0.2926
 2325W        W19173   6.929   0.190   3.528 -0.1123 -0.0803  0.1983
 2326W        W19174   9.356  14.683  13.939  0.3200  0.2398  0.1667
 2327W        W19175   6.252   1.819   4.402  0.1169  0.0819  0.0847
 2328W        W19176  10.288  13.605   5.838 -0.2202 -0.0040 -0.2032
 2329W        W19177   4.598   8.723  14.958  0.0932 -0.1462 -0.0038
 2330W        W19178   1.548   6.509  15.347 -0.0456  0.0561  0.0435
 2331W        W19179   6.183  16.814   5.968 -0.0894  0.0258 -0.0659
 2332W        W19180  15.431   0.269   3.765 -0.0181  0.1806  0.0838
 2333W        W19181   0.554  14.471  15.469  0.0361  0.2642 -0.2180
 2334W        W19182   6.936  16.468  12.473 -0.0236 -0.0188 -0.2410
 2335W        W19183  13.187  11.208  14.344  0.1784  0.0028 -0.2280
 2336W        W19184  10.244  10.635  13.974 -0.1879  0.3117 -0.0222
 2337W        W19185  11.429   7.728  16.590 -0.0430  0.1738 -0.2406
 2338W        W19186   2.837   4.633   2.921  0.2806  0.5246  0.1856
 2339W        W19187  13.703   3.803   0.720 -0.3081 -0.1345  0.1350
 2340W        W19188  10.902  10.944  12.890  0.0209  0.2688 -0.0019
 2341W        W19189   7.685   7.703  14.853  0.0475 -0.0819 -0.0977
 2342W        W19190   9.425   7.846   5.581  0.3857 -0.3097  0.0219
 2343W        W19191   9.473  11.485  16.501 -0.0306  0.0945  0.1634
 2344W        W19192   8.926  15.257   3.357 -0.0303  0.2394 -0.0573
 2345W        W19193  11.131   2.409   2.599 -0.1585  0.0489  0.0068
 2346W        W19194  11.187   9.736  13.205  0.1321  0.1479  0.0719
 2347W        W19195   6.395   5.900  16.594 -0.2606 -0.1276 -0.1798
 2348W        W19196   9.314  12.054   5.798 -0.3953  0.1540 -0.1552
 2349W        W19197   7.832  16.014   3.452  0.0456  0.1698  0.1435
 2350W        W19198  16.917   7.431   0.803 -0.3868  0.0822  0.2252
 2351W        W19199  15.269  10.802   1.418 -0.2228  0.1567 -0.1460
 2352W        W19200   1.979   1.686   3.489  0.0562 -0.2636  0.1324
 2353W        W19201   8.957   5.704   5.392  0.3490  0.2644  0.2759
 2354W        W19202   0.895   8.391  14.695  0.1188  0.1994 -0.1959
 2355W        W19203   8.659  16.272   5.624  0.0359 -0.0785 -0.0659
 2356W        W19204  13.682   6.595  15.954  0.0196 -0.2253  0.2237
 2357W        W19205   2.049  14.931  16.645  0.2860 -0.2309 -0.1058
 2358W        W19206  10.230   2.904  13.763  0.1817 -0.0502  0.1354
 2359W        W19207   0.118   8.283   3.321  0.1216  0.1165 -0.0255
 2360W        W19208   4.263   5.114   1.071 -0.2500  0.1619 -0.2504
 2361W        W19209   7.984   4.012   4.335 -0.0636  0.0769  0.0676
 2362W        W19210   2.310  14.566   4.849 -0.0914  0.0522  0.1177
 2363W        W19211   3.153  16.907  12.204  0.0334 -0.3651  0.0716
 2364W        W19212   4.940  14.261   1.928 -0.1179 -0.2714 -0.1973
 2365W        W19213   4.544   5.338   2.811 -0.0187  0.1655 -0.3168
 2366W        W19214  14.182   2.761  12.415  0.1265 -0.2304 -0.4836
 2367W        W19215   6.701  14.071  17.500  0.0805  0.2460 -0.4257
 2368W        W19216   1.128   0.509  13.688  0.1082 -0.0123  0.2972
 2369W        W19217   3.064  13.730  16.316 -0.1877  0.2280  0.0979
 2370W        W19218   0.363  15.675   2.913  0.1584  0.3088 -0.2813
 2371W        W19219   1.290  15.765  13.578  0.2721 -0.2003 -0.1644
 2372W        W19220  12.265   0.091  16.315 -0.0258  0.0548 -0.0070
 2373W        W19221   9.207  16.881  15.288 -0.0469 -0.0488  0.0346
 2374W        W19222   3.312  12.034  11.083  0.0197  0.0600  0.0822
 2375W        W19223   1.786  15.168  15.636  0.4318 -0.0144 -0.1272
 2376W        W19224   5.409  14.072   5.478  0.1930  0.2563 -0.0309
 2377W        W19225  11.699   7.890   0.503 -0.2015 -0.0924 -0.2094
 2378W        W19226  12.620  10.606  14.577  0.0723 -0.0447 -0.1261
 2379W        W19227  12.748   9.247   5.612 -0.0708 -0.2666  0.1935
 2380W        W19228  10.692   3.407  15.361  0.0842 -0.1639  0.0482
 2381W        W19229   1.383   8.408  13.455  0.0535 -0.3501  0.0855
 2382W        W19230   7.531   2.536  17.338 -0.1548 -0.1153 -0.0711
 2383W        W19231   0.546  11.546  16.984  0.2507  0.1963  0.2740
 2384W        W19232   2.788   1.335  14.161  0.1026  0.1262 -0.2201
 2385W        W19233   6.155   6.410  16.809  0.0752 -0.1695 -0.2275
 2386W        W19234  10.590   1.891   4.981  0.0461 -0.1205  0.0196
 2387W        W19235  14.084  10.679   3.217 -0.2036  0.2809 -0.0091
 2388W        W19236  16.702   8.984  12.698  0.1307 -0.0944  0.1550
 2389W        W19237  13.242   3.902   0.055 -0.3600  0.0622  0.0164
 2390W        W19238   9.552   3.659   1.044 -0.0918 -0.0754 -0.0264
 2391W        W19239  17.035  14.602  12.326  0.1485  0.1462 -0.1143
 2392W        W19240   9.079  14.156  15.752 -0.0983 -0.0221 -0.0315
 2393W        W19241   5.986   3.913  17.013  0.1908 -0.2395  0.1426
 2394W        W19242  13.185  12.432  17.017 -0.0247 -0.3752 -0.1441
 2395W        W19243   3.593  15.031   3.475  0.0384  0.0937 -0.0145
 2396W        W19244   2.453  16.470   3.514 -0.1051  0.5160 -0.1954
 2397W        W19245   0.521  13.400   5.733 -0.4250  0.3932 -0.0774
 2398W        W19246  15.315   3.204   1.689  0.0102 -0.0182 -0.1033
 2399W        W19247   1.835   7.023  12.024  0.0756 -0.2150 -0.1209
 2400W        W19248   0.802  14.823  15.698  0.0159  0.2758 -0.0527
 2401W        W19249  10.387  14.256  15.850  0.1712 -0.1147 -0.2663
 2402W        W19250   2.119  12.786   4.995 -0.2409  0.1731 -0.1762
 2403W        W19251   2.542  12.428   4.150  0.2467 -0.0733  0.0243
 2404W        W19252  16.229  16.006   2.908 -0.0217 -0.2062  0.0846
 2405W        W19253   5.686   5.863   5.299 -0.2365  0.1074  0.1969
 2406W        W19254   0.286   6.237  17.297  0.1384  0.1254 -0.0421
 2407W        W19255   3.038   4.301  15.774  0.0264 -0.2224 -0.1012
 2408W        W19256  16.715   2.246   0.260 -0.2913  0.2806 -0.4707
 2409W        W19257   0.599  13.693   3.050 -0.0799 -0.4613  0.3725
 2410W        W19258   4.928  11.258  17.791  0.0515  0.0447  0.2965
 2411W        W19259  14.774  10.188  14.406  0.1327  0.0603  0.3489
 2412W        W19260   5.305   9.423  11.912 -0.0655  0.0654 -0.4464
 2413W        W19261  14.487  14.634  15.843  0.1099  0.3398 -0.2285
 2414W        W19262  14.661  12.157  15.823 -0.1618 -0.0751 -0.0133
 2415W        W19263  16.192  10.597  14.150 -0.2091 -0.0386 -0.4483
 2416W        W19264  12.991  11.810   5.085 -0.2106  0.1074 -0.1147
 2417W        W19265  11.153   4.812  13.989 -0.0075 -0.1559  0.1396
 2418W        W19266  16.351  11.872   5.598 -0.2088 -0.0244 -0.1333
 2419W        W19267   6.650   1.457   4.609  0.2921  0.0758  0.1319
 2420W        W19268   6.660   5.455   6.165 -0.0283 -0.0404  0.3888
 2421W        W19269  14.117   9.381   4.075  0.0820  0.2197 -0.0407
 2422W        W19270   9.912  10.093  12.330  0.1293  0.1015  0.0234
 2423W        W19271  11.794   6.041   3.516 -0.3422  0.4288 -0.1299
 2424W        W19272   3.503   5.427  17.151  0.0843 -0.3181  0.0899
 2425W        W19273   9.405   5.852  13.817 -0.0140  0.0233 -0.1848
 2426W        W19274   0.347   1.774  17.190  0.1532  0.0367  0.0485
 2427W        W19275   3.140   3.382   5.700 -0.4333  0.0226  0.3510
 2428W        W19276  11.624   8.105   1.726  0.2405 -0.0527  0.0789
 2429W        W19277  11.131   6.553  16.139 -0.0363  0.1885 -0.2440
 2430W        W19278   3.223   2.804  13.709  0.0977  0.0921 -0.1696
 2431W        W19279  15.830  15.883  13.180  0.2557 -0.1599 -0.0273
 2432W        W19280   1.788  15.740   3.220  0.1419  0.0032  0.1163
 2433W        W19281   0.046   3.877  15.932 -0.1939  0.1787  0.0479
 2434W        W19282  13.448   5.750  17.142  0.0405 -0.4262 -0.0668
 2435W        W19283  12.615   6.737  15.577 -0.1772 -0.3671 -0.0645
 2436W        W19284  16.865   1.246   2.391  0.1008  0.2943 -0.3348
 2437W        W19285   3.522  11.673   3.614  0.0805 -0.1250  0.2219
 2438W        W19286  12.881   3.191   3.100 -0.1790 -0.0658  0.0172
 2439W        W19287  16.429  14.684   2.113 -0.1995 -0.0937 -0.2351
 2440W        W19288  16.513  11.018   3.685 -0.1727 -0.1326  0.1355
 2441W        W19289  12.956   4.209  17.492 -0.1453  0.1090  0.0099
 2442W        W19290  13.686  15.916   5.057  0.0274  0.0736 -0.0504
 2443W        W19291   1.463   7.206  13.488  0.1285 -0.0701 -0.0262
 2444W        W19292   1.207   2.902   2.165 -0.1664  0.0127  0.4578
 2445W        W19293  15.444   9.942  16.078 -0.1925 -0.2222 -0.3174
 2446W        W19294   4.009   6.709   0.882  0.0726 -0.2116  0.0481
 2447W        W19295   0.716   6.363   1.107 -0.0427  0.1364  0.0444
 2448W        W19296   0.713  11.088  13.843 -0.1916 -0.1880  0.1324
 2449W        W19297   5.048  15.420   1.857  0.1669  0.0296 -0.0822
 2450W        W19298   9.369  16.560  15.673  0.0920  0.1393  0.0600
 2451W        W19299   1.366  12.940  12.263 -0.1485  0.4768  0.2935
 2452W        W19300  14.977   8.068   1.150  0.2843  0.1032 -0.1048
 2453W        W19301   0.381   6.096  15.404  0.2551 -0.0989 -0.1093
 2454W        W19302  16.419   7.830   2.197 -0.0908 -0.0644 -0.1413
 2455W        W19303   1.585  16.809   5.948  0.1486  0.1928 -0.1520
 2456W        W19304  11.524   4.274   1.151  0.4015  0.1012 -0.0276
 2457W        W19305   4.034  11.777  15.617  0.0343 -0.0281 -0.0495
 2458W        W19306  11.015   0.749   2.078  0.0709 -0.0953 -0.1195
 2459W        W19307  12.365   6.614   0.176  0.2429  0.5493 -0.0882
 2460W        W19308  14.680   9.748  13.620  0.2727 -0.2756 -0.1338
 2461W        W19309   3.424   1.718   4.727  0.0940  0.0761 -0.0768
 2462W        W19310   1.039   4.735  16.809 -0.0502  0.0026  0.0213
 2463W        W19311   6.682  11.016   2.474 -0.0233  0.0625 -0.2048
 2464W        W19312  12.424  14.420  13.677 -0.2978  0.0453  0.0738
 2465W        W19313   6.005   8.526  13.506  0.1326  0.1131  0.1590
 2466W        W19314   2.601   8.704   2.230  0.4063 -0.3430 -0.0695
 2467W        W19315   8.501   6.792  14.437 -0.0838 -0.2913 -0.0707
 2468W        W19316   8.780  15.253   0.083 -0.0595 -0.0258  0.0578
 2469W        W19317   6.140   3.096   0.854 -0.0228  0.1199 -0.0381
 2470W        W19318  15.366   1.836  12.769 -0.1407 -0.0810  0.1307
 2471W        W19319   5.009   8.820   1.755  0.0179  0.1599  0.1734
 2472W        W19320  14.788   4.508   5.117  0.0433 -0.1331  0.0791
 2473W        W19321   7.317  15.191  16.569  0.1854  0.0447  0.1679
 2474W        W19322  16.576  12.243   3.041 -0.0441 -0.0263  0.0505
 2475W        W19323   1.034   1.951  13.447 -0.1909 -0.0255 -0.0632
 2476W        W19324  13.182   0.197   3.263 -0.0312  0.2439 -0.0107
 2477W        W19325   7.332   4.450   3.666 -0.1411 -0.0349 -0.1621
 2478W        W19326   2.802   6.692   4.579  0.0939 -0.3032  0.2753
 2479W        W19327   3.341  15.490  17.462 -0.0538  0.1420 -0.3809
 2480W        W19328  16.563   9.746   0.183 -0.2515 -0.2020 -0.0930
 2481W        W19329  12.847  14.947  15.154  0.1339 -0.1304  0.1544
 2482W        W19330  16.276  16.265   3.373 -0.0151  0.0010 -0.1549
 2483W        W19331   6.168  16.728   1.586  0.0209 -0.1306 -0.4795
 2484W        W19332   2.718  14.240  15.153  0.3227  0.1530  0.2130
 2485W        W19333   4.395  12.299   4.706 -0.0570  0.2104  0.0468
 2486W        W19334   3.414  12.737   5.703 -0.0812  0.0129 -0.2500
 2487W        W19335  11.646  13.934  16.527 -0.2489 -0.0617  0.0556
 2488W        W19336  12.777  16.597   1.457  0.0588  0.4110 -0.0105
 2489W        W19337   0.992   4.396   3.768 -0.0225  0.3794 -0.0750
 2490W        W19338   0.073  12.122  17.010 -0.0119 -0.0761  0.0311
 2491W        W19339   9.432   3.406  15.930  0.1385 -0.2683 -0.1676
 2492W        W19340   5.099   8.590  13.739 -0.1338 -0.1185 -0.0151
 2493W        W19341  15.484  12.115  12.816  0.2882  0.1619  0.2559
 2494W        W19342   2.974   6.277   4.377  0.1553 -0.1845 -0.1033
 2495W        W19343   9.461   2.256  15.443  0.1738  0.2577  0.1768
 2496W        W19344  16.705   3.129   1.940 -0.2219 -0.0174 -0.2020
 2497W        W19345   1.690   7.903   5.368  0.4327 -0.0957 -0.0131
 2498W        W19346   0.853  11.160  16.796  0.2464 -0.1967 -0.0200
 2499W        W19347   0.214  13.082   3.737  0.2052 -0.0360 -0.0071
 2500W        W19348   6.072  10.084  14.277 -0.3190 -0.2117 -0.0189
 2501W        W19349  16.731   4.869   1.211  0.2380  0.1038 -0.0206
 2502W        W19350   9.540  11.315  12.165 -0.2178 -0.2021 -0.1145
 2503W        W19351  11.506   7.685   3.658  0.1181  0.1385 -0.1997
 2504W        W19352  16.319   8.240   3.790  0.0986 -0.1129  0.0385
 2505W        W19353  16.330  16.805   4.141 -0.2748 -0.2072 -0.1891
 2506W        W19354   1.382  10.575   1.493 -0.1936 -0.0757  0.1225
 2507W        W19355   2.947   4.726  16.690  0.2858  0.0223  0.0979
 2508W        W19356  10.699  16.739  13.997 -0.1177 -0.1476  0.1690
 2509W        W19357   0.528   4.621  16.570 -0.0494  0.0549  0.0227
 2510W        W19358   0.048  13.379  15.855 -0.0761  0.0263 -0.2473
 2511W        W19359   6.209   9.117   0.856  0.1992 -0.1624  0.1247
 2512W        W19360  16.330   8.617  17.223  0.1673  0.0242 -0.1126
 2513W        W19361  14.035  14.004  14.078 -0.1877 -0.3485 -0.1251
 2514W        W19362   5.563   1.422   4.077  0.2158 -0.3550 -0.0654
 2515W        W19363   3.185   5.601  16.543  0.2494 -0.1365 -0.2255
 2516W        W19364  11.320  11.371   4.851  0.2324 -0.1158  0.1424
 2517W        W19365   3.650   5.081   1.926 -0.1745 -0.1309  0.0970
 2518W        W19366   7.290   4.447   2.301 -0.1210  0.0511 -0.0048
 2519W        W19367   5.097   2.761   1.460  0.3670 -0.0869  0.1725
 2520W        W19368   0.902   9.519   1.025 -0.0910  0.2607  0.0107
 2521W        W19369  15.697  12.472  13.656 -0.1478  0.1858 -0.0801
 2522W        W19370   8.647   3.485   4.711 -0.1786 -0.0591  0.1068
 2523W        W19371  16.351  11.609  12.876  0.2201 -0.0093 -0.1743
 2524W        W19372   8.390  16.106  12.442 -0.1653 -0.1789  0.0360
 2525W        W19373   3.989   4.262  14.089 -0.0422  0.1422 -0.0628
 2526W        W19374  12.340   9.785   0.849  0.0462 -0.1565  0.0024
 2527W        W19375  15.465   7.432   4.318 -0.0087  0.1802 -0.1420
 2528W        W19376   2.338  16.188   1.150  0.0554 -0.0351  0.0935
 2529W        W19377  13.162   9.602   3.943  0.0167  0.0665 -0.0574
 2530W        W19378   9.176  16.690  17.357 -0.0072  0.3461 -0.3493
 2531W        W19379  12.878   7.971   0.946  0.1871 -0.2282  0.0190
 2532W        W19380   7.664  16.503  13.451 -0.1806  0.1849 -0.1351
 2533W        W19381  16.866  12.357   0.239  0.0593  0.0407 -0.0086
 2534W        W19382  16.477  11.251   2.288 -0.1425  0.0180  0.1713
 2535W        W19383  12.138   7.725  13.962  0.1605  0.2077 -0.0691
 2536W        W19384  11.002  10.810  11.703  0.1667  0.0279 -0.2779
 2537W        W19385  16.228  12.467  15.859  0.1363 -0.0588  0.1355
 2538W        W19386  11.608   8.752  13.955  0.0173 -0.2590  0.2142
 2539W        W19387   0.397   6.282  15.903 -0.0119 -0.1308 -0.0686
 2540W        W19388  15.459   0.884  12.875  0.0252  0.0065 -0.1127
 2541W        W19389   0.278   5.377   5.473 -0.1014  0.1624  0.3841
 2542W        W19390  15.904  14.401   0.047  0.0829  0.1198 -0.0901
 2543W        W19391  16.447   0.417   2.157  0.0998 -0.2866 -0.0899
 2544W        W19392   4.039  11.535  13.560  0.1941 -0.1123 -0.3444
 2545W        W19393   7.601   8.302   1.274  0.1529  0.1968 -0.1770
 2546W        W19394  11.062   6.172   2.681 -0.0273 -0.2987 -0.0438
 2547W        W19395  16.923   4.423  17.852  0.2837 -0.2851  0.2000
 2548W        W19396  13.768   0.743  14.933  0.1276  0.1360 -0.2863
 2549W        W19397  14.409   6.536   3.793  0.1524  0.0110 -0.0049
 2550W        W19398  13.632   2.825  15.257  0.0947  0.0244 -0.0206
 2551W        W19399   7.940  14.034   2.278 -0.2868  0.0538 -0.0623
 2552W        W19400   1.951  10.937   1.422 -0.1060 -0.3042 -0.1152
 2553W        W19401   9.305  10.640   3.292  0.0666  0.0179  0.0833
 2554W        W19402   9.016   9.624  13.921  0.0160 -0.0658 -0.3225
 2555W        W19403   3.057   5.650  17.013  0.1240 -0.0259 -0.0852
 2556W        W19404   8.748   0.669   0.527 -0.1319 -0.0875  0.1484
 2557W        W19405   0.258   5.292   2.783  0.0497  0.0249 -0.1028
 2558W        W19406   1.814   3.456   4.395 -0.1428  0.0832 -0.1938
 2559W        W19407   6.733  12.777  13.602 -0.2291  0.0052 -0.1611
 2560W        W19408   0.945  16.076   4.520 -0.0008  0.0922  0.0402
 2561W        W19409   5.094   1.449  12.351  0.0987  0.0119  0.1126
 2562W        W19410   0.585   0.565   1.866  0.0178  0.0141  0.1858
 2563W        W19411   7.866  14.430  15.047 -0.1478 -0.0586 -0.0083
 2564W        W19412  12.507   4.184  11.541 -0.1959  0.3409 -0.2961
 2565W        W19413   3.136   8.696   0.335 -0.3629 -0.0505  0.1449
 2566W        W19414  13.048  12.621   3.012  0.2225  0.0173 -0.1197
 2567W        W19415   1.179  13.283  11.946 -0.0611  0.1884 -0.1135
 2568W        W19416   2.134  11.800  12.143 -0.0089  0.2059 -0.0097
 2569W        W19417   4.080   8.573   4.323 -0.1588  0.2514  0.0427
 2570W        W19418   7.368   1.770  14.473 -0.3142  0.1997  0.0727
 2571W        W19419   1.238   3.044  14.583 -0.2097  0.0237 -0.1302
 2572W        W19420  14.337   0.466   4.920  0.1505  0.3334 -0.0092
 2573W        W19421   0.348  16.227  17.148  0.2489 -0.0097  0.3703
 2574W        W19422   7.544   8.863  14.535 -0.0584 -0.0296  0.0655
 2575W        W19423  12.000  16.109  16.541  0.1906 -0.1585 -0.1388
 2576W        W19424  12.625   7.725  17.406  0.2208 -0.1438 -0.3074
 2577W        W19425   1.582   2.652  14.744  0.1219  0.1315  0.0648
 2578W        W19426   6.965  10.602  11.431 -0.0944 -0.3133  0.0644
 2579W        W19427   5.486  14.927   5.750 -0.3538  0.2118  0.0852
 2580W        W19428   0.862   6.869   1.347  0.1069  0.0857  0.0101
 2581W        W19429   6.037   6.192  13.552  0.3132  0.1042  0.1259
 2582W        W19430   9.187   1.862  14.671 -0.1855  0.0575 -0.2463
 2583W        W19431   9.237   3.033  13.780 -0.2176 -0.0823 -0.1293
 2584W        W19432   6.636  14.193   2.221  0.0487 -0.0703  0.0249
 2585W        W19433  11.043   0.100   2.908  0.1668  0.4357  0.1679
 2586W        W19434  14.686  14.936   0.733  0.1206  0.1383  0.0877
 2587W        W19435   5.904   4.925  12.972 -0.2521  0.0267 -0.0129
 2588W        W19436   9.232   1.337   5.210  0.2869  0.0938 -0.1280
 2589W        W19437   1.498   0.300   4.214 -0.0546 -0.2257  0.0635
 2590W        W19438  14.258  13.760  15.909  0.0006 -0.1490 -0.2735
 2591W        W19439  12.470   6.747   0.728 -0.1241 -0.0733 -0.0385
 2592W        W19440   6.258   1.380  11.154 -0.2006  0.2334  0.1349
 2593W        W19441   3.880  11.724   0.981 -0.0416  0.1741  0.2751
 2594W        W19442   3.742   5.591  12.621 -0.0727 -0.0489 -0.1696
 2595W        W19443   4.948  10.955   0.625  0.2490 -0.2277  0.2619
 2596W        W19444   9.320   0.202  14.304  0.0049 -0.0368 -0.0602
 2597W        W19445  16.616   8.984  13.265 -0.1925 -0.0305  0.1225
 2598W        W19446   2.634   0.558   2.960  0.0198  0.0536  0.1242
 2599W        W19447  15.993  16.996   5.010 -0.0689 -0.1152 -0.0229
 2600W        W19448   4.299  14.517  12.430  0.0648  0.0057  0.1077
 2601W        W19449   1.803   6.712   3.071  0.0109 -0.0035 -0.1601
 2602W        W19450   8.792  16.128  11.986 -0.2134  0.1422  0.0203
 2603W        W19451  15.697   5.145  14.737 -0.2401 -0.0555  0.2854
 2604W        W19452  10.140   8.312  13.736 -0.1332 -0.0197  0.1976
 2605W        W19453   8.078   7.926  16.060 -0.3388 -0.2596 -0.0508
 2606W        W19454   9.325   4.047  16.460 -0.1944 -0.2925  0.2099
 2607W        W19455  13.554   2.791  16.832  0.0676 -0.0410  0.1061
 2608W        W19456  16.268   1.171  14.781  0.0498  0.1097 -0.1818
 2609W        W19457  11.712   5.214  15.962  0.0077 -0.3118 -0.1430
 2610W        W19458  16.096  13.252  12.910  0.0925 -0.0891  0.1369
 2611W        W19459   2.336   8.927  15.355  0.1385  0.1548  0.1944
 2612W        W19460   2.985   8.289   3.058 -0.1262 -0.2146 -0.2762
 2613W        W19461   5.231   9.495   5.798 -0.0609  0.1747 -0.1918
 2614W        W19462  16.461  16.844   3.284 -0.1697 -0.2084  0.0345
 2615W        W19463   8.724   3.891  15.336 -0.3105 -0.2040  0.1280
 2616W        W19464  16.911  13.551  14.222  0.0571 -0.1889 -0.3056
 2617W        W19465   6.055  14.527   5.118 -0.3263 -0.1492  0.0566
 2618W        W19466  15.814   4.356  13.916 -0.1277  0.1090  0.2072
 2619W        W19467   4.392   6.414  16.121 -0.1195  0.1296 -0.0517
 2620W        W19468   0.478   3.516   4.875 -0.1246 -0.2211  0.0537
 2621W        W19469   6.875   3.674  17.066  0.0781 -0.1298  0.3580
 2622W        W19470  10.339   2.411  15.971 -0.0923  0.0809  0.0652
 2623W        W19471   5.200   2.889   4.719  0.0464  0.1989 -0.2343
 2624W        W19472   3.945   0.193  17.775  0.2542  0.1084  0.0843
 2625W        W19473  16.903  14.916   5.454  0.2176  0.1366  0.2181
 2626W        W19474   9.734   5.001  11.991 -0.2992 -0.2157 -0.1781
 2627W        W19475   1.158   1.705   2.892  0.0487 -0.1593 -0.3013
 2628W        W19476  15.489   2.733   4.146 -0.1000 -0.0086  0.3003
 2629W        W19477   6.576  10.298  12.827  0.0610 -0.0235 -0.0192
 2630W        W19478   9.706   5.315  15.043  0.2073 -0.0120  0.3248
 2631W        W19479   0.843   6.099  13.010  0.0997 -0.2410 -0.1668
 2632W        W19480   4.350   0.789  13.623  0.2173 -0.0914  0.4241
 2633W        W19481  13.592   1.459  16.309  0.0137  0.1897 -0.2417
 2634W        W19482   9.380  12.035   2.347 -0.1015  0.1595  0.2763
 2635W        W19483   9.830  16.108   1.991 -0.2605  0.2181  0.0325
 2636W        W19484   3.677   8.931   4.475  0.1035 -0.0933  0.2243
 2637W        W19485  11.696  10.744   1.836  0.0278  0.2098 -0.0296
 2638W        W19486  16.424   1.500  15.438 -0.1091 -0.2046 -0.1035
 2639W        W19487  14.059  13.694  17.424 -0.2593  0.3102  0.1580
 2640W        W19488   1.065   4.738  13.955  0.0636  0.1564 -0.4004
 2641W        W19489   9.092   0.998  12.704 -0.2318  0.0735 -0.0250
 2642W        W19490   4.424   7.924  16.232 -0.1009  0.1069  0.2461
 2643W        W19491  11.777   6.190   0.979  0.1221 -0.1002  0.1499
 2644W        W19492  14.754  12.809   1.407  0.2311 -0.1397 -0.0422
 2645W        W19493  16.692  15.911   1.587  0.2631 -0.3717  0.2679
 2646W        W19494   4.274  12.741  15.976  0.0517 -0.1164  0.1809
 2647W        W19495   9.845  15.298   3.031  0.0074 -0.0718 -0.2386
 2648W        W19496   3.937   2.382   4.815  0.0770 -0.0416 -0.1316
 2649W        W19497  14.258   6.863   0.974  0.0700 -0.2955 -0.1106
 2650W        W19498   4.391   9.183  15.801 -0.3104  0.0505  0.3172
 2651W        W19499   1.790   0.660  16.914 -0.0300 -0.1121  0.1692
 2652W        W19500   3.183  14.697  14.947  0.2351 -0.0618 -0.1106
 2653W        W19501  11.787  12.983  13.041 -0.0918  0.0990  0.0725
 2654W        W19502   2.523  16.119   2.094 -0.2859  0.3382  0.0968
 2655W        W19503   0.206   3.862  12.817 -0.0130  0.0478 -0.0571
 2656W        W19504  15.958  10.800  17.509  0.1397 -0.2066 -0.0202
 2657W        W19505  15.160  15.332  14.189  0.0984 -0.0805 -0.0102
 2658W        W19506  11.553   7.096  15.852  0.2092  0.2741 -0.1609
 2659W        W19507   0.724  14.173   3.070 -0.1971 -0.1902  0.1180
 2660W        W19508   5.322  13.275  12.334 -0.0432  0.1490  0.0600
 2661W        W19509  13.452  16.088  12.339 -0.1911 -0.0669  0.0458
 2662W        W19510   0.352   8.921   2.573 -0.1906  0.1508  0.2038
 2663W        W19511   4.687  16.889   1.041  0.3212  0.2688  0.1851
 2664W        W19512   9.597   4.035   0.599 -0.0775 -0.0109 -0.1281
 2665W        W19513  16.283  12.500  12.931  0.0192  0.0321  0.0343
 2666W        W19514   8.264  12.636   0.773 -0.0821  0.0679 -0.1576
 2667W        W19515   3.688   5.661  14.747 -0.0584  0.5495 -0.0521
 2668W        W19516   6.115   7.961   4.039 -0.2181 -0.1214  0.1432
 2669W        W19517   6.615   7.838   3.889  0.0190 -0.0013  0.3067
 2670W        W19518  13.941  14.958  14.666  0.4827 -0.2809 -0.2409
 2671W        W19519   4.822   2.000   3.592 -0.0951  0.0470 -0.6142
 2672W        W19520   1.282   9.049   2.592 -0.3306 -0.0608  0.1289
 2673W        W19521  16.372  13.061  17.573 -0.2384  0.1775 -0.1817
 2674W        W19522  11.307   0.620   5.354 -0.2048  0.0823 -0.0758
 2675W        W19523  16.817   8.300  16.028  0.0574  0.1689  0.0514
 2676W        W19524   7.868   4.543   6.047  0.0701 -0.4297  0.1887
 2677W        W19525  13.500  12.278  12.804 -0.0572 -0.1628 -0.2322
 2678W        W19526   5.341   7.001  15.200 -0.0001  0.1710  0.1596
 2679W        W19527   2.135   1.802   2.489  0.1924 -0.0098 -0.1799
 2680W        W19528  10.223  16.277   2.261 -0.0483  0.1434  0.2527
 2681W        W19529   6.453  11.291  17.791  0.2000 -0.0037  0.1229
 2682W        W19530   2.723  16.909  13.124 -0.1859  0.0045 -0.1308
 2683W        W19531   0.092  13.915   2.280 -0.0816  0.3141 -0.0697
 2684W        W19532   5.823  10.045  12.376  0.6293  0.0428 -0.0198
 2685W        W19533   9.577  16.499  17.061 -0.1761 -0.2392  0.0237
 2686W        W19534  11.852   7.254   1.805 -0.1302  0.2541 -0.1911
 2687W        W19535   7.991  15.959   1.525 -0.4617  0.1849  0.0976
 2688W        W19536   9.456   4.226   2.479 -0.1121  0.3181  0.5147
 2689W        W19537   4.998   7.125   3.450  0.2482 -0.1304  0.1066
 2690W        W19538   7.471   6.145  14.107  0.1236  0.0354 -0.0210
 2691W        W19539   0.497  12.832   5.418  0.3843 -0.0108  0.2737
 2692W        W19540   6.175   3.026  14.453 -0.2989 -0.0566 -0.0297
 2693W        W19541   5.514   6.204   1.451  0.1135 -0.0482  0.0362
 2694W        W19542  16.302   7.433   3.814  0.0485  0.1201 -0.0830
 2695W        W19543   2.913  15.064  11.278  0.1985 -0.0818 -0.0150
 2696W        W19544   7.962  12.578  17.789  0.1488  0.0254  0.1554
 2697W        W19545  10.309   6.393  16.949 -0.1937  0.1127 -0.1477
 2698W        W19546   4.027  14.044   1.212  0.1432  0.2413 -0.0843
 2699W        W19547   4.831   7.966   4.540  0.1094 -0.0983  0.0742
 2700W        W19548   8.231  16.492  13.281  0.2170  0.3225  0.1551
 2701W        W19549   7.433   4.044  12.766  0.2265  0.0738  0.0188
 2702W        W19550  15.513  11.528  17.787 -0.1180  0.1752  0.4167
 2703W        W19551   8.718  16.167  14.540  0.1616 -0.1398  0.3331
 2704W        W19552  15.759  12.657   4.752 -0.0386 -0.1842  0.0118
 2705W        W19553   6.324   9.824   2.611  0.1949 -0.0973 -0.0900
 2706W        W19554  10.852  14.922   4.915  0.0370 -0.0499  0.0654
 2707W        W19555  13.748   8.403   1.239 -0.1960 -0.0111  0.0544
 2708W        W19556  15.424  16.189   0.369 -0.3802  0.0166 -0.0880
 2709W        W19557   7.267   1.667  16.310  0.1373 -0.1861 -0.0572
 2710W        W19558  15.806   2.053  12.692  0.0373  0.0160 -0.1169
 2711W        W19559   6.814   2.358  14.343 -0.0583  0.1277  0.0728
 2712W        W19560   4.668   6.081   4.289  0.1074 -0.1721 -0.2406
 2713W        W19561  16.900   2.348  15.841  0.0762 -0.1006  0.0582
 2714W        W19562   0.277   5.340  12.794 -0.0439  0.1752 -0.0363
 2715W        W19563   0.603   7.389   1.305  0.1341  0.0598  0.0783
 2716W        W19564   2.367  14.808  16.968 -0.3153  0.1453 -0.3097
 2717W        W19565  14.795  14.534   5.244 -0.4031  0.2553  0.0353
 2718W        W19566  13.484  14.769   1.574  0.0433 -0.0552  0.2613
 2719W        W19567   9.976   7.711   2.560  0.0291  0.2420 -0.1629
 2720W        W19568  12.270   2.020   1.927  0.1496  0.2011 -0.0491
 2721W        W19569   9.639   0.638  17.620  0.1350 -0.1295  0.1388
 2722W        W19570  10.689   8.407  17.360 -0.4252 -0.1372  0.1429
 2723W        W19571  13.264  15.714  17.758 -0.0878 -0.3610  0.1691
 2724W        W19572   8.039   7.492   0.987  0.2059  0.1394  0.1301
 2725W        W19573   9.432   9.657  16.039 -0.0929  0.0692  0.1857
 2726W        W19574   7.747  12.650   5.771  0.2316 -0.3027 -0.2071
 2727W        W19575   2.307  12.949   1.644 -0.2105 -0.2347  0.1530
 2728W        W19576  10.319  14.634   4.746  0.0175  0.0520 -0.0353
 2729W        W19577   1.667   6.052  12.076 -0.2491 -0.1154  0.1213
 2730W        W19578   2.554  15.447   5.056 -0.0482 -0.0937  0.0630
 2731W        W19579   1.692  10.727  15.371  0.0415  0.0968 -0.0813
 2732W        W19580   8.297   2.202   1.119  0.0941  0.1811  0.1932
 2733W        W19581   0.970   7.895   2.139  0.1081 -0.2028  0.0988
 2734W        W19582   6.929  14.080   5.670 -0.0579  0.0612  0.0112
 2735W        W19583   0.167  12.725  13.148  0.2103 -0.1356 -0.1409
 2736W        W19584  15.585   1.666  13.185 -0.0590  0.1475  0.3954
 2737W        W19585   2.844   5.589  14.317 -0.1515  0.0223 -0.0860
 2738W        W19586  10.436  15.492  15.116 -0.2024 -0.1107 -0.1229
 2739W        W19587   1.125  16.757  15.107  0.2624 -0.2003 -0.1613
 2740W        W19588   3.586  13.067  17.059 -0.2062 -0.1190 -0.0985
 2741W        W19589  10.404   5.502   4.894  0.1995 -0.1039 -0.2311
 2742W        W19590   2.706  11.737   4.956 -0.2524  0.0704 -0.0571
 2743W        W19591   3.900   8.416  13.917  0.0783 -0.1071 -0.0029
 2744W        W19592   3.245  10.905  16.186 -0.1127  0.1740 -0.1235
 2745W        W19593  12.021   3.801  15.945 -0.0203 -0.2810  0.1469
 2746W        W19594   1.423  10.471   0.911  0.1237 -0.0789 -0.1007
 2747W        W19595  11.124   0.728  16.444 -0.0518 -0.2051  0.0687
 2748W        W19596   0.005   7.763  14.946  0.1503  0.0753  0.1369
 2749W        W19597   9.214   0.487  13.450  0.1558 -0.0739 -0.0102
 2750W        W19598  15.079   1.722  15.088  0.0295 -0.1722  0.1066
 2751W        W19599   7.867   8.539  17.091  0.1031  0.1805  0.1571
 2752W        W19600  12.561   4.214   4.479 -0.0667 -0.2118 -0.0812
 2753W        W19601  11.220  16.259   3.240  0.2944  0.2578  0.2828
 2754W        W19602   3.824   9.664   4.872 -0.2840  0.0625 -0.2805
 2755W        W19603   3.334   0.606  13.122 -0.0295  0.1499  0.1520
 2756W        W19604   3.239   8.810   4.741 -0.1326 -0.1876 -0.0780
 2757W        W19605   8.265  13.346   0.242  0.1543  0.2320  0.1383
 2758W        W19606   7.790   8.987   5.978 -0.3249  0.0030  0.2105
 2759W        W19607  15.398   3.593   1.414 -0.2395  0.2434  0.2069
 2760W        W19608   4.287  14.881  16.578 -0.0483  0.0719  0.1075
 2761W        W19609   9.238   8.157   3.318  0.1050  0.1278  0.3014
 2762W        W19610   5.655   8.312  16.558 -0.0820  0.1453  0.0244
 2763W        W19611   2.136   5.984   0.251  0.0800  0.0745 -0.0442
 2764W        W19612   3.252  11.080   4.983  0.1699  0.0656  0.0826
 2765W        W19613   8.026   0.023  12.482 -0.0281  0.0777 -0.0161
 2766W        W19614  14.366  14.374   5.944 -0.1215 -0.2927  0.1555
 2767W        W19615  12.786   9.897  12.547  0.1426  0.1683  0.2414
 2768W        W19616  10.133   0.898   1.676  0.1275 -0.1302  0.2590
 2769W        W19617  16.036  14.531  12.950 -0.0573 -0.2305  0.1216
 2770W        W19618  12.353   3.626   4.385 -0.2765  0.0137 -0.3834
 2771W        W19619   6.641   2.571  14.791  0.2959  0.1508 -0.3617
 2772W        W19620   5.289   4.461   5.509 -0.4097 -0.1539 -0.0929
 2773W        W19621   9.213  13.721   3.577  0.2112 -0.0663  0.1758
 2774W        W19622   5.491  11.362   2.573  0.1049  0.1752 -0.0126
 2775W        W19623   1.091   6.914   2.537  0.1863  0.1775  0.0860
 2776W        W19624   9.667  14.643  16.755 -0.2456  0.0422  0.0788
 2777W        W19625  11.494  16.542  17.359  0.2096  0.0224 -0.1792
 2778W        W19626   7.935  13.522  17.758  0.0851  0.1517  0.2693
 2779W        W19627   6.014   7.720  14.976 -0.1204 -0.0393  0.1178
 2780W        W19628   1.040   0.070  16.357  0.0116  0.0673  0.3469
 2781W        W19629   9.253   1.789  13.766  0.1686  0.0380 -0.0446
 2782W        W19630   7.941  11.179   1.882  0.0688 -0.3087  0.0139
 2783W        W19631  10.961  13.653   3.840 -0.2827  0.0160 -0.0176
 2784W        W19632   7.182   4.623  16.628  0.1854 -0.0033 -0.0357
 2785W        W19633   7.501   0.489  14.855  0.0200 -0.2054 -0.2291
 2786W        W19634  12.426  11.588   2.315  0.0065  0.4806 -0.0940
 2787W        W19635  12.922   7.721   0.033  0.0461  0.2474 -0.5150
 2788W        W19636  11.857  13.868   1.638 -0.1947  0.0388  0.2473
 2789W        W19637   4.812  17.019   0.110 -0.0991 -0.0414  0.0285
 2790W        W19638  10.681   7.276  16.249  0.1253  0.3662 -0.2251
 2791W        W19639   5.062   8.321   1.959  0.2086 -0.2197 -0.2828
 2792W        W19640   8.542   8.586   2.964 -0.2892  0.1183  0.0539
 2793W        W19641  13.512   3.565   0.321 -0.0192  0.2508  0.1554
 2794W        W19642   1.927   7.238   4.835 -0.0929  0.1065 -0.2840
 2795W        W19643  14.245   5.558  11.569 -0.1203  0.1469  0.0033
 2796W        W19644   5.785   3.977  13.708  0.0297 -0.1468  0.2452
 2797W        W19645  10.407   8.940   2.768 -0.0164  0.0936 -0.1013
 2798W        W19646   9.609   1.557  14.676  0.1615  0.0724 -0.0382
 2799W        W19647  16.236   6.770  14.921  0.0240 -0.0447 -0.1660
 2800W        W19648  16.800   7.969  14.583  0.1148  0.0236  0.1531
 2801W        W19649  15.396   3.919  12.730 -0.0226  0.0673  0.1962
 2802W        W19650   9.168  15.631   0.846  0.0118  0.0979  0.1672
 2803W        W19651  16.787   8.045   3.171 -0.2390 -0.1561 -0.4918
 2804W        W19652   8.615  16.995  14.739  0.2730 -0.3140  0.1924
 2805W        W19653   3.130   9.341  13.670 -0.0481 -0.2337  0.0623
 2806W        W19654   4.529  16.793   6.951  0.1060  0.4426  0.0237
 2807W        W19655   2.195  14.337  12.143 -0.2129 -0.3785 -0.1509
 2808W        W19656  10.061   9.846   0.349  0.0367 -0.0877  0.1212
 2809W        W19657  15.725  10.503   3.594  0.0964  0.2386 -0.0005
 2810W        W19658   7.614   3.969   3.946 -0.0104  0.1838  0.2193
 2811W        W19659   2.617  15.253  17.192 -0.0024 -0.0130 -0.1072
 2812W        W19660   0.606   6.966   0.423  0.0467  0.2132 -0.0452
 2813W        W19661  15.076  15.420   4.949 -0.1564  0.1987 -0.2390
 2814W        W19662   6.741   2.232  16.805  0.1968  0.0389 -0.0841
 2815W        W19663   3.224   2.530  11.436  0.2033 -0.1933  0.2971
 2816W        W19664   7.388  10.463   1.015 -0.1380 -0.4024  0.1432
 2817W        W19665   3.675   2.378  14.519  0.0961  0.1655 -0.2094
 2818W        W19666   4.145   3.147  13.297  0.1136 -0.0716 -0.0516
 2819W        W19667   7.871   2.237  15.374 -0.0473 -0.0042  0.0146
 2820W        W19668   6.125   5.672   3.746 -0.2272 -0.0064 -0.2371
 2821W        W19669   2.356  16.378   2.460  0.2544 -0.1183 -0.3046
 2822W        W19670  15.149  11.394  16.850 -0.0452 -0.1126 -0.2596
 2823W        W19671   1.879  16.792  14.278 -0.2485  0.1128 -0.2399
 2824W        W19672  15.011   5.932  12.359 -0.1983 -0.1706  0.1691
 2825W        W19673   0.923   0.597  15.141 -0.5346  0.2911 -0.0547
 2826W        W19674  14.773  14.486  14.202  0.0534  0.2327 -0.0400
 2827W        W19675  14.067   9.158   0.913 -0.2699 -0.1710  0.0034
 2828W        W19676   4.161  10.391  17.242 -0.0256 -0.1783  0.3564
 2829W        W19677   1.944  11.456   2.002  0.0872 -0.0088 -0.1513
 2830W        W19678  15.469  14.003   0.614 -0.0849 -0.1515  0.0971
 2831W        W19679   6.939   7.038   1.657  0.0721 -0.1252  0.1275
 2832W        W19680   0.741  11.639  16.073  0.0702 -0.0254 -0.0124
 2833W        W19681   3.416   8.209  12.699  0.1999  0.0561  0.1923
 2834W        W19682   6.773   3.029   1.924 -0.2489 -0.2116 -0.0554
 2835W        W19683   7.896   8.125  15.094  0.0884  0.1384  0.0746
 2836W        W19684   3.169  13.838   3.005  0.2580  0.1196  0.1305
 2837W        W19685  14.630   5.639   2.560  0.0907 -0.0620 -0.0279
 2838W        W19686  12.931   7.403   1.112  0.1328 -0.2159  0.2762
 2839W        W19687  10.126   5.641  14.178 -0.3809 -0.0824  0.2673
 2840W        W19688  14.256  16.018   1.042  0.0289 -0.2947 -0.0344
 2841W        W19689  13.697  11.811   3.865  0.0425  0.0580 -0.0057
 2842W        W19690  13.963   7.657  12.523  0.1792  0.1823 -0.1097
 2843W        W19691   6.043   2.050  14.190  0.3294 -0.2993  0.0934
 2844W        W19692  15.680   9.991   1.560 -0.0784  0.0689 -0.2863
 2845W        W19693   4.932  10.523  16.175  0.0689  0.1530 -0.0306
 2846W        W19694  13.943  15.148  17.734  0.2992 -0.1537 -0.4097
 2847W        W19695  15.485  16.137  16.078 -0.1973  0.2826  0.0131
 2848W        W19696  14.168   8.687  14.324  0.1389 -0.0203 -0.0165
 2849W        W19697  13.558   0.686  12.845 -0.2401 -0.0381 -0.0091
 2850W        W19698  17.021  14.016   6.374 -0.1752 -0.0078 -0.1474
 2851W        W19699  11.302  15.369   6.254  0.0522  0.0492  0.2258
 2852W        W19700   4.233   5.848   2.383  0.0810  0.0557  0.2292
 2853W        W19701  15.923   0.043  15.023 -0.0185  0.0514 -0.1355
 2854W        W19702   0.653  13.245   4.619  0.0061  0.4524  0.0443
 2855W        W19703  16.908  13.448   3.842 -0.1382  0.2897 -0.1601
 2856W        W19704  12.697   9.154  11.517 -0.1555 -0.2815 -0.1024
 2857W        W19705   0.111   7.434   4.796 -0.0686  0.1120 -0.3077
 2858W        W19706   8.871  14.361  17.597 -0.3184  0.1778 -0.3322
 2859W        W19707   9.159  12.768   3.494  0.2549 -0.1154  0.2584
 2860W        W19708  13.245   8.208  14.159 -0.1491 -0.1738  0.0147
 2861W        W19709   6.742   7.415  15.050  0.2959  0.2379 -0.1092
 2862W        W19710   7.793   7.217  12.248 -0.1817 -0.3356 -0.2243
 2863W        W19711  12.766   5.603  15.932  0.1824 -0.0607  0.2396
 2864W        W19712  13.223  13.390  17.017 -0.0163  0.1641  0.2811
 2865W        W19713  11.374  13.591  17.141  0.0338  0.0387 -0.1210
 2866W        W19714   2.400   3.779  16.420 -0.1214  0.0937  0.0966
 2867W        W19715  11.683   3.526  16.276  0.0559  0.2242  0.1394
 2868W        W19716  15.074   5.771   5.216 -0.1858  0.0401 -0.2283
 2869W        W19717  10.240   5.421  14.976 -0.2773 -0.0189  0.1105
 2870W        W19718  14.543  15.726   0.735 -0.0314 -0.3183  0.1697
 2871W        W19719  12.303  10.253   4.935 -0.0876  0.0103  0.2641
 2872W        W19720   6.688  14.756   1.033  0.1790  0.3169 -0.6597
 2873W        W19721   8.128   6.193  15.274 -0.0547 -0.1140 -0.1915
 2874W        W19722  13.484   1.707  12.145 -0.0056  0.0741 -0.0442
 2875W        W19723  11.920   7.223  13.779  0.0210 -0.0654 -0.1918
 2876W        W19724   6.663   1.878  12.436 -0.1251  0.1289 -0.0758
 2877W        W19725  13.934  13.605   2.215 -0.1544 -0.3055 -0.1781
 2878W        W19726   2.543   9.176  13.804 -0.0341  0.0005  0.2078
 2879W        W19727   7.228   1.397   0.002  0.1094  0.0776 -0.0939
 2880W        W19728   9.370   7.293   3.956  0.0097  0.1897 -0.2501
 2881W        W19729   0.406  15.646   1.064  0.0441 -0.4352  0.4843
 2882W        W19730  15.149   0.772   5.869 -0.0090 -0.3157  0.2396
 2883W        W19731   4.685  16.431  12.762  0.2156  0.1126 -0.1698
 2884W        W19732   1.567  11.023  12.941  0.1709  0.1565  0.1108
 2885W        W19733  12.111   3.280  15.972 -0.2125  0.1327  0.0972
 2886W        W19734   2.575  15.406   1.688 -0.0483 -0.2327 -0.0834
 2887W        W19735  14.815   7.480   1.453 -0.0075 -0.0987 -0.0323
 2888W        W19736  11.756  11.069  14.455 -0.1126 -0.1032  0.0809
 2889W        W19737  12.009   1.995   0.418  0.0502  0.2678 -0.1788
 2890W        W19738   5.229  12.230  13.694  0.0608  0.0866 -0.0230
 2891W        W19739  12.519   3.080   1.034  0.0279  0.1392  0.2514
 2892W        W19740  10.617   8.628  15.706 -0.3512  0.0456 -0.3184
 2893W        W19741  14.064  17.025  14.283  0.5576 -0.0535  0.0853
 2894W        W19742   2.682  10.962   5.870 -0.0494  0.1813  0.3104
 2895W        W19743  13.346  14.272   1.017 -0.0980 -0.2453  0.2679
 2896W        W19744  10.179   9.758   5.695 -0.1236 -0.0591 -0.1319
 2897W        W19745   4.314   3.078   4.665  0.0145 -0.0902  0.1782
 2898W        W19746  10.409  12.044  12.333 -0.0004  0.2277 -0.2592
 2899W        W19747  16.901  10.678   5.397 -0.4435  0.0727 -0.0633
 2900W        W19748   8.498   4.853   4.737  0.5838  0.0719  0.2975
 2901W        W19749   4.580   9.462  13.371  0.2778 -0.1606 -0.0975
 2902W        W19750  11.212  13.633  15.209 -0.0624  0.0889  0.0789
 2903W        W19751  10.110   6.232   5.263 -0.0828  0.1783 -0.1033
 2904W        W19752   3.748  16.444  12.932  0.0479  0.1995  0.3073
 2905W        W19753   2.965  11.681   0.943 -0.1008 -0.3394 -0.0601
 2906W        W19754  15.989  16.619   4.697  0.0244  0.0181 -0.0868
 2907W        W19755   9.836   8.736   1.834 -0.0271  0.1312 -0.0360
 2908W        W19756  10.827   8.212  15.418  0.1157 -0.2453 -0.2106
 2909W        W19757  12.888   9.377  14.154 -0.0353  0.1051 -0.0475
 2910W        W19758   5.798   1.469   0.515 -0.1205 -0.1614  0.0508
 2911W        W19759  15.348   5.516   3.811 -0.1146  0.1682  0.2026
 2912W        W19760   1.219  14.786   4.268 -0.1547  0.2223 -0.2620
 2913W        W19761  13.396  14.865   0.889  0.1452 -0.3125 -0.1655
 2914W        W19762   0.369   3.050  13.933  0.2423  0.0111  0.2578
 2915W        W19763  10.897   0.137   0.121 -0.2234 -0.1371 -0.0838
 2916W        W19764  11.065  16.052   0.799 -0.0216 -0.0745  0.1525
 2917W        W19765   1.589   4.584   2.332 -0.0233 -0.1153  0.0446
 2918W        W19766   5.447   9.606  17.730  0.0453  0.0650  0.0170
 2919W        W19767   9.627   1.411  15.364  0.1601  0.0916  0.0897
 2920W        W19768   2.218   0.374  16.862  0.1288  0.2506 -0.0052
 2921W        W19769  12.327   9.640  12.141  0.0876  0.0883  0.0216
 2922W        W19770  15.488   2.052   0.474 -0.1697 -0.2732 -0.3354
 2923W        W19771   0.711   3.359  13.383  0.1866 -0.1093 -0.2254
 2924W        W19772   9.205  10.595   2.071  0.1602  0.2611  0.2207
 2925W        W19773   4.486   1.309  13.738 -0.0428 -0.1214 -0.0720
 2926W        W19774  12.499   0.989   3.922 -0.2728  0.3397 -0.0107
 2927W        W19775   8.291   5.453   3.918  0.0169  0.0730  0.1872
 2928W        W19776  15.597  13.673   2.405 -0.0068  0.2851  0.1355
 2929W        W19777  16.059  13.707  13.223  0.2860 -0.2034 -0.0011
 2930W        W19778   3.374  15.516  16.619  0.2745 -0.0410 -0.1291
 2931W        W19779   5.650   7.374   0.121 -0.0359 -0.2834 -0.0571
 2932W        W19780  11.105   4.660  12.554  0.3460  0.0149  0.2279
 2933W        W19781   7.617   4.085   0.361 -0.1290 -0.0470  0.2296
 2934W        W19782  16.421   7.352  13.696 -0.4793  0.1388 -0.0045
 2935W        W19783  10.307   8.927  14.943  0.1355 -0.2672 -0.2178
 2936W        W19784  11.035  15.972  16.775 -0.4216  0.0859  0.2254
 2937W        W19785   8.282  14.714   2.842 -0.1963  0.1354  0.1929
 2938W        W19786  14.298  14.093  17.040  0.2076  0.1913  0.0760
 2939W        W19787  14.688   1.782   5.562 -0.3418  0.1240  0.2304
 2940W        W19788  10.340   6.001  17.327 -0.2764  0.4165  0.2289
 2941W        W19789  12.892  10.701  12.885 -0.0182  0.2515  0.1007
 2942W        W19790  15.386   8.156  15.808 -0.0579 -0.0820  0.0066
 2943W        W19791  16.509   6.708  13.906  0.1321 -0.1608  0.1286
 2944W        W19792   2.169   3.682   2.248 -0.1433 -0.1513  0.2070
 2945W        W19793   2.780  14.419   3.749  0.0624  0.0667  0.1824
 2946W        W19794   8.154  14.402   1.114 -0.1415  0.1210 -0.2264
 2947W        W19795   8.459   0.185  15.131 -0.1887  0.0073 -0.0755
 2948W        W19796   8.946  14.230   3.611  0.1823 -0.1805  0.1194
 2949W        W19797  16.156   6.580   1.674  0.0530 -0.2509  0.1430
 2950W        W19798   3.986   0.958   5.742  0.1277 -0.1849 -0.0328
 2951W        W19799  11.503  13.314  14.178  0.1264 -0.1598 -0.1100
 2952W        W19800   8.869  14.980   2.912 -0.2863  0.1396 -0.2023
 2953W        W19801   1.066   5.351   6.418 -0.0596 -0.2907  0.1599
 2954W        W19802   0.044   2.622  15.007 -0.2407  0.0490 -0.2459
 2955W        W19803   4.547  10.939   3.247 -0.0535  0.5419  0.0670
 2956W        W19804  14.758   9.533  17.667 -0.0239 -0.1368  0.1836
 2957W        W19805   8.679  10.137   0.057 -0.0830  0.0346 -0.2328
 2958W        W19806   1.207   8.832   0.430 -0.0305  0.1087  0.0147
 2959W        W19807  13.723   7.429  14.236 -0.2767 -0.0056  0.0638
 2960W        W19808  14.138   2.362  16.143 -0.1151  0.1355 -0.3549
 2961W        W19809   9.184   9.194  16.307 -0.4805  0.3051 -0.0985
 2962W        W19810  15.988   8.947   4.438 -0.0440 -0.1776 -0.2527
 2963W        W19811  12.871  14.164  15.738  0.2338  0.0021 -0.1305
 2964W        W19812  13.243   9.249  12.646 -0.1301  0.0933 -0.0266
 2965W        W19813   3.302  10.896  13.505 -0.0811  0.6460  0.1213
 2966W        W19814   6.614   8.596   2.440 -0.0602 -0.2599 -0.1492
 2967W        W19815   8.567  16.565  15.834  0.1559  0.2163 -0.1832
 2968W        W19816   1.250   8.707   3.995 -0.4352 -0.2661  0.1210
 2969W        W19817   3.068   9.490   4.162  0.5188  0.1203  0.0318
 2970W        W19818   3.822   9.639  17.809 -0.0144  0.1059 -0.0584
 2971W        W19819  10.543   8.792   3.828 -0.3007  0.2284  0.1421
 2972W        W19820   7.067  13.299   3.538  0.1738 -0.1655 -0.1353
 2973W        W19821   7.443   0.216  16.051 -0.1232  0.1289  0.0052
 2974W        W19822   6.240   7.791   5.449 -0.0907  0.1122  0.0702
 2975W        W19823   4.284   9.494  12.496  0.1079  0.0685  0.0093
 2976W        W19824   6.150   2.986  15.850 -0.1253 -0.3340 -0.0097
 2977W        W19825  13.038  15.063   4.880  0.1292  0.0700  0.2886
 2978W        W19826  11.882   0.267   2.477  0.0849 -0.0677 -0.0364
 2979W        W19827   7.745  16.376   4.443 -0.0309 -0.0566 -0.1808
 2980W        W19828   3.338   5.510  15.097  0.0858 -0.0303  0.0107
 2981W        W19829   2.825   1.686   3.095 -0.0260  0.2763 -0.1559
 2982W        W19830  10.366   5.452   2.804  0.1763 -0.1213 -0.2035
 2983W        W19831  11.000   5.067  13.471  0.1672  0.0830 -0.1108
 2984W        W19832   8.954   8.513   0.713 -0.0052  0.0789 -0.0641
 2985W        W19833  16.152   3.241  14.389  0.1140 -0.0982  0.0218
 2986W        W19834   3.452   3.847  17.643 -0.1692  0.0615 -0.1479
 2987W        W19835  10.526   9.504   5.388 -0.1405  0.1678 -0.1475
 2988W        W19836  11.234  10.522  13.075 -0.2581  0.0753 -0.0044
 2989W        W19837   2.372   3.332   0.928  0.1843  0.0881  0.0683
 2990W        W19838   9.756   6.949   3.860  0.0844 -0.0265  0.1286
 2991W        W19839   8.636   5.303   2.640 -0.0765 -0.1517  0.1960
 2992W        W19840  10.609   6.810  13.978  0.0317  0.1053 -0.0853
 2993W        W19841  11.968   9.719   0.513 -0.0262 -0.0736 -0.1672
 2994W        W19842   8.186  10.443   2.584  0.1189 -0.0323 -0.0601
 2995W        W19843   9.949  10.575  15.135 -0.2638  0.1698  0.1465
 2996W        W19844  10.439  15.413   0.911  0.1050 -0.0615  0.1300
 2997W        W19845   5.495   7.105  14.657  0.1686 -0.1229 -0.3414
 2998W        W19846  15.664  13.312  15.485 -0.2405 -0.0172  0.1366
 2999W        W19847   1.201  12.198  14.431  0.0815  0.2640 -0.1543
 3000W        W19848  10.407  13.493   0.773  0.3847 -0.0266  0.0435
 3001W        W19849   4.757  10.937   1.263 -0.1355  0.0581 -0.0897
 3002W        W19850   8.723  16.824   6.544  0.4114 -0.1878  0.1665
 3003W        W19851   2.389   9.189  16.702 -0.0658 -0.0500 -0.1763
 3004W        W19852  15.215   6.114  13.281 -0.2103  0.2236 -0.0905
 3005W        W19853  11.565  12.517  12.883 -0.1798 -0.0171  0.0791
 3006W        W19854  12.992  11.175   1.711  0.0192  0.0823  0.4053
 3007W        W19855   8.946   9.269   1.767 -0.1714 -0.1030  0.1540
 3008W        W19856  10.769  13.304   4.129  0.0584  0.1812 -0.4573
 3009W        W19857   5.580  16.297   0.393  0.1947 -0.1501  0.2198
 3010W        W19858  10.730   3.841  14.121 -0.2173 -0.0209  0.0532
 3011W        W19859  13.235   9.512  13.519 -0.0335  0.1368 -0.3923
 3012W        W19860   0.719   9.962   0.751  0.1117  0.3403 -0.0433
 3013W        W19861  16.019  16.944  17.109  0.1587  0.0599  0.1455
 3014W        W19862   1.174  12.248   0.651 -0.1655 -0.2957 -0.1627
 3015W        W19863   1.475   5.611   3.609 -0.1877  0.2720  0.1436
 3016W        W19864   4.757   9.905  14.338  0.0552 -0.1336  0.0870
 3017W        W19865  11.718  10.647   2.779 -0.0250  0.1436 -0.2895
 3018W        W19866   3.198   0.654  14.599  0.1070 -0.1446 -0.3325
 3019W        W19867   1.445   4.864   0.624 -0.1884  0.3244  0.0359
 3020W        W19868  10.760   3.740  17.607  0.2562  0.0128 -0.1115
 3021W        W19869   7.205   9.329  14.322 -0.0542 -0.0557 -0.2843
 3022W        W19870  14.288  12.777  12.034 -0.1633 -0.0711  0.1745
 3023W        W19871   7.471  10.305  12.986 -0.1789 -0.2091  0.1968
 3024W        W19872   9.092  14.327  13.037  0.1110  0.2515  0.0236
 3025W        W19873   1.191  12.318   3.752 -0.0016 -0.2229 -0.0805
 3026W        W19874   7.760   5.625   2.648  0.0531 -0.1609 -0.2538
 3027W        W19875  15.740  12.403   5.173  0.1229  0.0595  0.1482
 3028W        W19876   9.870   8.037  16.448  0.2529  0.0907 -0.2638
 3029W        W19877   5.919   0.761   0.131  0.2123 -0.1559 -0.4804
 3030W        W19878  10.541  14.155   4.528  0.1356 -0.0494 -0.2104
 3031W        W19879  10.632   6.109   2.939  0.0292  0.2318 -0.1102
 3032W        W19880   6.427   8.033   2.917  0.1867 -0.0174  0.0394
 3033W        W19881  12.287   7.837   3.860 -0.0887 -0.1845 -0.1189
 3034W        W19882   2.138  16.895  13.391  0.0997  0.1601 -0.0393
 3035W        W19883   6.881  13.935   1.810  0.0014 -0.2325 -0.0429
 3036W        W19884   3.388  14.679   2.473  0.3037 -0.1547 -0.3150
 3037W        W19885  15.066   1.673   6.532  0.1811 -0.1096  0.1839
 3038W        W19886  14.677   8.263   5.143 -0.1633 -0.1691  0.3124
 3039W        W19887   1.687  11.622   2.721 -0.1583  0.0392 -0.0220
 3040W        W19888   9.654  13.536  14.766  0.0578 -0.3858 -0.0826
 3041W        W19889   9.943  12.887   1.301 -0.0803  0.0277 -0.4247
 3042W        W19890   4.717   4.130   5.582 -0.0672  0.2860 -0.0819
 3043W        W19891  15.226  10.617  11.420  0.0509 -0.1013  0.0230
 3044W        W19892   3.675   1.736  13.181  0.0064 -0.2767 -0.1595
 3045W        W19893  11.625  11.654   0.727  0.0226 -0.0231  0.3014
 3046W        W19894   8.413   6.796  16.989  0.1422  0.0900 -0.2338
 3047W        W19895   0.974   9.716  13.931 -0.4338 -0.0770  0.1539
 3048W        W19896   7.676   1.228  16.463  0.1892  0.0601  0.0610
 3049W        W19897   9.989   8.312  14.299  0.3167  0.1002 -0.0163
 3050W        W19898   0.163   6.121   5.051 -0.0773 -0.1517  0.1918
 3051W        W19899   4.833  13.566   4.014 -0.2579  0.4222  0.3347
 3052W        W19900   3.370   5.916   3.770  0.2816  0.3699 -0.0029
 3053W        W19901  10.067   8.482  14.827  0.1346  0.0110 -0.0041
 3054W        W19902   6.100  13.954  17.560 -0.2289 -0.0431 -0.2565
 3055W        W19903   1.807   9.739  17.173 -0.4199 -0.2485 -0.0225
 3056W        W19904  10.005  10.570  17.458  0.0785 -0.3980  0.2387
 3057W        W19905   8.416  13.963  15.554  0.0332  0.1140  0.1849
 3058W        W19906  13.696  13.608  16.871 -0.0433  0.0489 -0.5039
 3059W        W19907  16.856   5.576  17.664 -0.0020 -0.0428 -0.2600
 3060W        W19908  11.934  15.316  15.332 -0.1594  0.0159  0.0347
 3061W        W19909   3.804   3.232  16.912 -0.2515  0.3009  0.2650
 3062W        W19910   9.862   9.419  17.061 -0.1461  0.1073  0.3406
 3063W        W19911   6.646   2.850  14.290 -0.0606  0.2229 -0.2273
 3064W        W19912  16.980  11.286  16.362  0.1187 -0.0187  0.1956
 3065W        W19913  12.828  14.122  12.161  0.0803  0.0285  0.1060
 3066W        W19914  14.378   7.385  17.343 -0.1675 -0.0173 -0.1508
 3067W        W19915   5.766   8.213   2.488 -0.2314 -0.0119 -0.3344
 3068W        W19916   3.586   8.320  16.543  0.1018  0.0190  0.1994
 3069W        W19917  12.262  15.473  17.687 -0.1871  0.1130 -0.0305
 3070W        W19918   0.771  13.788  17.567  0.2589 -0.1218 -0.1316
 3071W        W19919   2.965   3.988  14.774 -0.0527 -0.0221  0.1962
 3072W        W19920   2.136  10.217   1.668  0.0401 -0.0029 -0.2121
 3073W        W19921   2.139   6.621  16.863 -0.1442  0.0519 -0.0961
 3074W        W19922   0.981   4.240  13.821  0.3843 -0.0172  0.1037
 3075W        W19923   6.946   9.974   5.492  0.2208 -0.0203  0.0953
 3076W        W19924   3.342   9.385   0.919  0.1357  0.2819 -0.0126
 3077W        W19925   5.643   6.152   5.660 -0.0202  0.0992 -0.0803
 3078W        W19926  10.540   3.176  13.404  0.1620 -0.6394 -0.3988
 3079W        W19927  16.449   3.338  16.256 -0.1409 -0.0309  0.2499
 3080W        W19928   4.577  15.171   1.998 -0.0834  0.1065  0.4747
 3081W        W19929   4.979  10.745  12.604  0.0934  0.3284  0.0858
 3082W        W19930   3.756   3.375  16.357  0.0815 -0.1358 -0.2751
 3083W        W19931   1.809   8.473  16.021  0.1221  0.1557  0.1602
 3084W        W19932  15.341   6.416  15.730  0.2178 -0.0712 -0.0105
 3085W        W19933  13.072   6.914  17.373  0.1253  0.1070  0.0353
 3086W        W19934  16.828   0.730   2.322  0.1948 -0.1985 -0.0892
 3087W        W19935  10.282  15.446  13.430 -0.0758  0.0899  0.1057
 3088W        W19936  14.331  16.721   2.402  0.0670  0.1345 -0.2017
 3089W        W19937  13.183  16.728   3.271  0.1914 -0.0712  0.0983
 3090W        W19938   6.798   0.322   2.189  0.2648  0.1236 -0.0017
 3091W        W19939  15.435  11.902   2.841  0.0082 -0.1828  0.2061
 3092W        W19940  17.057  16.739   3.681  0.1016 -0.1474 -0.0969
 3093W        W19941  11.248   4.367  16.479  0.0644 -0.2396  0.2386
 3094W        W19942   2.971  15.940  17.796  0.3979 -0.0061  0.2954
 3095W        W19943  13.715   5.134   5.140  0.2774  0.3563 -0.0486
 3096W        W19944  13.754   6.402   5.938  0.0145  0.0264 -0.2622
 3097W        W19945   6.104  16.791   4.730 -0.0369 -0.3923 -0.1073
 3098W        W19946   3.323  13.569  13.007  0.1285 -0.0953  0.0234
 3099W        W19947   2.553   6.978  16.743 -0.0159 -0.0208 -0.3256
 3100W        W19948   7.865  11.578  13.488 -0.2625 -0.2764  0.1335
 3101W        W19949   7.186  14.107   0.454  0.0917  0.0150 -0.0390
 3102W        W19950   2.178   2.442  16.852 -0.4013 -0.3455  0.0039
 3103W        W19951  11.722   7.288   3.383 -0.2308  0.1730  0.0561
 3104W        W19952   8.160  13.679  13.935 -0.3519 -0.3581 -0.2827
 3105W        W19953   9.286  16.536   4.576 -0.0315 -0.1140 -0.1104
 3106W        W19954  11.922   7.911  16.539 -0.1445  0.2249  0.1866
 3107W        W19955  10.506   0.820   3.727 -0.1146  0.5066  0.1457
 3108W        W19956   2.110   0.854   1.301 -0.2867  0.1338 -0.1308
 3109W        W19957   8.460   0.428  16.947  0.3990  0.0138  0.0670
 3110W        W19958  13.419   0.267  13.713 -0.1950 -0.1180 -0.1565
 3111W        W19959   5.147  10.794  17.111 -0.1922  0.2820 -0.0912
 3112W        W19960   3.484  12.205  15.078  0.0217  0.1710  0.0379
 3113W        W19961  11.192   5.569  13.529 -0.0153 -0.3158  0.0048
 3114W        W19962  15.900  12.043   4.154  0.0206 -0.0373  0.2519
 3115W        W19963   0.344  14.954   5.263 -0.2507  0.0488  0.3088
 3116W        W19964   7.162   0.175  13.280  0.2885 -0.0328 -0.3511
 3117W        W19965   6.432   1.278  12.468 -0.1202  0.2762  0.0011
 3118W        W19966  14.851   0.644   5.009  0.0103 -0.1316 -0.1962
 3119W        W19967   1.824  12.906  16.393  0.0847 -0.0585  0.1235
 3120W        W19968  15.326   6.604  14.927 -0.1001  0.1147 -0.0779
 3121W        W19969  12.212   9.488   2.120 -0.3049  0.2113 -0.2238
 3122W        W19970   0.658   3.496  13.870  0.1421  0.0305 -0.1764
 3123W        W19971  13.106  12.381   5.237  0.0132  0.2053 -0.1250
 3124W        W19972  16.981   8.568   2.517 -0.0567 -0.2024 -0.1723
 3125W        W19973  15.787   2.268   2.536 -0.3034 -0.1133 -0.1580
 3126W        W19974  16.973  16.088  14.393  0.0416  0.2318  0.0587
 3127W        W19975  11.226  12.898   3.444  0.2734  0.2209 -0.0454
 3128W        W19976  12.765   2.999   0.302  0.0197 -0.0711  0.2320
 3129W        W19977   3.744   2.369   0.325  0.3383 -0.2443  0.1464
 3130W        W19978   8.314   4.816   1.891 -0.0869 -0.0028 -0.1725
 3131W        W19979  13.929   0.625  15.970  0.0650  0.0058  0.0701
 3132W        W19980   6.777  13.404  13.405  0.0945 -0.1821 -0.0936
 3133W        W19981  13.072  10.268  16.894 -0.2825  0.0014 -0.0674
 3134W        W19982  12.763  12.239   3.854  0.0502  0.1446 -0.0787
 3135W        W19983   0.346   6.449  12.734 -0.2025  0.0462  0.0646
 3136W        W19984  15.638   5.991   0.933 -0.0121 -0.0232 -0.0039
 3137W        W19985   8.029  15.790   5.115  0.0005 -0.0307  0.0026
 3138W        W19986  10.540  15.354   6.346  0.1233 -0.1864 -0.0644
 3139W        W19987  11.428   7.405   4.109 -0.1630  0.0766  0.0779
 3140W        W19988   0.688  16.952   0.533 -0.1323 -0.0054  0.0751
 3141W        W19989  13.768  13.247   4.231 -0.2610  0.1056  0.1187
 3142W        W19990  16.687   3.668  17.108 -0.1945 -0.1906 -0.1332
 3143W        W19991   5.573   2.592  13.326  0.1721  0.0210 -0.0387
 3144W        W19992  13.791   7.891   0.177 -0.1509 -0.1082 -0.0968
 3145W        W19993   5.747  13.017  17.607  0.0994  0.0530 -0.1544
 3146W        W19994   7.859   1.021  17.407  0.2445 -0.1580 -0.1147
 3147W        W19995  13.081  14.238   5.364 -0.2110  0.2655 -0.0992
 3148W        W19996   4.897   8.317  14.068 -0.0600 -0.1266  0.3230
 3149W        W19997   8.854   3.105  17.053  0.2288 -0.3096  0.3002
 3150W        W19998   1.295  13.780  15.266  0.0400 -0.1343  0.1825
 3151W        W19999   1.862   2.489  13.306  0.2616 -0.1155 -0.1681
 3152W        W20000   0.517   8.521   1.715  0.0787 -0.2104  0.1624
 3153W        W20001   9.280   3.407  17.118 -0.0716  0.0809 -0.1298
 3154W        W20002  10.251  11.289  15.758  0.3276  0.0087  0.0545
 3155W        W20003  11.957  14.973  16.666  0.0130  0.0312 -0.0335
 3156W        W20004   9.395   8.610   3.159  0.1253  0.1152  0.2263
 3157W        W20005   1.891  14.228  15.893  0.2759  0.0545  0.1037
 3158W        W20006   5.738   6.291  12.459 -0.0000  0.0995 -0.2897
 3159W        W20007   8.971   7.058  15.248  0.1134  0.2618  0.0630
 3160W        W20008   2.571  16.992  15.193 -0.0322  0.3587 -0.1164
 3161W        W20009  16.884   3.365   0.654 -0.1391 -0.1078 -0.1504
 3162W        W20010   4.044   1.490   2.071 -0.1670  0.3890  0.0586
 3163W        W20011  16.879  10.557  16.814  0.0090  0.1573 -0.1368
 3164W        W20012  15.564   2.262  17.200  0.0514 -0.0619  0.3377
 3165W        W20013  10.632   8.928  14.130  0.0831 -0.4044 -0.2564
 3166W        W20014  11.553   7.634   1.658 -0.1999 -0.1316 -0.2722
 3167W        W20015  13.485  11.787  13.764  0.1761  0.1923 -0.0499
 3168W        W20016   7.571   4.621   2.736 -0.0657 -0.0149 -0.2610
 3169W        W20017  16.958  10.087   0.444  0.0355 -0.1506 -0.3211
 3170W        W20018   0.461  10.670   6.255 -0.2340 -0.1329  0.0196
 3171W        W20019  14.210   2.313   6.389  0.1314 -0.2021 -0.0422
 3172W        W20020  13.657   4.726  15.286  0.0727  0.1654  0.0149
 3173W        W20021   0.669   3.588  12.168 -0.0081 -0.3317  0.0154
 3174W        W20022  13.792  14.276  12.451  0.0061 -0.1294  0.1818
 3175W        W20023   3.317  11.873  13.162  0.3255  0.1584 -0.1655
 3176W        W20024   4.288  11.949   2.696 -0.1127  0.0502  0.0773
 3177W        W20025  15.137  10.347   4.679  0.2773  0.2300  0.1216
 3178W        W20026   0.746  14.147  13.587  0.1466 -0.0127 -0.3301
 3179W        W20027  10.870   3.903  16.822  0.2435 -0.0547 -0.0711
 3180W        W20028  16.288   8.154  15.192  0.1262 -0.0333 -0.1951
 3181W        W20029   4.852  10.403   0.634 -0.0428 -0.1690  0.2051
 3182W        W20030  12.633   0.972  15.424 -0.0870 -0.3729  0.0867
 3183W        W20031  15.605  15.925   1.407  0.0948 -0.0868  0.2073
 3184W        W20032   2.825  15.802   4.818  0.1726  0.2340  0.0139
 3185W        W20033   5.081  15.709  13.127  0.3439  0.0297  0.0481
 3186W        W20034  10.364   8.802   1.589 -0.1604  0.4488 -0.3038
 3187W        W20035   6.486   1.274   1.112 -0.0026 -0.2719  0.2020
 3188W        W20036  14.296  16.324   2.709  0.3156 -0.1896  0.1584
 3189W        W20037   7.856  11.007   3.579 -0.0737  0.2758 -0.3208
 3190W        W20038  12.812   0.361  12.233 -0.0886 -0.1425 -0.1039
 3191W        W20039   8.522   4.437   2.844  0.1240 -0.2004 -0.0461
 3192W        W20040  11.313  11.340  14.448 -0.0188 -0.3996 -0.0756
 3193W        W20041  12.260   2.538   2.861  0.1652  0.1144  0.0289
 3194W        W20042   1.648   3.031  15.796 -0.4161 -0.1831  0.0414
 3195W        W20043  13.369   3.107  14.254  0.1713 -0.0226  0.0277
 3196W        W20044  14.273   1.605  15.149 -0.0420 -0.0859 -0.0816
 3197W        W20045   7.643  14.940  12.821  0.2155 -0.1144  0.0528
 3198W        W20046   1.336   8.519   2.408  0.2186  0.0430 -0.0644
 3199W        W20047   2.344   1.019   4.133 -0.2723 -0.0480 -0.2182
 3200W        W20048   5.434  13.714   0.776  0.2959 -0.0093  0.0895
 3201W        W20049  15.113  15.639   2.184  0.0041 -0.3415 -0.1758
 3202W        W20050   1.321   5.940  15.544 -0.0578 -0.0748 -0.2044
 3203W        W20051  12.372   5.083  13.129  0.3715  0.0142 -0.0848
 3204W        W20052   3.477  14.557  15.322 -0.1259 -0.1926 -0.3401
 3205W        W20053  14.725  11.923   5.293  0.0766  0.2466  0.0977
 3206W        W20054  10.306   9.554  17.815  0.0244 -0.1747  0.0081
 3207W        W20055   9.881  14.202   1.681  0.3391 -0.0893  0.0237
 3208W        W20056   8.791  10.654   4.835 -0.1237 -0.1374  0.2170
 3209W        W20057   1.174  13.358  13.877 -0.0723  0.2258  0.3623
 3210W        W20058   6.588  14.471   5.798 -0.0757 -0.3539  0.1589
 3211W        W20059   0.222   9.328  17.618  0.0546  0.3563  0.0539
 3212W        W20060   7.538  12.529  12.357 -0.2753  0.0635  0.1055
 3213W        W20061  16.811  12.166  15.314  0.3346 -0.2837 -0.0477
 3214W        W20062  11.192  10.431   3.817  0.0949  0.0927  0.0088
 3215W        W20063   5.321  16.859  13.470  0.1175  0.0168  0.3015
 3216W        W20064   7.883  10.690  17.122 -0.0128 -0.0761 -0.1668
 3217W        W20065  16.042  16.953  14.358  0.0879  0.0117 -0.1329
 3218W        W20066   0.122   9.615  15.759  0.2504 -0.2466 -0.0622
 3219W        W20067  15.881   4.200  14.491 -0.0983  0.1809  0.1223
 3220W        W20068  12.406   9.542  14.998  0.2115 -0.1409 -0.2229
 3221W        W20069  14.911  11.582  17.666  0.2540  0.1944 -0.2028
 3222W        W20070   3.443   2.878   2.262  0.1904 -0.2328  0.0619
 3223W        W20071   3.088   8.043   5.252 -0.0995  0.0517  0.2013
 3224W        W20072  14.597   4.999  17.319  0.1275 -0.3070  0.1142
 3225W        W20073   6.845   3.339   1.447 -0.2695  0.0414 -0.0691
 3226W        W20074   3.727   4.346   2.902  0.0335 -0.0001  0.0334
 3227W        W20075  10.482   2.629  12.725  0.2133 -0.0739 -0.1069
 3228W        W20076  12.294  16.192  16.129 -0.2260  0.1392 -0.1373
 3229W        W20077   4.690  11.727   5.540  0.0493  0.0583 -0.1109
 3230W        W20078  14.777   6.136   5.701  0.0455 -0.2645 -0.0723
 3231W        W20079  15.500  12.727  16.650  0.0918 -0.1678  0.3595
 3232W        W20080   3.157   0.686   4.224 -0.1386 -0.3942  0.0781
 3233W        W20081   9.908   5.426  13.742  0.0929 -0.0622  0.0564
 3234W        W20082  11.178   4.725  17.106  0.1452  0.0052 -0.2763
 3235W        W20083  11.988   5.364  12.407  0.0264  0.0489 -0.2302
 3236W        W20084  16.664  15.491   0.789  0.2143  0.2855 -0.0382
 3237W        W20085   7.863   4.984   0.353 -0.0734 -0.1696 -0.0149
 3238W        W20086   4.991   3.599  16.865 -0.1923  0.0698 -0.2189
 3239W        W20087   1.198   8.005  14.770 -0.1056 -0.1850  0.0726
 3240W        W20088  14.405   7.500   0.489 -0.4661 -0.1913  0.0459
 3241W        W20089   6.521   6.153  14.461  0.1407  0.1240 -0.0568
 3242W        W20090  11.660   0.069  13.219  0.0985  0.1803 -0.0630
 3243W        W20091  12.552   9.014  14.255 -0.0125 -0.1406  0.0799
 3244W        W20092   5.714   1.531  11.466  0.2687  0.1130 -0.0134
 3245W        W20093  10.324   0.703  14.849  0.1053  0.2415 -0.2012
 3246W        W20094   3.179   5.026   0.448 -0.0831 -0.1273  0.1641
 3247W        W20095   1.104   8.891  13.436 -0.2024 -0.1510 -0.0623
 3248W        W20096   1.776   7.322   2.032 -0.3097  0.1078  0.2300
 3249W        W20097  11.705  11.857  14.537 -0.0901 -0.0276  0.2643
 3250W        W20098  11.818   4.347  13.408  0.1102  0.3352  0.0725
 3251W        W20099  15.298   5.675   4.723 -0.1037 -0.3259 -0.0665
 3252W        W20100   8.541   9.242   5.937  0.1975  0.0789 -0.1094
 3253W        W20101   6.981   1.212   1.166  0.0732 -0.0976  0.0125
 3254W        W20102   5.856  13.169  11.965  0.0289  0.1827 -0.1563
 3255W        W20103  10.955  12.457   4.023 -0.0686 -0.0628 -0.2185
 3256W        W20104   6.040   6.821  13.878  0.0325 -0.0748  0.0244
 3257W        W20105  16.587   3.206  15.732  0.0433  0.0506  0.0908
 3258W        W20106   1.229  10.571  13.018  0.0916 -0.2286  0.0726
 3259W        W20107  15.985   4.798   3.130  0.3402 -0.0377  0.1659
 3260W        W20108   8.154   2.176   2.077 -0.1404 -0.0949 -0.2609
 3261W        W20109   7.367   0.348  11.934 -0.1554  0.1157  0.0961
 3262W        W20110   4.215   6.622   1.355  0.0887 -0.1541 -0.1669
 3263W        W20111  11.033   0.943  15.518  0.1867  0.2415  0.0837
 3264W        W20112  11.010  10.074   4.644  0.2596 -0.0930  0.2300
 3265W        W20113  11.033   5.888   5.139 -0.2279 -0.1459 -0.1903
 3266W        W20114   5.940  15.681   2.000 -0.2168 -0.1200  0.1786
 3267W        W20115   4.236  14.465  15.911 -0.0167  0.0114 -0.1512
 3268W        W20116   1.530   3.037   5.800 -0.0150 -0.1435 -0.0549
 3269W        W20117   6.393   9.723   1.194 -0.1869 -0.4068 -0.0852
 3270W        W20118   9.278   4.602  12.898  0.3236  0.2732 -0.3142
 3271W        W20119  10.734   7.528  13.999 -0.0421 -0.0860  0.0151
 3272W        W20120   5.161   2.871  13.564 -0.0189 -0.0501  0.1804
 3273W        W20121   9.387   9.204   2.560 -0.0640 -0.1626 -0.1864
 3274W        W20122   0.937   4.272  16.531  0.4308  0.2357  0.0910
 3275W        W20123  12.515  13.823  14.631  0.3552 -0.4908  0.1118
 3276W        W20124  15.267   2.293   5.226  0.0059 -0.2279  0.0782
 3277W        W20125   8.166  15.743  15.637 -0.0230 -0.1382  0.2828
 3278W        W20126   3.441   4.560   4.409  0.2426  0.0706  0.2268
 3279W        W20127   0.615   5.451   1.557 -0.2174 -0.1239  0.0718
 3280W        W20128   0.271   5.243  17.807 -0.2266  0.2783 -0.0263
 3281W        W20129   4.133  14.401   2.241  0.1846 -0.2027 -0.0960
 3282W        W20130  12.678  10.339   1.334 -0.0262 -0.1255 -0.0358
 3283W        W20131  16.338   4.597   3.452  0.0645  0.0865 -0.0198
 3284W        W20132   2.163   9.990  14.807  0.0292  0.2058 -0.0364
 3285W        W20133   0.186   2.160  17.832 -0.2470  0.1130  0.1465
 3286W        W20134   4.087   6.089   5.902  0.0963  0.1642 -0.0225
 3287W        W20135   1.177  11.017   0.219  0.2064 -0.2605 -0.0226
 3288W        W20136   6.419  13.589  17.234  0.3479 -0.2318 -0.1110
 3289W        W20137  13.793   6.110  16.754 -0.2740  0.1810  0.0342
 3290W        W20138   0.340  11.531   2.498  0.1380  0.0916  0.1556
 3291W        W20139   0.459  11.435  14.196 -0.0831 -0.2616  0.1972
 3292W        W20140  10.989  10.017   1.641 -0.1911  0.0044 -0.0709
 3293W        W20141   2.709  13.893   3.888  0.0988  0.1521  0.1214
 3294W        W20142  10.314   4.931   1.508  0.0254 -0.0977 -0.2247
 3295W        W20143   4.643   4.017   1.900 -0.0938 -0.2822  0.0296
 3296W        W20144   2.712  14.900  15.781 -0.2413 -0.1234  0.0715
 3297W        W20145  10.722  13.128   2.160  0.0606 -0.1631 -0.0527
 3298W        W20146   1.059   4.484   1.601 -0.0929  0.2694  0.0194
 3299W        W20147  11.263   0.617   4.790  0.1963 -0.1775 -0.0006
 3300W        W20148  11.532   8.129   2.887 -0.1255 -0.0129 -0.2278
 3301W        W20149   1.215   0.337   1.677 -0.0305  0.0953 -0.2732
 3302W        W20150   6.702   3.263  17.824  0.1190 -0.3812 -0.2586
 3303W        W20151  14.460   5.534   1.041  0.0559 -0.2375  0.1281
 3304W        W20152  10.882   0.352   5.327  0.3897  0.0952  0.1552
 3305W        W20153   6.236  10.359   2.131 -0.3544  0.2917  0.1847
 3306W        W20154  16.230  14.099   3.437  0.1312  0.3516 -0.2092
 3307W        W20155   2.351  11.786   2.818 -0.0233  0.2442 -0.0566
 3308W        W20156  11.701  10.302   5.287  0.0387  0.0149 -0.3290
 3309W        W20157   4.259   9.285   5.691 -0.0306  0.1204 -0.3027
 3310W        W20158   9.150  16.243   3.587 -0.1659 -0.1267  0.2421
 3311W        W20159  15.641   2.464  15.898  0.0459 -0.1654  0.2925
 3312W        W20160  14.680   4.038   5.099 -0.2318  0.3318  0.0981
 3313W        W20161  16.734  10.801  13.994  0.1284  0.0256  0.2994
 3314W        W20162   6.385  10.271  17.117 -0.0598 -0.3655 -0.0276
 3315W        W20163  15.939   2.077   0.669 -0.0606 -0.0403 -0.0213
 3316W        W20164   7.187  12.272   0.112 -0.0070  0.1144  0.0081
 3317W        W20165  15.987   3.908  13.712 -0.1241 -0.2427  0.1001
 3318W        W20166   3.367  11.988   0.140  0.0014 -0.1512 -0.2681
 3319W        W20167  11.634   3.584   5.711 -0.1365  0.3135 -0.2201
 3320W        W20168   5.546   9.097  12.271 -0.3600  0.1101 -0.0861
 3321W        W20169   2.679  16.702   1.248 -0.0521 -0.2989 -0.0118
 3322W        W20170  16.681  12.049   1.859  0.2331 -0.0166 -0.1337
 3323W        W20171   6.388   9.264  17.300  0.1909  0.2309 -0.0914
 3324W        W20172  12.866  11.433   3.019  0.1135  0.1438  0.2872
 3325W        W20173  13.295  12.829   1.250  0.0920  0.0119 -0.0467
 3326W        W20174  15.325   1.962  14.460  0.0030  0.0373 -0.0971
 3327W        W20175  14.507   0.524  17.620 -0.0598 -0.1436 -0.3428
 3328W        W20176  10.455  10.524   6.214  0.0897 -0.3725  0.0912
 3329W        W20177  15.730   6.674  17.164 -0.2095 -0.1535  0.1520
 3330W        W20178  10.113   8.439  17.337 -0.1092  0.1600 -0.0965
 3331W        W20179  11.611   0.001  15.747  0.0263 -0.4540 -0.1560
 3332W        W20180   7.542   3.241   1.816 -0.2164  0.0249  0.2721
 3333W        W20181  12.071  16.514   1.290  0.1218  0.2274  0.0864
 3334W        W20182   3.876   7.516  14.272 -0.0087 -0.0625  0.0694
 3335W        W20183  15.547   1.752  11.333  0.3465 -0.2163 -0.0885
 3336W        W20184   3.877   8.306  15.524  0.1508  0.2507 -0.1580
 3337W        W20185   9.591  12.621   3.860  0.2443 -0.1091  0.0957
 3338W        W20186   2.785   1.608   5.542 -0.4578 -0.1878  0.1167
 3339W        W20187  14.917  13.464  16.536  0.1760 -0.0487  0.0048
 3340W        W20188   0.661  10.110   2.127  0.0312 -0.1661  0.0909
 3341W        W20189   6.713   3.994  17.433  0.0473 -0.1977  0.3598
 3342W        W20190  14.437   6.899   5.651 -0.2913 -0.0506 -0.1046
 3343W        W20191  10.956  13.541  16.112  0.2342 -0.1508  0.0122
 3344W        W20192  14.404   5.837   4.773 -0.0443 -0.2446  0.0767
 3345W        W20193   9.931  16.489   4.056 -0.1234  0.1449  0.2461
 3346W        W20194  12.590  12.188  16.371  0.1365 -0.0397 -0.1978
 3347W        W20195   7.941   8.896   3.196  0.2241 -0.1464 -0.2952
 3348W        W20196   8.441   5.847  12.226  0.0479 -0.1341 -0.1069
 3349W        W20197   9.689  11.930  16.917 -0.1005  0.2414 -0.0477
 3350W        W20198  11.697  14.174  11.396 -0.0441  0.1408 -0.0280
 3351W        W20199  10.058   4.570   3.754 -0.2358 -0.0797 -0.1135
 3352W        W20200  15.405   2.618  13.027  0.1012 -0.1605 -0.0422
 3353W        W20201   7.085  13.483   2.008 -0.0924 -0.0668  0.0655
 3354W        W20202   1.735  15.902  13.299  0.0436 -0.1342  0.0679
 3355W        W20203  13.667  17.023   0.579  0.1316  0.2681  0.0711
 3356W        W20204   7.709  12.517  13.779 -0.1705 -0.0188  0.2012
 3357W        W20205   0.992   1.140  16.470  0.0753 -0.0745 -0.5673
 3358W        W20206  11.474  11.501   0.250 -0.0026 -0.1947  0.0223
 3359W        W20207  15.245  12.689  12.000 -0.0064  0.0210  0.0163
 3360W        W20208   9.144   3.229  14.212  0.0764 -0.3656 -0.1808
 3361W        W20209  15.370  16.722   2.429  0.1729 -0.0496  0.0464
 3362W        W20210   3.090   0.360  17.305 -0.1959  0.1310  0.0610
 3363W        W20211  15.782   8.965   0.682  0.0673  0.0319  0.1411
 3364W        W20212   8.355   1.174  13.777  0.2088 -0.0682 -0.0127
 3365W        W20213   8.306   1.289   2.547  0.3012 -0.0926  0.0577
 3366W        W20214  10.887   2.632  14.898  0.1767 -0.1322 -0.1655
 3367W        W20215   2.211  12.316   2.411  0.0011  0.1034  0.1312
 3368W        W20216   7.630  15.156   3.919  0.0887  0.0097  0.5532
 3369W        W20217  10.198   9.365   1.524  0.0201 -0.1571  0.0185
 3370W        W20218   8.227  16.365   1.445  0.2025 -0.2458 -0.1126
 3371W        W20219  11.956   6.562   0.638 -0.2431  0.0603  0.0924
 3372W        W20220   8.328   6.903   5.103  0.0210 -0.0163 -0.1704
 3373W        W20221  15.339  10.281   2.756 -0.1928 -0.1720  0.0579
 3374W        W20222  10.297   2.366  13.246 -0.2856 -0.0913 -0.0181
 3375W        W20223   3.513   6.387  15.051  0.1236  0.0927 -0.2049
 3376W        W20224  15.446   4.018   6.179  0.2115  0.0127 -0.1102
 3377W        W20225   7.931  10.799  13.475 -0.0669  0.2422 -0.0145
 3378W        W20226  10.993   0.416  14.350  0.1049  0.2069 -0.1461
 3379W        W20227   9.443   3.226   4.389  0.2655 -0.1251 -0.1212
 3380W        W20228   2.442   8.297   3.045 -0.1127  0.0386  0.1653
 3381W        W20229  10.097   9.734   3.006  0.1068 -0.1188  0.2042
 3382W        W20230   1.447  15.305  13.796 -0.1955 -0.3059 -0.1279
 3383W        W20231  10.291   2.321   3.024 -0.1655  0.0993 -0.0797
 3384W        W20232  15.793   2.147   4.585 -0.1267 -0.2593 -0.0208
 3385W        W20233  10.316   5.244  13.949  0.1855 -0.2727  0.2013
 3386W        W20234   3.659   2.883  16.623  0.0831 -0.0015 -0.3090
 3387W        W20235  12.676   6.813  16.580  0.1590 -0.4361 -0.0750
 3388W        W20236  14.382  16.010  12.734 -0.1947 -0.1420  0.0229
 3389W        W20237  12.485   9.925  13.528  0.3520  0.0714  0.0926
 3390W        W20238  15.205   5.749   1.147  0.1236  0.0444  0.3429
 3391W        W20239  17.050  14.375   3.349  0.0155 -0.2371  0.1302
 3392W        W20240   4.483  13.735   1.163  0.0940 -0.2308  0.0075
 3393W        W20241  16.031  14.710  14.272  0.1542  0.2841  0.0428
 3394W        W20242   7.759  11.271   0.616  0.0052  0.3403 -0.4317
 3395W        W20243  10.180  16.319  16.301  0.0139  0.1118 -0.1846
 3396W        W20244  15.850   1.069   0.928 -0.2521 -0.1077  0.2829
 3397W        W20245  13.278  12.815  13.797 -0.3310  0.4027  0.2900
 3398W        W20246   0.549  10.140   1.628  0.0282  0.2190 -0.2552
 3399W        W20247   2.770  10.100   4.846 -0.0404 -0.0673 -0.0194
 3400W        W20248   0.366   7.201  16.575  0.2596 -0.3659 -0.2206
 3401W        W20249   0.747   3.208   4.526 -0.0977 -0.0226  0.0547
 3402W        W20250   5.792  10.423   3.404 -0.0267  0.0501 -0.2277
 3403W        W20251   8.644  13.913  16.163  0.3325  0.1105  0.0127
 3404W        W20252  11.733  16.364   3.028 -0.2580 -0.0871  0.0498
 3405W        W20253   4.353  13.727   1.651  0.0266  0.1266  0.2260
 3406W        W20254  14.862   1.948  15.918 -0.0007  0.0429  0.1667
 3407W        W20255  13.396  14.777  13.925 -0.0882  0.1400 -0.0421
 3408W        W20256  15.204   2.918   2.088 -0.0136  0.4710  0.0500
 3409W        W20257  16.582  13.466   1.177 -0.1775 -0.0355 -0.1794
 3410W        W20258  14.399   3.477   4.601 -0.3119  0.3184  0.3800
 3411W        W20259  17.030   6.167  12.505 -0.2277  0.0568 -0.0934
 3412W        W20260  10.229   1.376   5.765  0.0894  0.2894  0.3796
 3413W        W20261   3.033   1.615   4.026 -0.0590  0.4644  0.0739
 3414W        W20262   7.936   5.615   1.156 -0.4161 -0.1172  0.2213
 3415W        W20263   8.239  15.817   3.720  0.0865  0.3310  0.0858
 3416W        W20264   0.366   1.170  12.468 -0.3012  0.1078  0.5167
 3417W        W20265   6.261  13.022   5.111  0.0435  0.1336  0.3900
 3418W        W20266   7.405  11.236  17.529 -0.0616  0.1480 -0.1339
 3419W        W20267  15.390   4.649  15.445 -0.1515 -0.1694 -0.0506
 3420W        W20268   3.856   5.685   0.511  0.0124 -0.1443 -0.3650
 3421W        W20269   9.683   5.555   4.003  0.1409  0.0764  0.2351
 3422W        W20270   9.736   0.684   2.874  0.0752  0.1775 -0.0202
 3423W        W20271  13.803  12.529   0.768  0.0921 -0.2601 -0.2965
 3424W        W20272  15.260   6.898  13.181 -0.0543 -0.2948 -0.2158
 3425W        W20273   9.277   3.698   4.291  0.0057 -0.1840 -0.1422
 3426W        W20274  12.080  13.067  13.441  0.2450  0.0448  0.2120
 3427W        W20275   0.857  10.731  15.984 -0.3795  0.1320  0.0666
 3428W        W20276  15.744   0.082   0.639  0.0048  0.2905  0.0450
 3429W        W20277  13.415   7.890  13.424 -0.0758  0.1526  0.0118
 3430W        W20278   6.437   5.028  17.788  0.0409 -0.2017  0.0648
 3431W        W20279   6.642   4.969   0.929  0.2136  0.1020 -0.1598
 3432W        W20280   4.104  16.652  12.186 -0.1285 -0.0255  0.1706
 3433W        W20281   1.002  10.845  17.182  0.0430  0.0268 -0.1193
 3434W        W20282   8.185   1.427  12.426 -0.1661  0.1476  0.1752
 3435W        W20283  16.053   6.263   0.251  0.0003  0.1126  0.0286
 3436W        W20284   7.552  10.923   0.880 -0.0527  0.0672  0.2831
 3437W        W20285  12.630  12.934  16.590 -0.1184  0.2231 -0.0993
 3438W        W20286   4.117   8.883  14.781  0.0305 -0.1569  0.0147
 3439W        W20287  16.685   0.640  12.133  0.2413 -0.3218 -0.1054
 3440W        W20288  15.519  16.648  12.110  0.2443  0.1205 -0.0972
 3441W        W20289  13.666  13.579   3.878 -0.0261  0.1123 -0.0688
 3442W        W20290  10.024  11.507   4.709 -0.4354  0.0888 -0.1271
 3443W        W20291  13.113   3.540  16.976 -0.0370  0.0523 -0.0294
 3444W        W20292   9.139   2.170  13.412 -0.2270  0.0016  0.1222
 3445W        W20293   8.987  10.604  16.899 -0.1624 -0.2154  0.0214
 3446W        W20294  12.521   3.024   4.900 -0.0114 -0.1147  0.1392
 3447W        W20295  10.688   7.742   3.229  0.2463 -0.0945  0.0238
 3448W        W20296  11.617  15.376   4.966  0.1370  0.1035  0.0035
 3449W        W20297   0.990  13.211   1.850 -0.3286  0.1678  0.2255
 3450W        W20298   4.123  10.824   3.718  0.1036 -0.1083  0.3108
 3451W        W20299   5.209   0.073   5.123 -0.1010  0.0460  0.4120
 3452W        W20300   4.377   8.362   3.964 -0.2971  0.2322 -0.0692
 3453W        W20301   7.715   1.956   1.154  0.0917  0.1761 -0.1728
 3454W        W20302   8.096   7.315   3.339  0.0782 -0.1816  0.1651
 3455W        W20303   7.186  13.105  17.436  0.2358 -0.2332  0.0127
 3456W        W20304  12.256  14.948   0.670  0.2670 -0.1186 -0.1330
 3457W        W20305   7.887   3.560  17.175  0.1532 -0.0528 -0.3141
 3458W        W20306  12.697  12.689   2.645 -0.2143 -0.2628 -0.2218
 3459W        W20307  15.978   9.411   2.157  0.1684 -0.1754  0.4501
 3460W        W20308  11.642   2.827   1.271  0.2819 -0.0439 -0.0163
 3461W        W20309  16.218  16.320   0.561 -0.5353  0.1433  0.1086
 3462W        W20310  16.330  10.457  15.205  0.2539  0.1766 -0.1725
 3463W        W20311   0.973  12.334  12.928  0.2354 -0.0156  0.3795
 3464W        W20312  10.519   4.411   2.251  0.0600 -0.2427  0.0304
 3465W        W20313   7.825   9.304   2.823  0.2398  0.1593  0.0419
 3466W        W20314   8.611   2.511   2.143 -0.1998 -0.1969  0.0953
 3467W        W20315   2.234  10.485   1.126 -0.1694 -0.0059  0.1624
 3468W        W20316  11.916   6.974  16.204  0.1686  0.0096  0.0618
 3469W        W20317  10.777  13.481  14.971 -0.1445 -0.1389 -0.1078
 3470W        W20318  16.136   5.331  13.802 -0.0209  0.0347 -0.0228
 3471W        W20319   3.714   1.163   0.690 -0.1284  0.1613  0.0201
 3472W        W20320  14.449  13.806   4.751  0.1413  0.1426 -0.0565
 3473W        W20321   4.732  11.877  13.967  0.0756  0.3120  0.0819
 3474W        W20322   3.584   8.258   4.451 -0.2281 -0.0723 -0.2218
 3475W        W20323  11.587  12.097   1.039  0.1025  0.0571 -0.0130
 3476W        W20324   2.057  13.444   2.453  0.0012  0.1226  0.1167
 3477W        W20325  15.070   2.491  15.855  0.1080 -0.4164  0.1650
 3478W        W20326   2.998   2.366  16.452  0.1771 -0.1800 -0.0937
 3479W        W20327   4.721   1.135  16.093  0.3141 -0.0723 -0.0898
 3480W        W20328  15.837  12.190  12.349  0.0102 -0.0949  0.0607
 3481W        W20329   5.465  16.473   3.406  0.1136 -0.0036 -0.0762
 3482W        W20330   1.603  11.337  11.593 -0.0384 -0.0465 -0.0327
 3483W        W20331  10.764  15.019   0.608  0.1568 -0.2899  0.0386
 3484W        W20332   4.756   3.280   4.918 -0.0393  0.1525 -0.0570
 3485W        W20333  14.939   9.590  12.630  0.0419 -0.1559 -0.1500
 3486W        W20334   6.869   9.542   3.552  0.2116 -0.1391  0.0003
 3487W        W20335   9.466   9.183  15.226 -0.0940 -0.0340 -0.0467
 3488W        W20336  13.317   4.491   3.127  0.1925  0.0333  0.0078
 3489W        W20337  12.555   1.945   0.457  0.3414 -0.2947  0.3111
 3490W        W20338  16.783   0.007   0.771  0.0149  0.0366 -0.0427
 3491W        W20339  10.952  14.986   4.311 -0.0695  0.1314  0.3256
 3492W        W20340   3.640   0.928  14.915  0.0995 -0.4213  0.2684
 3493W        W20341  10.514  11.759  15.510  0.0831 -0.0907  0.0968
 3494W        W20342  13.605  13.455  14.459 -0.3599 -0.1112  0.0644
 3495W        W20343  11.592   7.545   2.600 -0.0250 -0.1563 -0.0262
 3496W        W20344   7.520  15.421   4.416  0.2139  0.1571  0.0647
 3497W        W20345   6.685  11.068  13.908  0.2466  0.1159 -0.3188
 3498W        W20346   4.959   4.189   3.732  0.0137  0.3252  0.2785
 3499W        W20347  10.663  16.572  12.254  0.0013 -0.2080  0.0200
 3500W        W20348  16.026   0.957   2.897 -0.0725 -0.0156  0.0549
 3501W        W20349  13.710   6.671   3.382  0.0847  0.0260  0.0001
 3502W        W20350   2.245  14.969   0.978 -0.2289  0.0664 -0.3299
 3503W        W20351   8.419   3.006   0.357  0.0174 -0.1391  0.3039
 3504W        W20352  10.232   6.901  14.698  0.1446  0.1269  0.0580
 3505W        W20353  15.914  10.582   1.029  0.1259 -0.1817 -0.2078
 3506W        W20354   0.797   2.913   0.438  0.0052 -0.0318 -0.1527
 3507W        W20355  12.071   4.029  15.492  0.0401  0.0119  0.2112
 3508W        W20356  12.564  15.843  13.245  0.1209 -0.2634  0.2993
 3509W        W20357   3.434   0.515   0.462 -0.1711 -0.1672  0.0071
 3510W        W20358  12.153  14.290   2.989 -0.1526  0.2645 -0.0835
 3511W        W20359  13.688   9.517   0.690  0.0022  0.0547  0.3042
 3512W        W20360  13.590   8.500  13.477 -0.0488 -0.0420  0.0760
 3513W        W20361   3.108   5.059  11.489  0.2054  0.1303  0.0562
 3514W        W20362   9.085   1.888  11.484  0.2550 -0.2169  0.1146
 3515W        W20363  16.594   4.204   2.488 -0.2506  0.0452 -0.1951
 3516W        W20364   7.662   6.011   5.549  0.0843  0.0717 -0.2800
 3517W        W20365   3.196   4.161   4.259  0.0513 -0.0342  0.1857
 3518W        W20366   1.526   0.875   3.887  0.2041  0.0178  0.0168
 3519W        W20367  11.874  12.249  17.442 -0.0162  0.5927 -0.2939
 3520W        W20368   3.032  12.154  14.036  0.0942  0.3487 -0.1839
 3521W        W20369  12.838  12.282   0.484 -0.3088  0.2946 -0.0348
 3522W        W20370  15.406  12.986  17.767 -0.2232  0.0325 -0.0267
 3523W        W20371   1.248  11.371   0.510 -0.3661 -0.1408 -0.3328
 3524W        W20372   0.538   1.007   4.050 -0.2465  0.2032 -0.0290
 3525W        W20373   3.683   8.725  16.072 -0.2029  0.0849 -0.2617
 3526W        W20374   5.993   7.440   2.634 -0.1816  0.0111  0.2257
 3527W        W20375  12.073   1.204   4.571  0.0007  0.0846  0.1013
 3528W        W20376  12.554   2.959  16.909  0.0977 -0.1358  0.1759
 3529W        W20377   1.327  12.552  17.057  0.0762 -0.4776  0.4343
 3530W        W20378  12.224   9.214  11.799 -0.0362 -0.1026  0.0713
 3531W        W20379   3.996   0.412   0.382  0.0815  0.0240  0.1049
 3532W        W20380   7.598  15.576  16.420  0.1788 -0.3937  0.0276
 3533W        W20381   9.587  16.450   0.316 -0.3225  0.2060 -0.1641
 3534W        W20382   4.102   2.873  17.085  0.0874 -0.1258 -0.1656
 3535W        W20383   4.074   7.660  12.811 -0.0249  0.0404 -0.0319
 3536W        W20384   1.840  15.666   2.628 -0.0536  0.3530  0.0792
 3537W        W20385  10.667   6.274   0.895 -0.0740  0.0615 -0.3135
 3538W        W20386   1.512   7.344  14.319 -0.0821 -0.0337  0.1662
 3539W        W20387   0.190  15.507   4.642  0.0137 -0.2946 -0.0216
 3540W        W20388  15.405  15.820  14.164  0.1507  0.3160  0.0454
 3541W        W20389   8.417  15.449   0.309  0.0987  0.1455 -0.3187
 3542W        W20390   6.568   3.001   5.439 -0.1523  0.0474  0.0092
 3543W        W20391   2.523   2.229  16.284  0.0504  0.3801 -0.2161
 3544W        W20392   7.326   2.152   4.691  0.1052 -0.1433 -0.2262
 3545W        W20393   3.902  11.137  13.887 -0.0810  0.1753  0.0371
 3546W        W20394   4.109   0.322   5.559  0.1565  0.1754  0.1314
 3547W        W20395  10.746  14.852  16.310 -0.3282 -0.2175 -0.0569
 3548W        W20396   4.924   8.786   0.815  0.0198 -0.0237 -0.1964
 3549W        W20397   8.463   0.980   1.424 -0.0799 -0.2133 -0.2834
 3550W        W20398  14.412   2.254   5.543  0.2788  0.2329  0.2825
 3551W        W20399   2.144   3.064  15.765  0.0124 -0.0905 -0.1464
 3552W        W20400   8.043   5.238   3.492  0.2155 -0.2474 -0.2094
 3553W        W20401   5.449   4.981  15.239  0.0942  0.0348 -0.1340
 3554W        W20402  10.320   5.721  14.623  0.1499 -0.0610  0.1335
 3555W        W20403   3.156   9.897  17.009 -0.0595  0.0765 -0.1208
 3556W        W20404  12.578  12.914   3.971  0.2603 -0.1181  0.0156
 3557W        W20405  14.987   8.760  14.641  0.2473 -0.1799  0.3792
 3558W        W20406  14.300   4.244   1.484 -0.0384  0.2639 -0.0426
 3559W        W20407   4.980  15.986  13.666 -0.3469  0.1723 -0.0502
 3560W        W20408  14.266   9.080   3.205 -0.1316 -0.0597  0.3073
 3561W        W20409  13.256   1.056   1.857 -0.2416 -0.0086  0.2805
 3562W        W20410   7.959  16.850   6.186  0.2288 -0.1578 -0.1559
 3563W        W20411   6.221  15.879   4.940 -0.0958  0.0173 -0.0703
 3564W        W20412   3.805  14.173  16.897 -0.1773  0.0150 -0.0894
 3565W        W20413   6.400   8.691   5.734  0.1421 -0.0745  0.0108
 3566W        W20414  14.541   2.849   3.174 -0.0268  0.0925  0.2137
 3567W        W20415   9.828   0.153  16.239  0.3315 -0.0608  0.0953
 3568W        W20416   9.662   5.908   0.969  0.1658 -0.1644  0.0611
 3569W        W20417   7.913  13.973  15.897 -0.3065  0.0335 -0.0122
 3570W        W20418  14.049   4.014  13.978 -0.0686 -0.0001 -0.1164
 3571W        W20419   9.112   0.651  14.779 -0.2361 -0.1582  0.1256
 3572W        W20420   7.906  13.602   1.085 -0.0449  0.2275  0.0653
 3573W        W20421   4.458   6.770   5.609  0.0755 -0.1786 -0.2721
 3574W        W20422   7.532  13.049  16.112 -0.1277 -0.0125 -0.0610
 3575W        W20423   2.880  16.703   4.400  0.0585 -0.1964  0.0065
 3576W        W20424   7.132  16.015   5.357  0.0576 -0.1462  0.0817
 3577W        W20425   0.067   1.649   0.298  0.0311 -0.2040 -0.0119
 3578W        W20426  16.672   8.313  13.829 -0.0253 -0.0324  0.0704
 3579W        W20427   9.323   8.925  12.819  0.0234 -0.4611  0.0834
 3580W        W20428   2.976   8.223   0.281 -0.2013 -0.1902 -0.1234
 3581W        W20429  14.478  15.731  14.346 -0.3124 -0.1445  0.0003
 3582W        W20430  15.889   8.895  15.533  0.1029 -0.1465 -0.2634
 3583W        W20431   0.652   3.078  11.921 -0.0581 -0.2012  0.1107
 3584W        W20432   2.013  12.868   0.305  0.0582 -0.0809 -0.0019
 3585W        W20433   6.349   5.321   3.448  0.2239  0.0929  0.5036
 3586W        W20434   4.608  15.262  13.176 -0.0699  0.0980  0.1423
 3587W        W20435  12.524  11.295   3.851  0.1125  0.0370 -0.1235
 3588W        W20436   0.017   7.015  12.487 -0.1589  0.1098  0.2887
 3589W        W20437   9.765  12.000   5.522  0.1932 -0.0338 -0.0106
 3590W        W20438  12.710  13.842   5.535  0.2039  0.0792 -0.2282
 3591W        W20439  11.375   9.855   0.794  0.3601 -0.0696 -0.1324
 3592W        W20440  12.848  12.086  16.846 -0.0740 -0.0190 -0.1825
 3593W        W20441  14.925   1.872  17.641 -0.1036  0.1791 -0.2332
 3594W        W20442   0.023  14.429  16.127  0.0629  0.0241  0.0988
 3595W        W20443  13.126   2.845   4.951  0.0079 -0.1043  0.1401
 3596W        W20444  10.735  12.236  12.695  0.1645  0.2278  0.1299
 3597W        W20445   0.813  13.888   6.439  0.1830  0.0700 -0.0644
 3598W        W20446   1.523  12.296  12.652 -0.1528 -0.0527 -0.0490
 3599W        W20447  11.103  12.399   2.708  0.2279 -0.0396 -0.2245
 3600W        W20448   5.748   2.992   4.063 -0.0410  0.0699  0.0756
 3601W        W20449   1.209   7.995  12.541 -0.3494  0.1090 -0.0531
 3602W        W20450   9.877  16.156  11.947  0.0103  0.0260  0.1059
 3603W        W20451   5.095  16.543  12.477 -0.1410 -0.0631  0.1450
 3604W        W20452   7.080   5.504  17.262  0.0756 -0.0260 -0.1944
 3605W        W20453   7.097   0.788   2.867 -0.1432  0.0014  0.1265
 3606W        W20454  13.625  12.808   3.994  0.0210 -0.3661  0.1465
 3607W        W20455   6.380  16.386  12.658  0.1638  0.3259 -0.1305
 3608W        W20456   2.414  10.635   0.166  0.0557 -0.2381 -0.1506
 3609W        W20457  15.766  15.761   4.759  0.0099  0.0109  0.2130
 3610W        W20458  16.316  15.591  16.366  0.0847 -0.0125 -0.0608
 3611W        W20459   9.129  10.766  13.259  0.1610 -0.0615  0.0211
 3612W        W20460   7.355   1.895   2.729 -0.1258  0.0838 -0.1373
 3613W        W20461  14.413  14.855   5.135  0.0198 -0.1361 -0.0337
 3614W        W20462  12.162   6.761   1.233 -0.0151 -0.0285  0.0059
 3615W        W20463   0.535  13.889   0.233  0.2429 -0.1712  0.0461
 3616W        W20464  15.574   2.846   2.528 -0.0537 -0.1978  0.1255
 3617W        W20465   9.283   4.241  15.968 -0.0618  0.1563  0.1532
 3618W        W20466  12.684  10.580   3.193  0.0471  0.1342  0.0499
 3619W        W20467   7.291  12.361   3.040  0.2266 -0.0940 -0.0330
 3620W        W20468  15.800   8.467  13.519  0.2786  0.1261  0.2060
 3621W        W20469   2.585  16.501  13.370 -0.1384 -0.1331  0.0740
 3622W        W20470   2.263   7.167   4.314  0.1501  0.1838  0.1434
 3623W        W20471   3.759  16.254  17.177  0.2837  0.0269 -0.0575
 3624W        W20472  10.360   8.044   4.851 -0.1951 -0.0446  0.1793
 3625W        W20473   0.684  15.257   2.774 -0.0542  0.0252  0.1642
 3626W        W20474   3.156   3.268  13.534  0.0679 -0.0447 -0.0681
 3627W        W20475   3.769  13.714  12.147 -0.1798 -0.0238  0.0280
 3628W        W20476   7.399   0.393   1.406  0.0714 -0.0987  0.1849
 3629W        W20477  13.036   0.708   0.478 -0.0247  0.0942  0.1906
 3630W        W20478   5.456   7.883   0.155 -0.2636  0.0044  0.0092
 3631W        W20479  12.899   0.716   4.461  0.1597 -0.5925  0.1838
 3632W        W20480   8.741  14.984  15.586  0.1324  0.0056 -0.1003
 3633W        W20481   0.284   3.394  13.044  0.4903 -0.0909  0.0912
 3634W        W20482   3.329   4.291  17.439  0.0294  0.0227 -0.0834
 3635W        W20483  15.293   7.028  16.597  0.1174  0.1514 -0.2255
 3636W        W20484  14.758  10.438  17.044  0.0510 -0.0205 -0.2327
 3637W        W20485  14.373   4.888  13.673 -0.0901 -0.3012 -0.1966
 3638W        W20486  13.035   4.905  15.861 -0.3061 -0.1405 -0.1521
 3639W        W20487  12.366   0.841   2.205  0.0676  0.2207 -0.3368
 3640W        W20488  11.397  12.478   3.594 -0.1301 -0.0113 -0.1928
 3641W        W20489  11.346   3.615   4.884 -0.0932 -0.1647 -0.0533
 3642W        W20490   7.887   5.821  12.428 -0.1773 -0.0601  0.0623
 3643W        W20491   0.283   9.149  12.154 -0.0310 -0.2115  0.2885
 3644W        W20492   0.374   6.964   1.399  0.2363 -0.3160  0.2187
 3645W        W20493   2.308   7.602  13.761 -0.0772 -0.0186 -0.0415
 3646W        W20494   9.795   7.979   0.469  0.0188 -0.2576 -0.0748
 3647W        W20495   9.466   8.298   5.000 -0.0569 -0.1328 -0.2366
 3648W        W20496  15.501   4.843   1.902 -0.0766  0.0371 -0.0406
 3649W        W20497  13.935  16.729  15.755 -0.1141 -0.2252 -0.1530
 3650W        W20498   4.631   1.751   6.626 -0.1411 -0.1512  0.1787
 3651W        W20499   6.099   6.523  14.569 -0.0667  0.2180 -0.2383
 3652W        W20500   2.470  15.725  17.236 -0.3761  0.0504  0.2451
 3653W        W20501   1.209   0.873   4.905 -0.1056  0.0334  0.0641
 3654W        W20502   8.946  15.879  16.792  0.2615  0.1555 -0.3544
 3655W        W20503  13.342   4.434   1.406  0.0416  0.1841 -0.0487
 3656W        W20504  16.485  13.268   2.224  0.0334  0.0222 -0.2648
 3657W        W20505   1.417  14.350  16.108  0.3145 -0.2502 -0.0373
 3658W        W20506  15.751   8.973  12.794  0.3126  0.2027 -0.0849
 3659W        W20507   7.635  15.910  13.600 -0.2804  0.0915 -0.0513
 3660W        W20508   3.608   4.299   2.352 -0.2098  0.1980 -0.1270
 3661W        W20509  12.667   1.609   0.818 -0.1986  0.1425 -0.0831
 3662W        W20510  11.475  11.678  15.858  0.1582 -0.0133 -0.1461
 3663W        W20511   0.257   5.416   5.991 -0.1428  0.0897  0.2796
 3664W        W20512  10.226  11.412   3.750  0.1000  0.0184  0.0060
 3665W        W20513   3.820   1.444  12.078 -0.0535 -0.1909  0.0573
 3666W        W20514   5.613   1.323   3.064  0.0094 -0.2278 -0.1564
 3667W        W20515  11.769   5.222   2.887  0.1388  0.0937  0.0283
 3668W        W20516   9.802  14.443  15.169 -0.1393 -0.0482  0.1610
 3669W        W20517  15.039   2.485   1.830  0.0114 -0.0777  0.1837
 3670W        W20518   7.283  15.330   0.146  0.0436 -0.0651 -0.0928
 3671W        W20519  16.685  15.556  13.518  0.1107  0.0593 -0.2176
 3672W        W20520   8.743   6.957   1.038  0.2695  0.2958 -0.2451
 3673W        W20521   8.930   9.565  15.968 -0.0159  0.1823  0.0687
 3674W        W20522   1.158  13.626   0.221 -0.3058  0.0876 -0.3169
 3675W        W20523   5.462  16.342  12.721  0.2854 -0.0214  0.1621
 3676W        W20524   9.181   3.207   0.920 -0.2029 -0.2275 -0.0290
 3677W        W20525   6.491  13.370   0.344  0.1188  0.0681  0.0206
 3678W        W20526   1.867   1.331  14.851  0.0458  0.0136 -0.2837
 3679W        W20527   3.116  10.740   0.713 -0.0495  0.4177 -0.0701
 3680W        W20528  11.000   1.786  14.395 -0.0236 -0.1781 -0.0404
 3681W        W20529   3.630   4.658  17.427  0.2055 -0.2072  0.0162
 3682W        W20530   0.047   1.067  14.843 -0.4312  0.1730  0.0858
 3683W        W20531  14.353  11.612   2.111  0.0888  0.0427 -0.0207
 3684W        W20532   7.730   3.905  17.721 -0.2168  0.1513  0.2689
 3685W        W20533   3.937  14.205   3.564 -0.0551 -0.2221  0.0191
 3686W        W20534  15.987  16.037   4.383  0.0194  0.1521 -0.3353
 3687W        W20535   6.869   1.111  12.231  0.4315  0.2103  0.1460
 3688W        W20536   9.923   8.111   0.006  0.1667  0.0916  0.0188
 3689W        W20537  10.150  16.661   4.501  0.0410  0.1960 -0.0382
 3690W        W20538  11.391  15.036  13.039  0.1170 -0.2025  0.0214
 3691W        W20539   2.840  16.570   3.243 -0.0435 -0.1315  0.2482
 3692W        W20540   9.068  13.449  14.200  0.1683 -0.0526 -0.0290
 3693W        W20541  14.177  12.264  15.713  0.0257 -0.1274  0.0186
 3694W        W20542   3.569   5.884   2.435 -0.0342 -0.1562  0.1201
 3695W        W20543   2.304   7.399   5.636  0.3115  0.0682 -0.3250
 3696W        W20544   2.545  10.340  12.568 -0.3934 -0.0265  0.0667
 3697W        W20545   3.036   6.398   6.069 -0.2867 -0.0751 -0.0639
 3698W        W20546  14.000  15.072  17.173  0.0001  0.5109 -0.0071
 3699W        W20547   9.790  10.191  13.349  0.1506 -0.1118  0.1667
 3700W        W20548   0.827   3.903   1.488 -0.1079 -0.1584  0.0580
 3701W        W20549   2.556   8.747   3.154  0.2632 -0.1011 -0.1850
 3702W        W20550  14.519   6.121   2.831  0.1145 -0.0586  0.1949
 3703W        W20551  10.548   4.937   2.719 -0.0406 -0.0761 -0.0811
 3704W        W20552   0.966  11.834  17.437  0.1701 -0.1599  0.0291
 3705W        W20553  11.649  14.166   6.023 -0.3233 -0.1335 -0.1350
 3706W        W20554   1.086  11.364   4.345  0.1119 -0.0253 -0.1314
 3707W        W20555   0.426   6.222   3.895  0.3269  0.1416 -0.1372
 3708W        W20556  14.468   9.912   6.006  0.0720  0.3000  0.0850
 3709W        W20557  14.267   9.556   1.867 -0.0878  0.1451  0.0862
 3710W        W20558   5.943   4.551   1.652 -0.2582  0.0740  0.0138
 3711W        W20559   8.049   5.260   4.284  0.0182 -0.0756 -0.5492
 3712W        W20560  14.184   9.094   4.985  0.2377  0.2065 -0.0518
 3713W        W20561   4.770  13.681  11.523  0.2302 -0.3729  0.3068
 3714W        W20562  14.521  14.815  14.478  0.3387 -0.1827 -0.1164
 3715W        W20563  10.353   1.333  14.477 -0.1772 -0.1275 -0.0685
 3716W        W20564   5.658  12.069  17.697 -0.1769  0.1212  0.0654
 3717W        W20565   3.715  16.295  14.730  0.4668 -0.0727  0.1410
 3718W        W20566   9.069   9.989   1.311  0.0721 -0.3878  0.0532
 3719W        W20567   8.462  15.620   2.657  0.3896 -0.0752  0.0587
 3720W        W20568   2.283   7.515  16.772  0.2024 -0.1327 -0.2040
 3721W        W20569   2.950  16.127  15.996 -0.0919 -0.1463 -0.0684
 3722W        W20570   5.407   0.799  15.149  0.1775 -0.2587  0.1100
 3723W        W20571   8.255  13.645   1.475 -0.1554 -0.2812  0.2439
 3724W        W20572   9.325  11.467  15.878 -0.1262 -0.0484  0.2616
 3725W        W20573   4.034   4.852  15.050 -0.0027  0.3480 -0.1169
 3726W        W20574   8.600   4.153   3.666  0.2373  0.2496  0.0092
 3727W        W20575   6.572  15.203   3.993  0.0062  0.0082 -0.1251
 3728W        W20576   2.523   3.266  14.754 -0.0620 -0.1699 -0.3895
 3729W        W20577   5.260   9.397  12.633 -0.0892  0.0987  0.1219
 3730W        W20578   3.465   6.687  15.852  0.0520 -0.0421 -0.2923
 3731W        W20579   9.590  14.162  16.392 -0.3544 -0.5526  0.2658
 3732W        W20580   6.862   8.489  17.202  0.0799 -0.1495  0.0449
 3733W        W20581  16.128  13.282   5.223 -0.0826  0.2167  0.1446
 3734W        W20582   5.693  12.084   2.295 -0.1729  0.1352  0.3434
 3735W        W20583   1.559   2.339  17.731  0.0521 -0.1752 -0.0924
 3736W        W20584   0.195   2.850  17.087  0.1440  0.0159 -0.3324
 3737W        W20585   3.815   6.646   2.783  0.0809  0.0257  0.0699
 3738W        W20586   6.901   6.092   4.293  0.1669 -0.2398  0.0899
 3739W        W20587   4.037  13.114  11.884  0.0285 -0.1491  0.3477
 3740W        W20588  11.279  14.736  12.567 -0.1481 -0.2225  0.1429
 3741W        W20589  10.536   2.879  17.514 -0.0586 -0.0157 -0.1244
 3742W        W20590  13.749   5.268  16.495 -0.0039  0.0371 -0.1445
 3743W        W20591   6.138   7.088   4.951 -0.1187 -0.0374  0.1308
 3744W        W20592   1.769   5.465  16.620 -0.0014 -0.2913 -0.0299
 3745W        W20593   9.136   8.367  17.350 -0.1204 -0.1824 -0.0235
 3746W        W20594   0.171  10.484  16.350  0.0952  0.2476 -0.2214
 3747W        W20595  10.853   8.657   4.872  0.1820  0.0145  0.2230
 3748W        W20596   7.786   1.030   1.514  0.1057  0.1514  0.0753
 3749W        W20597  10.342   5.331  17.034  0.0672 -0.2882 -0.2135
 3750W        W20598  14.464   4.739  14.129  0.2821  0.0298  0.2160
 3751W        W20599  12.023   8.192   4.845  0.0647 -0.0510 -0.0030
 3752W        W20600  15.574   0.050  11.934  0.0321  0.2656 -0.0603
 3753W        W20601  12.544   4.194  15.805 -0.0272 -0.3592  0.0120
 3754W        W20602   4.697  14.833   5.033 -0.0421  0.1235  0.0554
 3755W        W20603  12.251   7.599  16.824 -0.1738 -0.2868 -0.2564
 3756W        W20604   0.580  12.477   1.841  0.2317 -0.2381 -0.1544
 3757W        W20605  11.920   9.842  14.750 -0.1121 -0.0847  0.3938
 3758W        W20606   4.240  16.072   3.860 -0.1345 -0.1435  0.0909
 3759W        W20607   0.100  14.162  16.523  0.1120 -0.3739 -0.0982
 3760W        W20608   4.586   9.486   1.264  0.1574 -0.2152 -0.0829
 3761W        W20609   0.900   8.298   4.251  0.3512  0.1273 -0.4578
 3762W        W20610   9.969   4.793   5.909  0.1600  0.2425 -0.0528
 3763W        W20611  16.162  13.228   2.864 -0.2206  0.0443  0.0071
 3764W        W20612  16.395   4.778  11.608 -0.3314 -0.1581 -0.1593
 3765W        W20613   1.924  15.062   2.544  0.0687  0.0398 -0.2446
 3766W        W20614   3.707  11.171   1.863  0.2050 -0.0799  0.3092
 3767W        W20615   6.835   4.639  13.152  0.2856 -0.0608  0.1846
 3768W        W20616  14.149   7.480   3.287  0.0423  0.4992  0.1372
 3769W        W20617   9.170   2.299   5.558 -0.0439 -0.1471 -0.1569
 3770W        W20618  16.557  13.203   4.526 -0.0332 -0.0942 -0.0474
 3771W        W20619   9.326   0.230   6.767 -0.2157  0.0480  0.0513
 3772W        W20620   8.880   7.966   0.035 -0.0313  0.0324  0.2010
 3773W        W20621  16.628   3.417  14.361 -0.5538 -0.0222  0.0989
 3774W        W20622   0.636   0.381  12.192 -0.0843  0.1304 -0.0643
 3775W        W20623   0.824  14.194  15.085  0.0278  0.3375  0.1535
 3776W        W20624  12.268   2.357  12.730  0.0487 -0.0533 -0.1445
 3777W        W20625  16.740   2.172   5.688  0.2714 -0.0566  0.0515
 3778W        W20626  13.642  17.059   4.064  0.2469 -0.1995 -0.0208
 3779W        W20627  11.193  16.946   0.455 -0.3095  0.1316  0.0579
 3780W        W20628   9.715   6.894  16.450 -0.0801  0.2380  0.0446
 3781W        W20629  12.637   9.150  14.746  0.0217  0.0736  0.0588
 3782W        W20630   3.958  10.011   4.037  0.0815 -0.1232  0.0311
 3783W        W20631  14.205   5.460  16.329 -0.0235  0.0767  0.0370
 3784W        W20632   3.491   0.039   1.158 -0.2902 -0.1343  0.0229
 3785W        W20633  15.866   3.328  16.115  0.2434 -0.2497 -0.0463
 3786W        W20634  14.349   2.456   5.021 -0.1227  0.0500 -0.0998
 3787W        W20635   0.371  14.934  12.508  0.0023  0.0692 -0.1161
 3788W        W20636   4.318  15.796  12.431 -0.3857  0.0553 -0.0345
 3789W        W20637   8.263   0.792  17.592  0.1678  0.0472 -0.2915
 3790W        W20638   2.629  14.209   5.340  0.2893 -0.0690 -0.0382
 3791W        W20639   4.620   3.810  13.982 -0.1132  0.2631 -0.0060
 3792W        W20640  12.735   2.695   2.815 -0.3325  0.0605 -0.0627
 3793W        W20641  16.467   3.977   5.503 -0.2611 -0.0430  0.1667
 3794W        W20642  16.733  12.309  13.951  0.3159  0.2713 -0.0688
 3795W        W20643   8.555   7.104  14.924 -0.0939  0.2287  0.2421
 3796W        W20644  10.734  11.507   3.818  0.2254 -0.1683  0.1717
 3797W        W20645   0.674   0.590   4.455 -0.2243 -0.1623  0.0055
 3798W        W20646  10.683   1.416   5.513 -0.0333  0.0346  0.1677
 3799W        W20647  16.949   5.289  15.196  0.1052  0.0860 -0.1235
 3800W        W20648   2.450   9.997  16.301 -0.0602  0.2647  0.2186
 3801W        W20649   5.995  16.761  16.950  0.0135  0.0880  0.2250
 3802W        W20650   3.317   3.742  14.574  0.1152 -0.0519  0.1105
 3803W        W20651   6.828  10.560  11.898 -0.1702 -0.0539  0.1103
 3804W        W20652   5.747  10.802   0.270 -0.0963 -0.1512  0.0136
 3805W        W20653   2.972  16.377  16.473 -0.0090 -0.0940  0.3976
 3806W        W20654  12.406  14.347  15.868 -0.0266  0.3775 -0.1443
 3807W        W20655  13.187  10.043  14.380  0.0329 -0.0039  0.0586
 3808W        W20656   3.608  15.396  17.019  0.1356 -0.0030  0.1881
 3809W        W20657  16.713  14.931  16.950  0.2911 -0.1797  0.1705
 3810W        W20658   3.991  13.593  15.928  0.2754  0.0537  0.2530
 3811W        W20659   7.234  12.174  14.759 -0.1909 -0.0413 -0.0268
 3812W        W20660   2.443   0.548   1.677 -0.2340  0.0695  0.0519
 3813W        W20661  12.214   9.065  13.593 -0.1498  0.1442  0.2258
 3814W        W20662   9.168  12.462   0.729 -0.2019  0.0092  0.1573
 3815W        W20663  10.503   8.673  16.916  0.0558  0.1530 -0.0062
 3816W        W20664   3.390   1.495  13.519  0.1692  0.1264  0.1185
 3817W        W20665   4.008   4.623   2.300 -0.1267  0.2284  0.2511
 3818W        W20666   5.728  12.367  13.756  0.0849 -0.1099 -0.1258
 3819W        W20667   7.794   4.363  12.512 -0.2011 -0.1127  0.0444
 3820W        W20668   0.094   6.857   1.795  0.2202  0.3173  0.0898
 3821W        W20669  10.407   4.023   0.460 -0.2343 -0.1603  0.1249
 3822W        W20670   0.418   3.699   3.816  0.1613  0.0573  0.0153
 3823W        W20671  12.034  13.692  16.286  0.2919  0.1137  0.2036
 3824W        W20672   3.452   4.491  16.865 -0.2245  0.2261 -0.1709
 3825W        W20673  13.653  16.547   3.739  0.2777  0.0262 -0.2523
 3826W        W20674  12.195   3.479   2.959 -0.1826 -0.2371 -0.2233
 3827W        W20675   1.928  11.523  17.740 -0.1857  0.0459  0.0381
 3828W        W20676   7.414  12.705   2.678  0.2369  0.2700  0.2159
 3829W        W20677  10.870   2.188  13.365 -0.0457  0.1003  0.0582
 3830W        W20678  16.561  16.036  12.383 -0.2037 -0.0877  0.2236
 3831W        W20679   4.709   7.639   0.194 -0.0642 -0.1687 -0.3612
 3832W        W20680   5.907  14.187  16.578 -0.3296 -0.1753 -0.0855
 3833W        W20681  16.815   8.314   3.678  0.0980  0.1707  0.3960
 3834W        W20682   8.235  14.185   2.798 -0.0004  0.0516 -0.1258
 3835W        W20683   6.537  12.607  15.380  0.1414 -0.1153  0.0631
 3836W        W20684   2.839   1.133   4.107  0.0681 -0.0048  0.2456
 3837W        W20685   1.262  12.422  15.299  0.3578 -0.0642  0.0810
 3838W        W20686  12.774   9.853   3.799 -0.0948  0.2870 -0.0567
 3839W        W20687  15.626   7.918  16.694 -0.0843 -0.0401 -0.0486
 3840W        W20688   5.594   4.640  13.389 -0.2648 -0.4179  0.1981
 3841W        W20689  11.066  16.381   2.227  0.0013 -0.2350  0.1319
 3842W        W20690   5.287  15.146   3.104 -0.0984 -0.2150 -0.2426
 3843W        W20691  13.138  16.975   1.296  0.0895 -0.2163  0.1621
 3844W        W20692  10.503  15.598  17.440  0.0631  0.0635 -0.1505
 3845W        W20693   2.262   9.483  13.474 -0.0216 -0.0160  0.2281
 3846W        W20694   5.837   8.472  12.487  0.1962 -0.0684  0.5295
 3847W        W20695  11.709  10.837   1.023 -0.3435  0.0858 -0.2618
 3848W        W20696  15.774   0.444   0.225 -0.1376  0.0460 -0.2049
 3849W        W20697   6.602  13.466   6.623  0.1660 -0.0768  0.0561
 3850W        W20698  11.816  10.199   3.058  0.0308 -0.1159  0.2386
 3851W        W20699  12.120   6.288  12.860 -0.2033 -0.1109 -0.0739
 3852W        W20700  11.577   3.336  15.795  0.0550 -0.1609  0.0920
 3853W        W20701   3.198  14.727   3.465  0.2145 -0.0159 -0.1708
 3854W        W20702  14.798   8.765  13.210 -0.0892  0.0863  0.1279
 3855W        W20703   1.942  10.520  16.808  0.0623  0.1436 -0.1178
 3856W        W20704   9.814   6.646   4.801 -0.3076  0.1067  0.1568
 3857W        W20705  16.046  11.988  12.771  0.0950 -0.0881  0.1183
 3858W        W20706   0.669  12.234   4.676 -0.0231 -0.0426  0.0390
 3859W        W20707   2.096   7.728  17.590 -0.2089  0.1814 -0.2820
 3860W        W20708   2.387  11.007   1.138 -0.1409  0.0088 -0.2833
 3861W        W20709   8.085  16.827  17.607 -0.1474  0.0680  0.0613
 3862W        W20710  10.147  15.702  12.963  0.0269 -0.1868  0.0622
 3863W        W20711   5.713   4.091   2.821 -0.0746 -0.0429 -0.1371
 3864W        W20712   2.681  10.366   5.238 -0.0878  0.1634 -0.0611
 3865W        W20713   1.508  13.279   1.791 -0.0793  0.4112 -0.3441
 3866W        W20714  10.335   4.420   5.786  0.1650  0.1052 -0.0126
 3867W        W20715   5.431  12.942   1.074  0.1791 -0.0078  0.2596
 3868W        W20716   1.915  11.273  17.268 -0.0777 -0.2193 -0.2387
 3869W        W20717   9.555   1.303   4.788  0.1387  0.0992  0.0348
 3870W        W20718   6.002  16.089   0.454 -0.2717  0.2151 -0.0382
 3871W        W20719   6.364  12.526   4.216 -0.1415 -0.0121 -0.1425
 3872W        W20720  13.074  10.494   6.366 -0.1158 -0.0169  0.1622
 3873W        W20721   2.846   8.079   2.197 -0.0485 -0.1681 -0.1302
 3874W        W20722  10.827   7.523  15.402 -0.0701 -0.1747 -0.3694
 3875W        W20723   9.351  15.579   0.342 -0.1289  0.1551 -0.2446
 3876W        W20724   0.509   7.271   1.800  0.1262 -0.0518 -0.1063
 3877W        W20725   0.701  10.289   3.494 -0.1114 -0.2042  0.2646
 3878W        W20726  13.413   5.205   2.751  0.2125  0.1656  0.0909
 3879W        W20727  11.342   4.320   0.254  0.0033 -0.2362 -0.0269
 3880W        W20728   0.376  14.446   2.419  0.2615  0.3201  0.0702
 3881W        W20729   3.081  15.214  14.842  0.1370  0.0004  0.1772
 3882W        W20730  16.513  15.060  16.481 -0.0046 -0.2350 -0.0449
 3883W        W20731  12.700  15.395  14.202  0.2092 -0.1918 -0.0501
 3884W        W20732   1.399   1.002   2.997 -0.1103 -0.1839  0.0841
 3885W        W20733   5.352  15.241  14.047  0.1084  0.2906 -0.1194
 3886W        W20734   3.647  14.801   4.182 -0.1449  0.2783  0.0913
 3887W        W20735  12.488   8.054  14.863  0.0667  0.0016  0.0308
 3888W        W20736  10.308   8.767   6.595  0.0780 -0.0297  0.0464
 3889W        W20737   1.348  11.842  12.248  0.1016 -0.0618 -0.1260
 3890W        W20738   3.974   3.219  14.233 -0.2755  0.0039  0.0137
 3891W        W20739  12.158   5.876   0.832  0.1074  0.1958  0.2448
 3892W        W20740  13.007   0.669  14.622 -0.2987 -0.0230 -0.2429
 3893W        W20741  15.949   6.630  17.774 -0.1383 -0.0700  0.0083
 3894W        W20742  12.063   8.676   5.565  0.0171 -0.0655 -0.0350
 3895W        W20743   1.080  10.704   5.381  0.3075  0.0142 -0.1899
 3896W        W20744  11.289   5.237  13.096  0.2179  0.3463 -0.0807
 3897W        W20745   0.791  13.616   4.014  0.0997 -0.0831 -0.0847
 3898W        W20746   1.415   2.848  12.415  0.3413  0.2159  0.0808
 3899W        W20747   3.041   2.358  16.966 -0.3164 -0.1243 -0.0429
 3900W        W20748   2.071  15.827   0.988 -0.0259  0.0856 -0.1080
 3901W        W20749  15.967  13.918   1.546  0.0421  0.0600 -0.1209
 3902W        W20750  14.242  15.314  13.700 -0.1739  0.0920 -0.0035
 3903W        W20751  12.357   8.651   4.797  0.3357  0.1804  0.1031
 3904W        W20752  14.923  10.035   1.411  0.0128 -0.3840 -0.1659
 3905W        W20753  16.219   5.865  15.288  0.2209 -0.3721  0.1167
 3906W        W20754   5.672   3.598  17.185 -0.0520  0.0025 -0.1745
 3907W        W20755  13.357  10.106  13.641  0.3903  0.1161  0.0460
 3908W        W20756  12.035   0.411   4.940  0.1082 -0.2147 -0.1269
 3909W        W20757  15.626  10.903   5.087  0.2627  0.0229 -0.2691
 3910W        W20758   7.649  11.020   1.396 -0.0766  0.2105 -0.2044
 3911W        W20759  10.385   7.710  15.507 -0.0209 -0.0036  0.3104
 3912W        W20760  14.157   4.496   1.929 -0.2606  0.1175  0.1355
 3913W        W20761   4.792  13.446  15.431 -0.0658 -0.0617  0.0964
 3914W        W20762  11.988  12.864  12.570  0.3178 -0.1790  0.1897
 3915W        W20763   3.787  15.657   4.587  0.0093 -0.0559  0.0660
 3916W        W20764   3.320   0.206  15.643 -0.1269 -0.4296 -0.0108
 3917W        W20765   3.806   8.127   0.208  0.2359  0.0193 -0.0661
 3918W        W20766   6.930   1.205  17.536 -0.1352  0.2236 -0.2851
 3919W        W20767   1.724   5.958   1.300 -0.0213  0.0398 -0.0822
 3920W        W20768  14.906  12.024  13.613  0.1576 -0.2203  0.1137
 3921W        W20769   6.708  16.520  13.639  0.0708 -0.1251  0.0844
 3922W        W20770   5.362  12.792  16.993  0.2047 -0.0933  0.1018
 3923W        W20771   4.306   9.539  15.362  0.0729 -0.0652  0.0113
 3924W        W20772   3.336  15.883   1.459 -0.1080  0.1034  0.2116
 3925W        W20773   2.308   4.283   0.786 -0.3347 -0.1258 -0.2318
 3926W        W20774   8.089   9.182   1.368 -0.0025  0.0982 -0.0211
 3927W        W20775   9.321  14.908  15.787 -0.1300  0.4801 -0.5064
 3928W        W20776   8.624  10.570   2.537 -0.3386 -0.0182 -0.0809
 3929W        W20777   9.443   5.987  12.068 -0.1087 -0.1083  0.0307
 3930W        W20778  17.067   5.565   2.423  0.0434 -0.2322  0.0298
 3931W        W20779  16.981  14.130  13.470  0.0196  0.2039  0.0380
 3932W        W20780   1.678   3.590   5.371 -0.0821  0.2725  0.2687
 3933W        W20781  10.963   4.395   3.893 -0.0382  0.1486  0.0219
 3934W        W20782   4.341   5.990  17.442 -0.0005 -0.2819  0.0125
 3935W        W20783   8.205   3.929  17.138  0.1130 -0.0721 -0.0401
 3936W        W20784   2.877   5.502   4.175 -0.1750  0.0961 -0.0791
 3937W        W20785  14.688   1.271  15.160  0.2434 -0.0587 -0.2931
 3938W        W20786   4.866   2.995  14.943 -0.1508 -0.4326 -0.2585
 3939W        W20787   3.352   7.836  16.356 -0.4325 -0.1403 -0.0455
 3940W        W20788   9.290   6.773   4.178  0.1951 -0.1925  0.0578
 3941W        W20789   9.619   7.947  15.549  0.2425  0.2985  0.0447
 3942W        W20790  10.155  15.468   3.840  0.0773 -0.1181  0.1349
 3943W        W20791  13.616   0.669   1.232  0.1364 -0.1166 -0.0202
 3944W        W20792   8.692  12.051  13.818 -0.0112  0.0170 -0.2303
 3945W        W20793  10.690  16.038  17.242  0.1826  0.3754  0.0183
 3946W        W20794  13.099  14.538   4.905  0.1285  0.2748 -0.0938
 3947W        W20795  14.749   7.931  14.198  0.2518  0.2351 -0.1129
 3948W        W20796   4.810  11.631   3.692  0.2174  0.0981  0.0607
 3949W        W20797   9.987   9.315   2.760  0.1400 -0.1530 -0.2853
 3950W        W20798  15.486  13.833   4.047  0.3026 -0.0107  0.1097
 3951W        W20799   7.261   3.311   4.279 -0.1659 -0.0917 -0.0508
 3952W        W20800  14.431   8.499   0.525  0.2620  0.4209 -0.0434
 3953W        W20801   4.035  14.406   4.079  0.2244  0.0768  0.1127
 3954W        W20802   5.325  15.574   3.463 -0.5078  0.0090  0.0351
 3955W        W20803  15.640   4.961  12.577 -0.1809 -0.0474 -0.0934
 3956W        W20804   2.457  11.117   2.005 -0.0147  0.0708  0.2034
 3957W        W20805   1.132  16.432   2.965 -0.0060  0.1177  0.0008
 3958W        W20806   4.002  13.382   1.785  0.3370  0.0865  0.0100
 3959W        W20807   8.864   9.211   0.090  0.0734 -0.1524  0.0770
 3960W        W20808   8.229  12.171   0.012  0.1242  0.2322  0.1254
 3961W        W20809   1.418   3.968  14.296 -0.3842  0.0125  0.3019
 3962W        W20810  11.598  10.197   2.571  0.0955  0.0182  0.0062
 3963W        W20811   4.546  13.991  16.250  0.0147  0.1921 -0.0792
 3964W        W20812   8.663   9.076   2.815  0.2740  0.1320 -0.1660
 3965W        W20813   0.560   2.406   0.188  0.0783 -0.0651 -0.0558
 3966W        W20814  12.937   4.744  16.857  0.1020 -0.0531 -0.1829
 3967W        W20815   5.501   1.911   3.845  0.1141 -0.0456  0.2102
 3968W        W20816   1.014  15.853  16.987  0.1038 -0.4115  0.1863
 3969W        W20817   5.403  10.699  16.310 -0.1488  0.0390  0.1830
 3970W        W20818   8.711   4.659  14.295  0.3314  0.3302  0.2512
 3971W        W20819  10.428   9.562   1.118 -0.1146 -0.2742 -0.3516
 3972W        W20820   9.630   8.345  15.143  0.2290 -0.2176 -0.0913
 3973W        W20821   5.075   1.132   1.144  0.0006  0.1454  0.0701
 3974W        W20822   3.340   7.977  16.897 -0.2090 -0.1012  0.0787
 3975W        W20823   1.692   6.836  16.789 -0.0422 -0.0951  0.2490
 3976W        W20824  16.290   0.023  17.742 -0.1671 -0.2144  0.3010
 3977W        W20825  16.831  17.066   0.151  0.0413 -0.2365  0.0290
 3978W        W20826   8.946   1.454   0.827 -0.0390  0.4625 -0.0707
 3979W        W20827   4.599   1.068  12.421 -0.1211 -0.1781 -0.0277
 3980W        W20828   0.044   8.766  12.742 -0.0151  0.2203  0.1300
 3981W        W20829   1.403  11.005  13.387  0.0195  0.5298  0.0361
 3982W        W20830   6.579   2.414  16.326  0.1439 -0.3549  0.0552
 3983W        W20831  15.849   3.772   6.030  0.1074  0.5551 -0.0454
 3984W        W20832   3.314  13.380  14.092 -0.0743 -0.0801  0.1741
 3985W        W20833  10.212   5.940  12.198 -0.1701 -0.2819  0.0903
 3986W        W20834  14.614   0.854   5.900 -0.1577 -0.1203  0.1486
 3987W        W20835  11.682  12.595   0.640  0.2158  0.3168 -0.1980
 3988W        W20836   5.156  16.194   4.989 -0.1314 -0.3035  0.1516
 3989W        W20837   1.455  13.764   2.795  0.0006 -0.2975  0.2868
 3990W        W20838   8.462  12.307  17.097 -0.0499 -0.0032 -0.1762
 3991W        W20839  15.910  13.402  12.456 -0.1334  0.1016 -0.3114
 3992W        W20840   5.999  14.624  11.672  0.0107  0.2710  0.0364
 3993W        W20841   2.822   9.672   5.114 -0.1051 -0.0580 -0.1424
 3994W        W20842   7.067   4.223   3.305  0.0452 -0.0139  0.1818
 3995W        W20843   9.207   9.608   3.731 -0.1775  0.3210 -0.0965
 3996W        W20844  15.110   9.706  16.339  0.1239  0.2473 -0.0759
 3997W        W20845   3.693   1.922  15.665 -0.0160 -0.2251  0.2538
 3998W        W20846   1.723  16.238   4.041 -0.2733 -0.0994  0.0345
 3999W        W20847   7.174  14.035  17.319  0.2340  0.0950 -0.1879
 4000W        W20848  14.554  15.623  14.832 -0.0967 -0.0401  0.1366
 4001W        W20849   2.637  13.582  12.495  0.1374 -0.2014 -0.0970
 4002W        W20850  14.906  15.450  13.283 -0.1709  0.0302 -0.1645
 4003W        W20851   4.131  12.680  12.514  0.3705  0.0396 -0.2318
 4004W        W20852   9.797   4.696  14.233 -0.1266  0.1806 -0.2173
 4005W        W20853  10.632   7.719   5.087  0.2963  0.0083  0.0446
 4006W        W20854   2.089  12.925  12.074 -0.0599  0.2314 -0.0560
 4007W        W20855  16.193  12.461  13.498  0.1153  0.1943 -0.2887
 4008W        W20856  11.380   7.140   1.628 -0.1316  0.0659  0.0931
 4009W        W20857   1.751   4.631  12.587  0.2050  0.1738 -0.1469
 4010W        W20858  15.401   9.184  15.512 -0.1132  0.1476  0.0407
 4011W        W20859  11.217   7.050   0.094  0.0674  0.0217 -0.1242
 4012W        W20860  14.719  11.810   4.727 -0.2275  0.1540 -0.1090
 4013W        W20861  10.756  10.343   0.904  0.3300  0.0033  0.2979
 4014W        W20862  11.272  15.701   5.043 -0.5100  0.0926  0.0347
 4015W        W20863  14.123   2.275  12.497  0.2592  0.1029  0.2358
 4016W        W20864  13.339  15.115   3.460 -0.3323 -0.0555 -0.0793
 4017W        W20865   0.660   3.224  15.893  0.2075 -0.2793  0.3001
 4018W        W20866   2.091  10.227  15.697  0.2645  0.0062 -0.1340
 4019W        W20867  16.101   5.252   2.910  0.0064 -0.0134 -0.0366
 4020W        W20868   2.385   7.432   1.511 -0.1428  0.1909  0.1508
 4021W        W20869   7.063   2.947  17.120 -0.0731  0.0300  0.1791
 4022W        W20870   3.156   6.496  16.872  0.0958  0.0051  0.2499
 4023W        W20871  10.641   3.665   6.700  0.1545  0.0810  0.0117
 4024W        W20872   8.319   2.604   0.782 -0.1028 -0.1320 -0.2562
 4025W        W20873   8.372  10.910   3.437  0.2834 -0.0860  0.1393
 4026W        W20874  13.681   1.676  13.890  0.0635  0.1027 -0.2153
 4027W        W20875  11.776   4.445   4.623  0.2650  0.0558  0.3414
 4028W        W20876   7.264   9.792   4.898  0.2308 -0.1758 -0.0963
 4029W        W20877  13.866  14.519   3.036 -0.1538 -0.0618  0.0135
 4030W        W20878  14.459  13.013   3.790 -0.0764  0.1256  0.2279
 4031W        W20879   7.348   9.749  11.624  0.0145  0.3112 -0.3649
 4032W        W20880  12.122   2.525   5.151  0.0249  0.1527 -0.0904
 4033W        W20881   8.762   9.597   1.421 -0.3648  0.2618 -0.1855
 4034W        W20882   7.314   8.780   2.048  0.2894  0.3482  0.1452
 4035W        W20883  13.711  11.804   0.414 -0.1412  0.1656  0.1196
 4036W        W20884  16.064  13.503   0.361 -0.1089 -0.0833 -0.2397
 4037W        W20885   9.971  15.545  16.024  0.0494 -0.1192 -0.0395
 4038W        W20886  10.039   1.779   3.222  0.2508  0.2093 -0.1503
 4039W        W20887  13.218   8.017   3.261  0.1094  0.2479 -0.3412
 4040W        W20888   9.517   2.700   4.380  0.2764 -0.0216  0.0496
 4041W        W20889   9.108   3.704  14.521 -0.0797 -0.1934  0.0161
 4042W        W20890  13.133   7.531   3.513  0.2383 -0.0555 -0.1123
 4043W        W20891   6.398   6.028   4.369 -0.1563  0.0379  0.1470
 4044W        W20892  11.447  12.224  13.251  0.1469 -0.0886 -0.2558
 4045W        W20893   9.247  12.593  12.762 -0.2389 -0.0672 -0.2161
 4046W        W20894  11.000   0.138  12.877  0.0267  0.1834  0.0657
 4047W        W20895   2.965  14.323   6.902 -0.0324 -0.2023  0.2459
 4048W        W20896   7.722   8.135  14.590  0.0420  0.0374  0.1154
 4049W        W20897   9.648   0.964   0.250 -0.2775  0.0770  0.2914
 4050W        W20898   8.914  11.438   0.434  0.0976 -0.1587  0.0493
 4051W        W20899  16.262   2.066   5.562 -0.4015 -0.0702 -0.0716
 4052W        W20900   7.659  12.162   3.978 -0.0075 -0.0595  0.0954
 4053W        W20901  12.908  15.747  15.534  0.0592  0.1947  0.2806
 4054W        W20902   1.171   4.780   4.189 -0.1579  0.0495 -0.1863
 4055W        W20903   6.895   6.526   5.507  0.2061 -0.0178  0.2950
 4056W        W20904  11.269  12.278   3.165 -0.0460 -0.1435  0.1003
 4057W        W20905   4.043  16.203  15.251 -0.2106 -0.1822  0.0721
 4058W        W20906  10.452   0.256  15.382  0.0153  0.2967 -0.2986
 4059W        W20907  12.656  16.043  15.266  0.2693 -0.2394  0.2405
 4060W        W20908  10.914   6.950   3.305 -0.0424 -0.1387  0.0330
 4061W        W20909   9.549  15.581  12.985  0.2035 -0.0133  0.1521
 4062W        W20910   6.152   5.023   0.765  0.1353  0.0385  0.3715
 4063W        W20911  14.375   8.546  13.472 -0.0449 -0.1189  0.1512
 4064W        W20912  15.413   9.344  13.076  0.1043  0.0225 -0.1983
 4065W        W20913   3.008  13.829  16.837 -0.0635 -0.1311 -0.0038
 4066W        W20914   5.915   1.003  17.531  0.0804 -0.1872 -0.2000
 4067W        W20915   3.798  11.416  14.810  0.0054  0.1841 -0.0787
 4068W        W20916   8.547   3.181  17.748  0.1150  0.1099  0.3113
 4069W        W20917  12.787  13.545   3.128 -0.1229 -0.1963  0.0849
 4070W        W20918  11.041   2.827   0.898  0.0817 -0.0753 -0.0956
 4071W        W20919  16.376  14.535  17.768  0.1690 -0.1136  0.2377
 4072W        W20920   4.713   7.491  14.941  0.0237  0.2638 -0.3075
 4073W        W20921  13.951  16.061   1.511 -0.1340  0.1298  0.1669
 4074W        W20922  14.323   5.925   2.310 -0.0175  0.1430  0.0780
 4075W        W20923   9.788   2.775   1.683 -0.0386 -0.1406  0.0655
 4076W        W20924   4.900   2.904   1.017 -0.1065  0.1098  0.0117
 4077W        W20925   8.661   2.560  13.122 -0.0562 -0.0203 -0.2064
 4078W        W20926  13.909  11.937  14.569 -0.4473 -0.1162  0.0871
 4079W        W20927  12.778   8.911  12.581 -0.0901  0.0056 -0.0904
 4080W        W20928   8.439  13.155  17.353  0.1072  0.1305  0.1982
 4081W        W20929   2.609   9.251   4.399 -0.0599  0.1837 -0.1292
 4082W        W20930  11.209   5.257  16.898  0.0304  0.2767 -0.1407
 4083W        W20931   9.959   7.701   4.578 -0.0820 -0.2141  0.0230
 4084W        W20932   4.611  10.372  14.467 -0.1402 -0.0267  0.0602
 4085W        W20933  14.299  10.947   0.956  0.2405  0.2726 -0.2054
 4086W        W20934   8.024   0.316  17.621  0.0716  0.3291  0.3899
 4087W        W20935  13.606   6.040   2.652 -0.0731  0.1910 -0.0395
 4088W        W20936   8.140   8.052   0.435  0.2330 -0.0371 -0.2833
 4089W        W20937   3.211  14.166  12.220  0.1263  0.3350 -0.3161
 4090W        W20938  15.213  10.061  13.481  0.1389 -0.2543  0.0691
 4091W        W20939  13.100   3.026  15.267  0.0068 -0.4174 -0.1356
 4092W        W20940  14.249  14.740   0.872 -0.1208 -0.3754  0.0629
 4093W        W20941   7.307   5.435   4.837 -0.1837 -0.0585  0.1739
 4094W        W20942  14.659  16.373   1.191 -0.0999  0.1389 -0.2201
 4095W        W20943   7.691   0.320   5.075 -0.1289 -0.1305 -0.1994
 4096W        W20944   6.873   5.205   3.272  0.0005  0.2063 -0.0973
 4097W        W20945   1.693   3.107   3.481  0.2853 -0.0556  0.1218
 4098W        W20946   3.566  15.389   3.123 -0.1323  0.2396 -0.1863
 4099W        W20947   6.559  13.313   3.826 -0.0351  0.2757  0.0254
 4100W        W20948   9.402  12.884   1.554 -0.0647  0.0880 -0.4442
 4101W        W20949  12.183   9.989  15.128  0.0537 -0.3173 -0.0919
 4102W        W20950   1.407  15.404  16.106  0.0855 -0.1490  0.1499
 4103W        W20951   7.472   2.675  14.242 -0.2171  0.2675 -0.4292
 4104W        W20952  12.610   8.244   4.004  0.0377  0.1083  0.1334
 4105W        W20953   7.194   3.633  13.515 -0.2587  0.2269  0.0391
 4106W        W20954  11.227   7.773   6.635 -0.0132 -0.0420  0.1344
 4107W        W20955   6.009  13.834   0.977 -0.2413  0.1232 -0.1510
 4108W        W20956   0.606  10.799   0.359 -0.0574  0.2098 -0.0846
 4109W        W20957   0.989  16.512  15.564 -0.0248  0.2314  0.0866
 4110W        W20958  14.280  10.850  16.520 -0.1329  0.2417  0.2699
 4111W        W20959  12.086   0.845   4.228  0.0553 -0.3133 -0.0576
 4112W        W20960   8.787   2.422  13.654  0.0358 -0.1925 -0.0187
 4113W        W20961   4.704   2.776   4.869  0.0795  0.0450 -0.0634
 4114W        W20962   8.804  14.767  14.548  0.0171 -0.2993 -0.1534
 4115W        W20963   7.547   9.950   4.494 -0.0007 -0.1806 -0.1717
 4116W        W20964   0.575   0.403  12.714 -0.3836  0.1402 -0.1019
 4117W        W20965   8.688   2.458   5.435  0.1699 -0.1452 -0.0799
 4118W        W20966  16.841   3.549  13.885  0.0784  0.0714 -0.0356
 4119W        W20967   1.698   1.061   1.434 -0.0786 -0.0467 -0.0829
 4120W        W20968   3.177   7.420   3.037  0.1054 -0.1099  0.1645
 4121W        W20969   1.541  10.409  14.477  0.2618 -0.0011 -0.2341
 4122W        W20970   2.848   2.994   5.719  0.3177  0.3024 -0.2009
 4123W        W20971  10.688   9.288  14.606  0.3769 -0.0546 -0.1011
 4124W        W20972   3.036  15.015   0.471 -0.3282 -0.0444 -0.0986
 4125W        W20973  12.473  14.942   3.463 -0.0961  0.2666  0.0079
 4126W        W20974  15.744  16.338   0.745  0.1664 -0.0039 -0.1108
 4127W        W20975   4.377   2.987  14.780 -0.0941 -0.1695  0.2148
 4128W        W20976   3.553   8.822  16.588  0.0536 -0.1037 -0.0498
 4129W        W20977   7.153  15.682   5.805  0.3291 -0.3229  0.0476
 4130W        W20978   8.710   3.004   2.325  0.1563 -0.1459  0.0568
 4131W        W20979   6.194   1.453   3.607 -0.2662  0.1303 -0.0054
 4132W        W20980  15.499   1.733   3.967 -0.1620 -0.3590 -0.1898
 4133W        W20981   6.311   3.991  13.785  0.1032  0.0532  0.3519
 4134W        W20982   9.531  10.477  16.137 -0.0130  0.2332 -0.1530
 4135W        W20983   1.569  12.596   3.627  0.0639  0.0642  0.3129
 4136W        W20984  12.372  13.255   4.314 -0.0640  0.1376 -0.0130
 4137W        W20985   0.943   2.301   5.515 -0.1477 -0.0248  0.2877
 4138W        W20986  12.064  10.107  12.127 -0.1101  0.0087 -0.2089
 4139W        W20987  13.754  16.261  17.042  0.3564 -0.0722  0.1924
 4140W        W20988   0.727   6.344   4.325  0.0139 -0.0905  0.0828
 4141W        W20989   7.734  14.004  17.684 -0.0295  0.2830 -0.3018
 4142W        W20990   4.697   6.376  13.171  0.1028  0.2823 -0.0716
 4143W        W20991   4.325   4.884   2.571  0.0897 -0.1598  0.3972
 4144W        W20992   2.319   5.872  16.276  0.1056  0.0237  0.0379
 4145W        W20993   6.513   0.324  15.110 -0.0903 -0.1733 -0.1447
 4146W        W20994  13.585   0.673  17.247  0.0322 -0.3241 -0.1153
 4147W        W20995  14.371   5.251   4.626 -0.1795 -0.1572 -0.1364
 4148W        W20996  13.163   3.472  16.098  0.4745 -0.1683 -0.0722
 4149W        W20997   6.845   2.299   2.289  0.4418 -0.2010 -0.1703
 4150W        W20998   2.101   1.625  14.562  0.2415  0.0203  0.0551
 4151W        W20999   5.263  11.364   4.375 -0.2570 -0.0136  0.0648
 4152W        W21000   1.589  16.363   1.645 -0.3155 -0.2511 -0.0010
 4153W        W21001   6.443   2.204   4.976  0.1998 -0.0861 -0.0199
 4154W        W21002   4.614  14.845  15.741  0.0018  0.1871 -0.0889
 4155W        W21003   9.247  11.314  14.006 -0.2892  0.2580 -0.1728
 4156W        W21004   3.863   1.035   4.880 -0.0861 -0.1577 -0.0669
 4157W        W21005  11.480   0.371  17.194 -0.0921  0.0814  0.0692
 4158W        W21006  14.631   4.206  15.104  0.0415  0.3200  0.1879
 4159W        W21007  15.588  10.566  17.331 -0.0604 -0.0980  0.2997
 4160W        W21008   7.558  16.274   2.114 -0.1152  0.2361  0.2929
 4161W        W21009  14.431  13.392  16.390 -0.3010  0.0639 -0.0283
 4162W        W21010   1.401   1.799   2.060  0.0680  0.1755 -0.3839
 4163W        W21011   6.108   7.340   5.641  0.0591  0.0879 -0.1403
 4164W        W21012  14.152  12.618  12.482  0.1876  0.0271 -0.1292
 4165W        W21013   7.906  15.640   4.591  0.2374 -0.1592  0.0041
 4166W        W21014  15.450   8.857  16.870 -0.0894  0.0460  0.0964
 4167W        W21015   2.684  15.560  16.290 -0.2639  0.0069  0.0039
 4168W        W21016  11.172  15.411   2.693  0.1404  0.0189 -0.0772
 4169W        W21017   1.885   1.546   0.508 -0.2214 -0.0586 -0.2732
 4170W        W21018   2.267  13.882  15.685  0.0091 -0.0336  0.3212
 4171W        W21019  14.753   5.792  15.168 -0.3510 -0.1569  0.0257
 4172W        W21020   2.661  13.012  15.325 -0.0428  0.0516 -0.2146
 4173W        W21021  15.331   5.224   0.486 -0.1013 -0.1601 -0.1922
 4174W        W21022   5.390   7.174   0.565 -0.1529  0.1682  0.0302
 4175W        W21023   0.693  10.748   2.619 -0.5108  0.0047 -0.0975
 4176W        W21024  15.124   1.264  17.319 -0.0331 -0.0556  0.0854
 4177W        W21025   2.028   3.249  14.539  0.0509  0.0640  0.3223
 4178W        W21026   6.776   8.537  12.281  0.0008 -0.0606  0.0064
 4179W        W21027   3.038  11.756  14.907 -0.2132 -0.1458 -0.2095
 4180W        W21028   9.965  10.917   0.008  0.0870  0.2890  0.0074
 4181W        W21029   2.881  13.920  17.304 -0.1643  0.1858  0.0420
 4182W        W21030  16.043  17.048   3.066  0.1497  0.1958  0.0320
 4183W        W21031   9.760  11.660   2.389 -0.2387  0.0465 -0.2762
 4184W        W21032   5.609  15.842   0.772 -0.0750  0.1503  0.2170
 4185W        W21033  10.918   4.609  16.129  0.0319 -0.0319  0.0382
 4186W        W21034   7.939   0.112  13.042 -0.0254 -0.0109  0.4379
 4187W        W21035  15.884  17.006   1.092 -0.0422 -0.0730 -0.1353
 4188W        W21036  14.572  14.731   4.107 -0.1044 -0.0510 -0.3785
 4189W        W21037   6.357   5.348  17.389  0.0883 -0.3972 -0.0049
 4190W        W21038   6.972   5.366   0.860  0.3834 -0.2002 -0.1487
 4191W        W21039   9.362   7.181   2.041 -0.0443  0.0899  0.1019
 4192W        W21040   6.874   8.671  13.521  0.0527 -0.0258  0.2925
 4193W        W21041  13.875  16.453   1.199 -0.1289  0.0254 -0.2679
 4194W        W21042   0.467   2.635   2.391 -0.0994 -0.2916  0.2476
 4195W        W21043   7.767   7.171   1.276 -0.0272 -0.1522  0.0256
 4196W        W21044  14.711   4.461   1.237  0.1007 -0.0208  0.1935
 4197W        W21045   8.466  14.369  14.389 -0.0947 -0.0574 -0.5537
 4198W        W21046  12.622   9.784   2.970 -0.1146  0.0660 -0.1749
 4199W        W21047   6.922  14.379   4.028  0.1067  0.2514 -0.1415
 4200W        W21048   0.844  11.467  12.740  0.1504  0.0895 -0.0862
 4201W        W21049  11.878  16.178  14.852 -0.0700 -0.2973 -0.0689
 4202W        W21050  16.777  16.700  15.073 -0.0350  0.1037  0.0603
 4203W        W21051   0.094  13.413   1.735 -0.0670 -0.1419 -0.1506
 4204W        W21052   8.163   9.632  16.481 -0.1443 -0.0347 -0.0632
 4205W        W21053   7.085  11.330  13.180 -0.0065  0.1082  0.3456
 4206W        W21054   1.946   2.286  16.432 -0.1153 -0.0764  0.2387
 4207W        W21055   6.793   0.575   0.429 -0.0165  0.0883  0.1074
 4208W        W21056   8.478   7.098   3.803  0.0901 -0.1249  0.0298
 4209W        W21057   8.896   0.920  13.423  0.1600  0.3243  0.2542
 4210W        W21058  15.766  15.621  15.245 -0.1061  0.1708  0.0987
 4211W        W21059  11.029   7.556   1.470  0.0245  0.1664 -0.1700
 4212W        W21060   8.544  15.709  17.770 -0.2816 -0.0805 -0.1100
 4213W        W21061  14.569  11.324  17.342 -0.0426 -0.1822  0.0866
 4214W        W21062   1.547   2.885  15.210  0.0890 -0.0690 -0.0601
 4215W        W21063   7.581  13.203  12.828 -0.0617  0.3634  0.2401
 4216W        W21064  14.133  12.343  15.173  0.1830  0.0730  0.1057
 4217W        W21065   4.555   5.540  15.692  0.0227 -0.0174 -0.3675
 4218W        W21066  13.061  16.941  15.310  0.3801  0.1758 -0.2096
 4219W        W21067  13.046   7.160   2.167 -0.1757  0.0114  0.0707
 4220W        W21068  12.678  16.901   2.518 -0.2152  0.0889  0.5013
 4221W        W21069   3.332  13.819   4.249  0.2348 -0.1028 -0.0405
 4222W        W21070  14.626   6.846  12.927  0.0487  0.2479  0.0460
 4223W        W21071   2.831   4.585  13.792 -0.1842 -0.1304  0.0543
 4224W        W21072  14.979   2.241  14.773 -0.1064  0.0001  0.0732
 4225W        W21073   1.968   3.311   4.927 -0.3367 -0.0148  0.1825
 4226W        W21074   0.114   6.947   0.907  0.0464  0.1017  0.3375
 4227W        W21075  15.880   5.561   1.866  0.0875 -0.0005 -0.1273
 4228W        W21076   7.500  12.052   4.454 -0.4677  0.0475 -0.1393
 4229W        W21077   9.417  16.421   4.087 -0.1667  0.0400  0.0573
 4230W        W21078   8.055   1.217  17.801  0.3728 -0.0329 -0.3770
 4231W        W21079   8.896   0.561   5.313 -0.1290  0.0780 -0.2694
 4232W        W21080  14.084   6.471  12.457  0.0903  0.1773  0.2008
 4233W        W21081   1.223   7.762   0.669  0.1336  0.0641  0.1882
 4234W        W21082   5.785   0.697   2.433  0.2345  0.0869  0.2738
 4235W        W21083  10.070  10.967   3.841  0.1110 -0.0798 -0.1674
 4236W        W21084  16.448   2.839   3.726 -0.0350 -0.3163 -0.1734
 4237W        W21085  14.302  14.256  12.835  0.0435  0.1656 -0.1161
 4238W        W21086  14.161   9.483   0.432 -0.0568  0.0138 -0.0918
 4239W        W21087   0.081  13.369   1.185  0.1581  0.0167  0.0489
 4240W        W21088  12.433   0.565  13.765  0.0165  0.3356  0.2605
 4241W        W21089   6.026   9.936  15.604  0.2458  0.1640 -0.0367
 4242W        W21090   1.542  14.149  11.946 -0.0891  0.2454  0.1107
 4243W        W21091  15.312   5.717   0.678  0.1568  0.4143  0.0091
 4244W        W21092   9.481  15.790   2.561 -0.1592 -0.0655 -0.1060
 4245W        W21093   0.131  16.091   3.214  0.0660 -0.0938  0.0262
 4246W        W21094  16.806   0.525   5.218 -0.0753  0.1273  0.1301
 4247W        W21095  14.731  10.253  13.457  0.0736 -0.2599  0.4036
 4248W        W21096   9.023   6.615   5.890  0.0992 -0.1016 -0.0570
 4249W        W21097   4.333   1.368   4.804 -0.0014 -0.1073  0.0136
 4250W        W21098  13.925   9.936   0.171 -0.1240 -0.4509  0.0017
 4251W        W21099  12.519   4.571  14.184  0.0441 -0.0298  0.0146
 4252W        W21100   8.088   3.633  16.346 -0.0260 -0.2487 -0.3955
 4253W        W21101  13.038  13.884  13.023 -0.0354 -0.1167  0.2981
 4254W        W21102  12.945  13.039  12.410 -0.0182  0.0444 -0.0581
 4255W        W21103   5.261   5.301   3.179 -0.3248  0.2020 -0.0629
 4256W        W21104   9.595   4.959  13.802 -0.1438  0.0833  0.3434
 4257W        W21105   0.239  11.966  14.450  0.0255  0.2382 -0.1374
 4258W        W21106   8.394   8.150   1.194  0.2346  0.4063  0.0390
 4259W        W21107  11.228  14.184   1.381  0.3546 -0.2269  0.1301
 4260W        W21108   7.936  11.736   4.330  0.2155 -0.1996 -0.0131
 4261W        W21109   2.527   3.327   2.361 -0.3428  0.0082 -0.2011
 4262W        W21110  12.814   5.588   2.682  0.1507 -0.0441 -0.1479
 4263W        W21111  15.684   9.301  16.766  0.0800  0.1239 -0.1257
 4264W        W21112  15.319   5.229  15.773  0.1858  0.2739 -0.0463
 4265W        W21113   1.751   7.648   6.580  0.0349 -0.0882  0.2024
 4266W        W21114   5.608   4.299   0.356 -0.0594  0.0867  0.0825
 4267W        W21115   0.919   6.885  14.371 -0.3394  0.0123 -0.0569
 4268W        W21116  12.981  10.007   0.123 -0.2726  0.2492  0.0368
 4269W        W21117  13.881   0.186   2.732  0.1709  0.0503  0.0312
 4270W        W21118  11.720   2.653  14.249 -0.0323 -0.3587  0.2203
 4271W        W21119  11.058   8.954   3.577 -0.1029  0.0050 -0.0079
 4272W        W21120   3.443   2.238  16.652  0.0182 -0.1222  0.1599
 4273W        W21121   9.761  13.742  15.251  0.0214 -0.0623  0.2243
 4274W        W21122   6.711   2.249  13.319  0.0531  0.0613 -0.4429
 4275W        W21123   4.424   9.223  14.984 -0.0865 -0.0359 -0.4142
 4276W        W21124  14.136   7.587  14.973  0.0157 -0.2702  0.2543
 4277W        W21125   0.993  10.684   1.095  0.1970 -0.1250 -0.0142
 4278W        W21126   6.632   9.224   3.905 -0.1002  0.1763  0.1735
 4279W        W21127   5.490  10.170   2.192 -0.0058 -0.0127  0.1421
 4280W        W21128  10.610   3.758  14.604  0.3643  0.5089 -0.1447
 4281W        W21129  15.234  12.409  17.049  0.1636  0.0787  0.0197
 4282W        W21130   7.706   2.531   5.761 -0.1372  0.2964  0.2301
 4283W        W21131   2.748   9.357  17.042  0.1770  0.2508 -0.1060
 4284W        W21132   1.505   8.609   3.002 -0.1872  0.0475  0.0140
 4285W        W21133   8.675  11.824  12.817 -0.1818 -0.2342 -0.0832
 4286W        W21134  12.374   9.947  14.563 -0.2112 -0.0507 -0.2242
 4287W        W21135   7.649   5.324  13.866  0.1542 -0.0180 -0.0920
 4288W        W21136   9.418   2.149   5.151  0.0324 -0.3332 -0.1186
 4289W        W21137  11.180  13.726  15.703 -0.0781 -0.0293  0.0697
 4290W        W21138   0.420   1.525   1.538  0.5962  0.0690  0.2318
 4291W        W21139  15.710   3.824  16.253 -0.0421  0.1547  0.0292
 4292W        W21140  14.362   3.302   5.506 -0.0876 -0.2932  0.0509
 4293W        W21141   2.688   8.572  15.585  0.1874  0.1094 -0.1344
 4294W        W21142   7.498   5.478  13.393 -0.0142  0.0429 -0.1337
 4295W        W21143   0.031   9.385   3.520 -0.3896 -0.0302  0.2003
 4296W        W21144  12.354   5.676   2.400 -0.1063 -0.1021 -0.0618
 4297W        W21145   1.966   8.312  17.306  0.1368 -0.0014 -0.0898
 4298W        W21146  10.773   8.711  12.496  0.3395  0.1056 -0.4922
 4299W        W21147   9.989  14.962   4.538  0.3887 -0.1685  0.0339
 4300W        W21148   1.072   2.994  16.081 -0.2959  0.1725 -0.3197
 4301W        W21149   8.165   5.761   5.081  0.1225  0.0059  0.2694
 4302W        W21150  15.242   4.283   2.060 -0.1318 -0.0702  0.3077
 4303W        W21151  14.890   8.655   4.529  0.1285 -0.3483  0.0537
 4304W        W21152   3.971   7.433   3.570  0.1616  0.0344 -0.2580
 4305W        W21153   0.177   0.612  13.989  0.1766  0.0487 -0.0699
 4306W        W21154   3.624  14.360   1.182 -0.0964  0.0998  0.1636
 4307W        W21155  14.200  15.748   2.261 -0.0940  0.3427 -0.0136
 4308W        W21156   8.476   6.319  12.083  0.0963 -0.0733 -0.2279
 4309W        W21157   5.120   7.427   2.036  0.0521  0.1131 -0.3135
 4310W        W21158  13.137  13.912   3.122  0.0008  0.4155 -0.1319
 4311W        W21159   4.387   3.069   0.463  0.1376 -0.0420  0.2157
 4312W        W21160   5.064  16.786   2.892  0.1762 -0.0928  0.0686
 4313W        W21161  16.847   7.275  16.528  0.0396  0.0371  0.4437
 4314W        W21162   5.899   9.181   2.820 -0.1659 -0.0649  0.0123
 4315W        W21163   5.800  13.567  15.697  0.1246  0.0383 -0.1141
 4316W        W21164  10.344   1.827   0.505 -0.0722 -0.2334  0.1140
 4317W        W21165   4.410  11.083  17.761  0.2232 -0.0144  0.0211
 4318W        W21166   6.228  13.844  16.687 -0.0559  0.3233 -0.1733
 4319W        W21167  15.645   1.662  12.360 -0.1407  0.0199 -0.0648
 4320W        W21168  15.641  10.876   1.908 -0.3058 -0.1551 -0.0118
 4321W        W21169   5.828   0.348   4.157 -0.0213 -0.0601  0.0817
 4322W        W21170  10.242   5.009  15.475  0.1023  0.1138  0.1147
 4323W        W21171  13.331  14.342  15.146  0.0422 -0.0935 -0.2610
 4324W        W21172   7.637  15.425   2.022 -0.2348  0.2328  0.0336
 4325W        W21173   8.335   2.886   1.822 -0.0660  0.0298 -0.0214
 4326W        W21174  12.453   5.555   3.605 -0.0346  0.1463 -0.2027
 4327W        W21175  12.939  14.047   0.724  0.0055 -0.1094 -0.1164
 4328W        W21176  12.732   2.048  17.761  0.3217 -0.0627 -0.1244
 4329W        W21177   8.141   6.880   5.580  0.1475  0.2574  0.0326
 4330W        W21178   9.066   5.498   2.808 -0.1877  0.0314 -0.2912
 4331W        W21179  15.448   9.143   0.182 -0.0218 -0.1152 -0.1919
 4332W        W21180  13.459   5.123  11.943  0.2053  0.2710  0.0759
 4333W        W21181   7.950  10.616   1.080 -0.0892  0.1014 -0.0286
 4334W        W21182   3.945   3.008  16.059 -0.0506  0.0990  0.1196
 4335W        W21183   6.442  16.472  14.277 -0.1073  0.0873  0.0623
 4336W        W21184  14.806   6.086   3.530 -0.1979 -0.4042 -0.0454
 4337W        W21185   7.977   5.191  15.239  0.2307 -0.0436  0.0522
 4338W        W21186  11.393  13.659   2.095 -0.1230  0.1393  0.2162
 4339W        W21187   0.190   9.803  16.872 -0.1194  0.0929  0.0277
 4340W        W21188   7.990   8.991   0.148  0.2718  0.1817  0.2752
 4341W        W21189   1.723   2.600   1.483  0.0882  0.0542  0.1156
 4342W        W21190  12.589   0.107  15.634  0.1814 -0.2143 -0.1282
 4343W        W21191  11.179   6.211  14.147 -0.1154 -0.1235  0.2366
 4344W        W21192  13.188  10.379   0.670  0.0376 -0.4031 -0.1434
 4345W        W21193   4.215  15.687  15.119 -0.1947 -0.4239 -0.0239
 4346W        W21194  15.258   2.913   1.259 -0.0683  0.0714 -0.1673
 4347W        W21195   4.482  13.197  12.623  0.0310 -0.0475 -0.2765
 4348W        W21196  15.181   1.541  14.209  0.1013  0.0287 -0.2202
 4349W        W21197   5.356   1.044  16.671 -0.1320 -0.2260 -0.0456
 4350W        W21198  15.037   3.042  17.667  0.3904 -0.0000 -0.0984
 4351W        W21199  16.608  15.323  17.344  0.1967  0.1693  0.0157
 4352W        W21200  13.559   4.064  13.097 -0.1970 -0.1280  0.1712
 4353W        W21201  11.867  15.829  17.586 -0.0158 -0.2068 -0.0198
 4354W        W21202   0.887   0.697   5.426  0.0343 -0.0707  0.0493
 4355W        W21203  13.219   5.850   2.958 -0.0087  0.1326 -0.2585
 4356W        W21204   3.537   6.740   4.121 -0.3157 -0.0175  0.2016
 4357W        W21205  14.679   7.010   3.838 -0.1268  0.0786  0.2280
 4358W        W21206  13.189  12.149   4.227 -0.0371  0.0508 -0.0872
 4359W        W21207  13.623   8.456  17.798 -0.4029 -0.1078  0.2658
 4360W        W21208  16.845  11.060   5.682 -0.0084 -0.1088 -0.0253
 4361W        W21209   6.417  10.103   4.013 -0.3606 -0.0771 -0.0672
 4362W        W21210  12.316   7.068   2.069 -0.0624 -0.3326 -0.0344
 4363W        W21211   5.126   3.316  12.324  0.1055 -0.1080 -0.0089
 4364W        W21212   8.007   0.513   2.717  0.0184  0.0079 -0.2589
 4365W        W21213   5.783  12.314   4.568  0.1757 -0.0290  0.3966
 4366W        W21214  14.607   9.280   4.102 -0.0398  0.1557  0.0722
 4367W        W21215   2.178   0.899  17.270  0.0925  0.0281  0.0037
 4368W        W21216  13.661   2.734  13.945 -0.1663 -0.1825  0.0799
 4369W        W21217   1.963   2.823   2.668  0.0575  0.2617  0.0436
 4370W        W21218   5.190  10.184  15.294 -0.0885 -0.1607 -0.1863
 4371W        W21219   0.608   4.170   0.446 -0.0447 -0.1850 -0.1815
 4372W        W21220   2.838  14.226   2.485 -0.0067 -0.3197  0.0841
 4373W        W21221   0.163   5.771   3.813  0.0967 -0.0275  0.0728
 4374W        W21222   1.596   1.664  15.398 -0.1359 -0.1524  0.4500
 4375W        W21223  13.488  11.371   1.040 -0.0154  0.2864  0.0441
 4376W        W21224   9.008   7.466   1.717  0.3521 -0.0942  0.0712
 4377W        W21225  13.403   2.154   2.679 -0.0118  0.0934 -0.1618
 4378W        W21226  11.272   9.511   2.961 -0.1961 -0.1261 -0.1006
 4379W        W21227   0.243  13.566  15.072 -0.1562  0.3141 -0.1725
 4380W        W21228   1.804   0.682   5.607 -0.2401  0.1100  0.3807
 4381W        W21229  12.305   9.188   0.181  0.0666  0.1360 -0.0242
 4382W        W21230   0.734   3.362   1.226  0.0360  0.1569  0.1030
 4383W        W21231   9.737  11.024  17.397 -0.0491  0.1933  0.1173
 4384W        W21232   8.759   0.821  16.265  0.3338  0.0570  0.1850
 4385W        W21233   4.432  11.169  13.610  0.2037 -0.0498 -0.0146
 4386W        W21234   0.843   6.041  14.644  0.0046 -0.0551 -0.2409
 4387W        W21235  14.179  12.883  15.806  0.1794 -0.0580  0.2847
 4388W        W21236   4.311   1.584   3.261 -0.1850  0.1148 -0.2105
 4389W        W21237  16.534   3.613   4.439 -0.0620 -0.0762 -0.1269
 4390W        W21238   2.456  14.247  13.949 -0.1118  0.3084  0.1242
 4391W        W21239  16.783  12.336  12.812  0.0551  0.4932  0.2564
 4392W        W21240  11.676  10.245  16.103  0.1079 -0.0371  0.0407
 4393W        W21241  14.360  10.194   3.118  0.0653  0.5644  0.3467
 4394W        W21242  12.800  10.072   3.322  0.0803 -0.1554  0.0497
 4395W        W21243   0.128   9.391  14.068 -0.0187 -0.2176 -0.0589
 4396W        W21244   1.656   5.140   2.275 -0.4747 -0.0515  0.0246
 4397W        W21245   6.916   6.548   2.816  0.1759  0.3125  0.2811
 4398W        W21246  10.009   9.722  16.685 -0.1360  0.3284  0.0703
 4399W        W21247   8.020   4.255   6.409  0.0155  0.1219 -0.0029
 4400W        W21248   0.458  11.774   4.807  0.0105 -0.1270  0.2526
 4401W        W21249   1.089   0.245  11.944  0.2242  0.0196  0.1452
 4402W        W21250   2.403  16.272  12.178 -0.1962 -0.2233 -0.1139
 4403W        W21251  10.049  17.055  12.762 -0.0603  0.1575  0.0840
 4404W        W21252   0.020   6.991  16.843 -0.0389 -0.0803  0.1708
 4405W        W21253   1.128  12.566   0.068 -0.1124  0.0031 -0.2201
 4406W        W21254   4.712  10.378  17.132 -0.0056 -0.1218 -0.0609
 4407W        W21255  10.724  13.456   2.517  0.3035 -0.2764 -0.1031
 4408W        W21256   8.891   9.571   5.773 -0.1413  0.2697  0.2069
 4409W        W21257   0.129   6.536  14.589  0.1017  0.0337 -0.0265
 4410W        W21258  10.674   6.645   4.160 -0.4043 -0.2106  0.1289
 4411W        W21259  10.082  15.025  13.670 -0.0094  0.0918 -0.0199
 4412W        W21260  14.862   0.238  14.950 -0.1754 -0.1147  0.0570
 4413W        W21261  10.450   4.213  14.404 -0.0894 -0.2324 -0.1003
 4414W        W21262   2.196  15.488  11.702  0.0497  0.0910  0.1798
 4415W        W21263  10.504   8.558   0.732 -0.4324  0.3272  0.3016
 4416W        W21264   7.510   0.715  14.416  0.2497 -0.1036  0.0273
 4417W        W21265  11.340   4.012   6.313  0.0384  0.2007  0.0863
 4418W        W21266   5.130   0.904   0.229 -0.0912  0.1669 -0.0477
 4419W        W21267   7.012  16.458  16.817  0.1354  0.0386 -0.1284
 4420W        W21268  12.749   9.624   4.235 -0.0333  0.0773  0.0007
 4421W        W21269  13.122   5.827  12.198 -0.0667  0.0480  0.2030
 4422W        W21270  15.851  15.980   3.219 -0.0114 -0.0631 -0.1585
 4423W        W21271   8.695   7.858  15.034 -0.4003  0.1638  0.1317
 4424W        W21272  14.518   4.566   6.147  0.0467 -0.0853 -0.1732
 4425W        W21273   6.514   3.425  13.554  0.3252 -0.0113 -0.1425
 4426W        W21274   7.902  11.293   4.025 -0.1116 -0.0392 -0.2020
 4427W        W21275   2.192  15.161  15.360  0.0025  0.1092 -0.1255
 4428W        W21276  15.906  11.090   0.041 -0.0150 -0.0953  0.1313
 4429W        W21277  16.191   1.440  15.922 -0.0853  0.0604  0.1082
 4430W        W21278   8.560   8.440  11.209  0.0293  0.0605 -0.0956
 4431W        W21279  12.593  16.464   2.838 -0.0388  0.0144 -0.0168
 4432W        W21280   9.914   2.084  16.722  0.2091 -0.1087 -0.0939
 4433W        W21281   8.582   9.643  16.756 -0.1257  0.1142 -0.1774
 4434W        W21282  15.518   2.363  16.373 -0.0104 -0.0767  0.0739
 4435W        W21283   9.565   1.873  11.203  0.1402  0.1237  0.0222
 4436W        W21284   5.552   4.664   1.136  0.1556  0.0773  0.0684
 4437W        W21285  16.222   0.918  16.854  0.1494 -0.0498  0.0242
 4438W        W21286   0.382   6.179  16.419 -0.5028 -0.0072  0.2345
 4439W        W21287  16.534   6.637  12.971  0.2776 -0.2017 -0.2786
 4440W        W21288   0.158   7.702   1.734  0.3096 -0.1367  0.0766
 4441W        W21289  12.959  14.649   1.800  0.1807 -0.2601  0.1708
 4442W        W21290  11.083  13.714   0.055 -0.1784 -0.1949 -0.1635
 4443W        W21291  10.084   1.819   0.956 -0.0152 -0.0515  0.0075
 4444W        W21292   4.853   1.955  15.129 -0.2027 -0.0414  0.3546
 4445W        W21293  10.105   3.319  15.986  0.1068 -0.0276 -0.1284
 4446W        W21294   4.584  16.306   5.806  0.0090 -0.0554  0.2729
 4447W        W21295   0.840   6.428  16.159  0.1801  0.1928 -0.0833
 4448W        W21296  12.914  16.654  12.262 -0.0113 -0.0249  0.0014
 4449W        W21297  15.109  12.248  11.765 -0.0910  0.1603  0.0761
 4450W        W21298   0.232   3.448  15.670 -0.1867  0.1362  0.0803
 4451W        W21299  14.080   8.545  15.205  0.0192  0.1260 -0.2779
 4452W        W21300   2.363   3.744  12.886 -0.0637 -0.1392 -0.4270
 4453W        W21301   8.422  11.035   4.767  0.1290 -0.1580 -0.2780
 4454W        W21302   0.695  12.821   4.989 -0.2108 -0.0411 -0.0114
 4455W        W21303  15.050   8.204  13.897  0.0155  0.2383 -0.0376
 4456W        W21304   2.846   3.483   1.170  0.3993  0.0571 -0.0548
 4457W        W21305  16.881   0.062  12.062 -0.1433 -0.0289 -0.3125
 4458W        W21306  16.139   0.455   3.062 -0.0911  0.1557  0.1354
 4459W        W21307   2.968  13.300  12.206 -0.3170  0.0667  0.1230
 4460W        W21308   7.795   5.900  15.564  0.0886  0.1198 -0.3513
 4461W        W21309  16.978   1.437  12.279  0.1104  0.1846  0.1194
 4462W        W21310  14.958   7.888  15.803 -0.1086  0.2457  0.0996
 4463W        W21311   1.018   1.042  13.740 -0.1852 -0.3254  0.1821
 4464W        W21312  10.450  13.540  14.099  0.0824  0.3954 -0.0501
 4465W        W21313   5.755   2.995  17.813  0.3559 -0.1523  0.0546
 4466W        W21314   7.664  10.228   1.842  0.3728  0.0330 -0.1857
 4467W        W21315  16.892  11.274  14.021  0.1297 -0.1325 -0.1174
 4468W        W21316   9.650   2.588   3.325  0.1744  0.1026 -0.0407
 4469W        W21317  14.624   6.083   1.873  0.2077 -0.1923 -0.3351
 4470W        W21318   1.702   4.569  17.498  0.0087  0.0958 -0.0512
 4471W        W21319   8.319  12.883   4.438  0.3518 -0.0215  0.0821
 4472W        W21320  16.441   8.753  13.757  0.0898  0.0887  0.0807
 4473W        W21321   8.470   7.339   0.736  0.0284  0.2155 -0.0408
 4474W        W21322  11.458   6.077  16.185  0.0044 -0.1660 -0.3236
 4475W        W21323  15.594  14.830  13.789 -0.4986 -0.0084 -0.0608
 4476W        W21324   7.017   7.615  12.398  0.1999  0.1363  0.2448
 4477W        W21325   2.612  13.010  13.049  0.2989  0.0922 -0.0541
 4478W        W21326  12.508   2.233  16.722 -0.0260  0.1355  0.1841
 4479W        W21327   9.202  13.386   1.638  0.0006 -0.2780 -0.1097
 4480W        W21328  15.153   0.477   1.849 -0.0168 -0.0400 -0.0895
 4481W        W21329  15.896   9.982  16.328 -0.1177 -0.0097 -0.2330
 4482W        W21330   1.666  13.191  11.337 -0.0005 -0.3252 -0.1612
 4483W        W21331   0.395  13.192  12.743  0.2005 -0.0841 -0.0427
 4484W        W21332  15.120  14.261   1.478  0.2698  0.0823 -0.1297
 4485W        W21333   4.621  12.420  16.245  0.1254  0.1116  0.3408
 4486W        W21334   7.342   6.169   0.526  0.2093 -0.1323  0.1123
 4487W        W21335   6.328  14.503   1.948 -0.1405 -0.3570  0.1093
 4488W        W21336  15.267   8.184   4.436 -0.1422  0.1755 -0.0070
 4489W        W21337   2.555   4.345   3.394  0.2455 -0.0807  0.0490
 4490W        W21338  14.323   1.065   2.598 -0.0175  0.3757 -0.0853
 4491W        W21339  13.669  14.091  15.408 -0.0322  0.2961  0.3340
 4492W        W21340  11.901   7.473  15.853  0.0424 -0.2886 -0.0553
 4493W        W21341  15.617   0.248   1.716 -0.1202  0.1361  0.4729
 4494W        W21342  16.670   6.788   1.786 -0.2379  0.2613 -0.0199
 4495W        W21343   2.223   0.815   3.194 -0.1458 -0.0357  0.0794
 4496W        W21344   5.547   0.291  12.019  0.0570  0.2932 -0.1076
 4497W        W21345   8.449   2.103  12.712  0.2840 -0.0048  0.0310
 4498W        W21346   0.334   7.047  12.912 -0.1799  0.2986  0.1990
 4499W        W21347  12.201  11.934  14.703 -0.1757  0.0009  0.2256
 4500W        W21348   3.216   2.059   2.903  0.0381  0.0101 -0.4187
 4501W        W21349  13.894   0.800   0.766 -0.1499  0.1723  0.2823
 4502W        W21350   4.051   8.587  12.583  0.3822  0.1462  0.1391
 4503W        W21351  13.401   5.380  17.495 -0.3194 -0.0309  0.1152
 4504W        W21352  15.007  11.486   5.596  0.4703  0.1288  0.0137
 4505W        W21353   0.298   0.937  17.035 -0.0719 -0.2075 -0.3171
 4506W        W21354   5.643  14.676  12.773 -0.1497 -0.0692  0.0580
 4507W        W21355   8.247  10.182   3.602  0.0957  0.0163 -0.2058
 4508W        W21356   3.012  17.052   1.193 -0.4778 -0.0913 -0.2411
 4509W        W21357  10.218  13.076   0.011 -0.0894 -0.0219  0.1388
 4510W        W21358  14.457   1.776  17.821 -0.2275 -0.1409  0.2773
 4511W        W21359  15.063  15.552   3.652  0.1376  0.2296  0.0303
 4512W        W21360   0.834  12.256   2.211  0.1068 -0.2143 -0.0786
 4513W        W21361  13.813  13.931  14.537 -0.2366 -0.0911  0.3281
 4514W        W21362   1.157  10.190  16.596 -0.1962  0.3872 -0.0342
 4515W        W21363  16.061   1.423  16.797 -0.1457  0.1260 -0.1196
 4516W        W21364   5.619   4.181   4.128  0.1263  0.0525 -0.0120
 4517W        W21365   9.381   0.680   1.156 -0.0845  0.2252 -0.2145
 4518W        W21366   7.976   4.739  12.924 -0.0537  0.1637  0.0979
 4519W        W21367   4.500  12.947   3.287 -0.0839 -0.1125  0.1654
 4520W        W21368   2.713  16.981   0.327 -0.3383  0.0942 -0.1454
 4521W        W21369  10.220  10.269   1.068 -0.0278 -0.0954 -0.2076
 4522W        W21370   3.963   2.828  14.590 -0.2598  0.0720 -0.2004
 4523W        W21371   9.798   4.924   3.313 -0.0770 -0.2744 -0.1165
 4524W        W21372  12.909   4.743  17.481  0.1461  0.1893  0.0232
 4525W        W21373  13.936  10.029  17.129  0.1133 -0.1239 -0.0323
 4526W        W21374   8.301   1.319   1.072 -0.1594 -0.0950 -0.2903
 4527W        W21375  14.333   6.256  15.825  0.2031  0.0200  0.0935
 4528W        W21376   2.939  15.842  16.690 -0.2787  0.1348  0.0731
 4529W        W21377   9.443  15.360  15.037  0.0564 -0.1708  0.1280
 4530W        W21378  12.677  14.564   5.256 -0.3378  0.0408 -0.1558
 4531W        W21379   9.885  16.853  12.352  0.1619  0.1350 -0.1521
 4532W        W21380  13.725   1.670   4.106  0.0242  0.2159 -0.2194
 4533W        W21381  12.759  10.976  15.990 -0.3655 -0.1260  0.0965
 4534W        W21382  11.505   9.267   4.435  0.1003  0.0309 -0.1992
 4535W        W21383   7.938   6.130   1.891 -0.0129 -0.0119 -0.3503
 4536W        W21384   9.137   5.342  12.112 -0.2722 -0.0027 -0.1493
 4537W        W21385  12.491  10.286   2.661  0.0231  0.1983 -0.1417
 4538W        W21386  11.465   0.051   0.092  0.0996  0.4577  0.0316
 4539W        W21387   0.189   0.719   4.306 -0.2356  0.0483 -0.3325
 4540W        W21388   0.142  11.688  13.859  0.5820 -0.1356 -0.0409
 4541W        W21389   3.153   6.728  14.828 -0.0888  0.1966  0.1084
 4542W        W21390   5.987   1.176   4.022 -0.3323  0.0780 -0.1490
 4543W        W21391  14.473   1.961   5.139  0.0556  0.0936  0.1148
 4544W        W21392   6.332  12.615   6.193 -0.0405 -0.0750  0.2081
 4545W        W21393  15.964   6.170  16.249 -0.1845  0.0423 -0.0722
 4546W        W21394  11.887   1.129  12.474 -0.1366 -0.0667 -0.3673
 4547W        W21395   5.925   2.139   3.763 -0.0812 -0.3282 -0.2477
 4548W        W21396  12.648   9.642  16.323 -0.1071 -0.2512 -0.1459
 4549W        W21397   5.956  13.236   0.168  0.0490  0.1822  0.1135
 4550W        W21398   1.996   9.839  12.276  0.1118 -0.0084 -0.1207
 4551W        W21399   0.349  15.991   1.422 -0.2601 -0.1386 -0.0719
 4552W        W21400   4.929   3.661  13.575  0.2511  0.0183  0.0660
 4553W        W21401   0.131  15.577   5.143 -0.0547 -0.1760 -0.4057
 4554W        W21402   4.003   0.180  14.434 -0.0734 -0.0245  0.0191
 4555W        W21403   2.010  14.283   4.410  0.0019 -0.2895  0.1383
 4556W        W21404   1.582   3.091   2.431  0.3126 -0.2411  0.1819
 4557W        W21405   6.698   2.549   1.868 -0.1435  0.2748  0.0206
 4558W        W21406   7.214  13.200  11.902 -0.2967 -0.2732 -0.0712
 4559W        W21407   0.022  12.119   4.020  0.0758  0.1021  0.0446
 4560W        W21408  11.773   1.607   0.113 -0.4547 -0.0166  0.0072
 4561W        W21409  15.349  12.779   2.527  0.0388  0.2219  0.1911
 4562W        W21410   8.345   8.454   4.202  0.2178 -0.1090  0.1440
 4563W        W21411  16.477  16.192  15.587  0.1173 -0.0325 -0.2110
 4564W        W21412  14.392  11.393   1.157 -0.0964 -0.0837 -0.1270
 4565W        W21413   1.313   9.643  12.523 -0.0013  0.0092  0.0439
 4566W        W21414  10.620  12.480  13.742 -0.1194  0.3560 -0.4094
 4567W        W21415  13.368  15.304  12.386  0.0082  0.0971 -0.1019
 4568W        W21416  13.220  13.727   5.563 -0.0015 -0.1734  0.2146
 4569W        W21417   3.097   3.673  17.009 -0.1422  0.0785 -0.0661
 4570W        W21418  10.797   7.988  13.171 -0.0036 -0.0566 -0.1270
 4571W        W21419   8.713   1.956   5.712  0.0243 -0.0829 -0.1064
 4572W        W21420  13.959  13.035  13.198  0.0378  0.1363 -0.0735
 4573W        W21421   5.446   9.438   1.150  0.0837 -0.0693  0.0612
 4574W        W21422   8.413  16.472  16.945  0.0655  0.1206  0.0740
 4575W        W21423  11.262   8.515  17.532 -0.1650  0.4572  0.2229
 4576W        W21424   3.590   1.439  12.623 -0.0629 -0.0804 -0.0851
 4577W        W21425  14.944   1.787   2.433 -0.3203 -0.0523 -0.0407
 4578W        W21426   2.613   5.011   3.314 -0.2421 -0.2802 -0.2803
 4579W        W21427  16.284  15.723  13.836  0.0563 -0.2133 -0.1292
 4580W        W21428  14.368  15.465  16.457  0.1151 -0.0614 -0.0955
 4581W        W21429  14.473  12.138  16.406  0.2246  0.0151  0.0238
 4582W        W21430  16.409   6.749   1.227 -0.0003  0.0373  0.0113
 4583W        W21431   6.880   9.303   3.116 -0.2416  0.2278  0.0714
 4584W        W21432   6.106   2.538  12.625  0.3479  0.1324  0.3601
 4585W        W21433   0.812   2.240  15.568 -0.0290 -0.0849 -0.1825
 4586W        W21434  11.843  13.788  12.252 -0.2674 -0.3144  0.2574
 4587W        W21435   2.191  15.691   0.436  0.1210 -0.2740  0.3662
 4588W        W21436   0.438   1.035  15.680  0.1194 -0.1956 -0.2080
 4589W        W21437   5.162   6.761   3.874  0.3425  0.0217  0.0118
 4590W        W21438  11.850   3.796   4.795  0.2284  0.2057 -0.1686
 4591W        W21439  13.732   3.641   4.831  0.1221 -0.1878 -0.0025
 4592W        W21440   2.949  13.500   4.181 -0.0194  0.1335  0.0518
 4593W        W21441  12.319  12.973   5.534 -0.4025  0.1544  0.0508
 4594W        W21442  16.718  14.111  16.696 -0.0221  0.0072 -0.1934
 4595W        W21443  10.997  14.792  16.894 -0.0088 -0.0612  0.1245
 4596W        W21444   1.526  13.922   2.267 -0.0010 -0.3443 -0.0861
 4597W        W21445   2.748   2.558   4.927 -0.1141  0.1061  0.0693
 4598W        W21446   7.515  10.324   0.220 -0.1263  0.3641  0.0428
 4599W        W21447  10.442  10.427   6.706 -0.0195 -0.3578 -0.2673
 4600W        W21448   3.770   2.213  13.572 -0.0616 -0.0012 -0.0311
 4601W        W21449   0.542  14.784   1.702  0.0271 -0.0590 -0.0522
 4602W        W21450   1.570   3.154  13.653  0.1188 -0.3678  0.5333
 4603W        W21451   0.871  15.211  17.607  0.2062  0.1093  0.1081
 4604W        W21452  16.106   4.495   4.481  0.0875 -0.0465  0.0917
 4605W        W21453  13.271  10.768  17.790  0.0642  0.1981  0.0154
 4606W        W21454  15.076   2.681  15.080  0.3086  0.1182  0.0117
 4607W        W21455  16.238   0.506  16.483 -0.1830  0.0600  0.0097
 4608W        W21456  13.719  16.999  13.894 -0.1799  0.0324 -0.0364
 4609W        W21457  15.730  16.846  17.500  0.0094 -0.0441  0.0599
 4610W        W21458   3.934   0.716   5.273 -0.0025  0.3729 -0.2116
 4611W        W21459  13.610   3.626  15.924 -0.0682 -0.0075  0.2716
 4612W        W21460   0.292   6.415   1.417  0.2224 -0.0279 -0.1762
 4613W        W21461   4.137   1.993   2.978  0.1267  0.0411 -0.1932
 4614W        W21462   1.917  10.132  14.281 -0.0278  0.2477 -0.0582
 4615W        W21463   1.618  11.352   4.139 -0.1396  0.0896 -0.3187
 4616W        W21464  12.882   7.081  12.559 -0.0860  0.1817  0.0879
 4617W        W21465   5.200   8.130   4.170 -0.1805 -0.0731 -0.0242
 4618W        W21466  11.812   6.741  13.737  0.0290  0.3659  0.1016
 4619W        W21467   8.024  14.644   1.546 -0.3008 -0.1978  0.3918
 4620W        W21468   9.997   2.564  11.818 -0.0598  0.1708  0.0322
 4621W        W21469  16.353   2.806  14.630  0.2371 -0.0825 -0.2484
 4622W        W21470   0.432   1.325  15.130  0.0572  0.1145  0.0812
 4623W        W21471   0.329   9.140  13.181  0.0493 -0.0489  0.5209
 4624W        W21472   0.989   5.083   1.368  0.1412  0.0226 -0.2958
 4625W        W21473   3.708   6.148   0.237 -0.2367  0.0554  0.0639
 4626W        W21474   4.917   6.907   5.230 -0.2133 -0.1925 -0.2500
 4627W        W21475  10.467  15.760   2.352  0.0271 -0.3011 -0.3358
 4628W        W21476  12.134   6.731  17.100  0.0893 -0.0545 -0.1912
 4629W        W21477  17.008   7.847  12.302 -0.0085 -0.3191 -0.1855
 4630W        W21478   0.012  16.837  13.051  0.2050 -0.2551  0.1321
 4631W        W21479  11.531  15.696  16.461  0.0306  0.1484 -0.1098
 4632W        W21480  16.125  16.829  11.410 -0.2777  0.1132 -0.3028
 4633W        W21481   1.153  13.593   2.137 -0.0927 -0.1130 -0.2005
 4634W        W21482   9.012  12.090   1.043 -0.2171 -0.0554 -0.0287
 4635W        W21483   3.099  12.205  14.621 -0.3554  0.3479 -0.0256
 4636W        W21484  12.291   2.049   3.055 -0.0468 -0.3715 -0.0443
 4637W        W21485   2.729   8.295   4.429 -0.0980 -0.4060  0.0599
 4638W        W21486  13.840   1.880  15.255  0.0754  0.0623 -0.2730
 4639W        W21487   8.283   5.957   0.989 -0.0158 -0.0524 -0.0843
 4640W        W21488  11.523  16.953   2.791 -0.3351 -0.0148 -0.0272
 4641W        W21489  13.244  11.701   3.235  0.0053 -0.0302  0.3691
 4642W        W21490   1.329   7.550  13.832 -0.1016 -0.1532 -0.0762
 4643W        W21491   1.958   0.780   1.763  0.1686  0.2397  0.1697
 4644W        W21492   1.507   3.933  12.323  0.0670 -0.1888  0.0488
 4645W        W21493   3.920   6.328   1.670 -0.0708 -0.3388  0.2207
 4646W        W21494  16.680   7.056  17.700  0.0618  0.0148 -0.1203
 4647W        W21495  14.341   5.893   3.384 -0.1058  0.2162 -0.3422
 4648W        W21496  11.078   4.942   5.028 -0.3443 -0.2864 -0.0660
 4649W        W21497  11.266  10.618  15.010 -0.0647 -0.0838  0.1882
 4650W        W21498   6.149   4.157   5.804  0.2979 -0.0091 -0.0546
 4651W        W21499   6.581   5.243  15.635 -0.1793 -0.1469 -0.0702
 4652W        W21500  14.284  16.518  16.080 -0.1500 -0.4183 -0.0950
 4653W        W21501   0.533   7.534   5.077 -0.1018 -0.0779  0.0497
 4654W        W21502   0.507   2.571  16.794 -0.0123  0.0414  0.1644
 4655W        W21503  15.536   9.698   0.680 -0.0240  0.3928 -0.0158
 4656W        W21504   5.324   8.222   5.061 -0.0251  0.2189 -0.2248
 4657W        W21505  12.333   2.426  15.643 -0.1444 -0.0221  0.1456
 4658W        W21506  14.963   2.322  14.214 -0.1460 -0.2718  0.1017
 4659W        W21507   8.727   4.643   3.824  0.0422  0.5330 -0.0168
 4660W        W21508   9.118   6.719   2.514 -0.1891 -0.0058 -0.1262
 4661W        W21509   7.740   7.493   3.015 -0.1720  0.1061 -0.1327
 4662W        W21510   3.273  14.070   0.803 -0.1002 -0.2567  0.3064
 4663W        W21511   8.493   3.874   2.288 -0.1761 -0.0125  0.0574
 4664W        W21512   2.837  10.578  12.291  0.1020 -0.0264  0.1499
 4665W        W21513  11.710   9.793  15.863 -0.0815  0.0285 -0.0719
 4666W        W21514   7.574   2.897   1.284  0.2907 -0.0994  0.1574
 4667W        W21515  15.630  16.473  12.677  0.0335 -0.1189  0.1371
 4668W        W21516  16.071   6.913  16.724 -0.0672 -0.1041  0.0284
 4669W        W21517   0.377   9.904   0.330 -0.0724  0.0415 -0.0387
 4670W        W21518  14.075   6.746   2.076  0.1612  0.0179  0.0726
 4671W        W21519   4.528  12.989  16.308  0.1601 -0.2797  0.3253
 4672W        W21520   6.930   8.898  13.972 -0.0188 -0.1964  0.3769
 4673W        W21521   3.743  11.018   0.087 -0.0132 -0.0321 -0.0478
 4674W        W21522  10.562  15.715  14.066  0.4068  0.1136 -0.0008
 4675W        W21523   7.151   0.847  15.743  0.0903 -0.0153 -0.1511
 4676W        W21524   8.200   2.297   4.755  0.0606 -0.0104 -0.0602
 4677W        W21525  16.062  15.105  13.839 -0.1373  0.2304 -0.0093
 4678W        W21526   1.206   5.008  13.164  0.0407 -0.1619  0.0347
 4679W        W21527   1.946  16.296   0.625  0.1442  0.2081  0.2343
 4680W        W21528  16.441   0.654   2.659 -0.1024 -0.0231 -0.0865
 4681W        W21529  16.088   1.627   5.436 -0.0507 -0.1623 -0.0683
 4682W        W21530  11.755   4.366  16.587 -0.0857  0.0556 -0.0412
 4683W        W21531   5.191  13.826   5.027 -0.0854 -0.2200 -0.4397
 4684W        W21532  14.458   2.444  15.576 -0.1521 -0.1179 -0.0129
 4685W        W21533  14.546  13.101  12.397  0.2032  0.0367 -0.1285
 4686W        W21534   3.916   5.782  17.105 -0.2497 -0.1645 -0.3621
 4687W        W21535  11.647  14.650  14.798 -0.2624  0.0597  0.1028
 4688W        W21536  13.069   1.989  12.903  0.0103  0.1471  0.0108
 4689W        W21537  16.159  11.558   2.628  0.0202  0.0657 -0.2470
 4690W        W21538   7.058  13.103  13.747  0.3447  0.0053 -0.1205
 4691W        W21539   4.462   2.147   5.506  0.1042 -0.4053 -0.0828
 4692W        W21540   0.515   4.072  14.133  0.1506  0.1863  0.1606
 4693W        W21541   1.049   6.038  16.858 -0.3395  0.0716 -0.0168
 4694W        W21542   9.845  12.654   0.630  0.2698 -0.1518  0.1388
 4695W        W21543  12.940   7.811  14.856  0.4833 -0.0378 -0.2390
 4696W        W21544   4.794   8.285  16.550 -0.1443 -0.1790 -0.1645
 4697W        W21545   6.247  12.642  14.760 -0.1203  0.1642  0.2991
 4698W        W21546   1.038   3.581  13.114 -0.1095  0.0440 -0.0745
 4699W        W21547  12.204   6.119   5.407  0.1140 -0.1228  0.0389
 4700W        W21548   7.565   5.863   2.099 -0.4536 -0.1861 -0.1568
 4701W        W21549  16.356   6.531  16.716  0.2084  0.1355  0.1685
 4702W        W21550   7.808   4.252  14.085 -0.1898  0.0904 -0.1416
 4703W        W21551   7.634   0.076   4.306 -0.1322 -0.3642  0.3270
 4704W        W21552  13.697   6.064  15.987  0.1226 -0.0451 -0.1846
 4705W        W21553  14.398   3.267  15.018 -0.2121  0.1171  0.2421
 4706W        W21554   8.881   1.534   5.609 -0.3346  0.2454 -0.1492
 4707W        W21555   6.078   3.528  16.691  0.0907  0.2527  0.2506
 4708W        W21556  15.255   4.013  14.244  0.0123  0.2351  0.2675
 4709W        W21557   4.786   9.926   0.581 -0.0250 -0.2774 -0.1637
 4710W        W21558  13.272  16.713  16.623 -0.1603  0.0759  0.1461
 4711W        W21559   0.199   5.048  15.766  0.2457  0.2113 -0.0278
 4712W        W21560   4.003   2.273   5.350 -0.2338  0.0166 -0.2325
 4713W        W21561   7.525   4.289  16.743  0.0023  0.2276 -0.0454
 4714W        W21562  10.373   2.094  17.541 -0.1379  0.0661  0.1712
 4715W        W21563   3.126   9.515   3.220 -0.1597  0.1235  0.2829
 4716W        W21564   2.613   0.451   5.533 -0.0245 -0.0069  0.1482
 4717W        W21565  13.982  10.416  15.833  0.0192 -0.2094 -0.1217
 4718W        W21566  16.348   7.488   0.593 -0.2278 -0.1730 -0.1499
 4719W        W21567   0.894   4.379   4.279  0.0292 -0.0392 -0.0973
 4720W        W21568  14.014   0.840   3.972 -0.1480  0.1259  0.2089
 4721W        W21569   1.403   1.352   4.995 -0.0266 -0.2671  0.0388
 4722W        W21570   9.227   4.690  14.114  0.3099 -0.0738 -0.0863
 4723W        W21571   0.299  15.151  14.155 -0.2434  0.1936 -0.2765
 4724W        W21572  14.664   9.300  13.868  0.1904  0.0430  0.0321
 4725W        W21573   0.823   4.303   4.783 -0.3346 -0.0506  0.1925
 4726W        W21574  13.481  13.212  16.624 -0.0268 -0.0473  0.0307
 4727W        W21575   6.762  15.328   2.903  0.2336  0.1214 -0.2073
 4728W        W21576   2.186  17.005   0.620  0.1122 -0.0370 -0.1724
 4729W        W21577  13.670  16.433   1.691  0.0703  0.1021  0.2106
 4730W        W21578  14.777   5.102  13.811 -0.1571 -0.2219  0.0157
 4731W        W21579  15.269   5.632  16.203 -0.1475 -0.1526  0.0182
 4732W        W21580   9.034  16.303   1.750  0.4318  0.3977 -0.2307
 4733W        W21581  10.900   5.039   4.075 -0.1855  0.2908 -0.2062
 4734W        W21582   2.372  10.171   5.643 -0.3032  0.2162 -0.0291
 4735W        W21583   0.508   7.767   3.420 -0.1477 -0.0688 -0.3711
 4736W        W21584   8.994  15.291  16.515  0.0369  0.0263  0.0053
 4737W        W21585   5.088   9.803   3.180 -0.0968 -0.1187 -0.2181
 4738W        W21586   2.323  16.401  14.244 -0.0037  0.2463  0.1087
 4739W        W21587  16.275   9.613   3.903 -0.3061  0.3486  0.0185
 4740W        W21588  10.336  11.841   2.496 -0.1753  0.4149 -0.0856
 4741W        W21589   2.966  14.801  14.388  0.1804 -0.0718  0.0779
 4742W        W21590  10.073   9.205  12.892 -0.0380 -0.0481 -0.0457
 4743W        W21591  15.326   7.582  16.583 -0.0480  0.2595 -0.4408
 4744W        W21592  11.173  14.884   2.754 -0.5483  0.1413  0.0490
 4745W        W21593  11.073  12.571   4.499  0.2592 -0.1339  0.1234
 4746W        W21594  14.224   7.693   3.851 -0.3560 -0.1031 -0.0925
 4747W        W21595  10.258   3.808   4.464  0.1587  0.1371 -0.0001
 4748W        W21596  14.761  16.821   1.392 -0.1733 -0.4273  0.0744
 4749W        W21597  15.643  12.135   5.981  0.4076  0.2530  0.2743
 4750W        W21598   1.716  12.036  13.588 -0.0218 -0.2427  0.2690
 4751W        W21599  14.352  14.882   3.069  0.0598  0.0147 -0.2386
 4752W        W21600  14.889   5.515   0.751  0.2029  0.1342 -0.2459
 4753W        W21601  16.059   3.464   4.147 -0.2052 -0.0233 -0.1216
 4754W        W21602  12.824   1.216  16.627  0.1438 -0.1951 -0.1650
 4755W        W21603  10.770   7.452  17.414 -0.1450  0.1366 -0.2568
 4756W        W21604  16.235  11.596  17.221 -0.1566 -0.0038 -0.0782
 4757W        W21605   0.605   6.887  16.908  0.1381  0.0370 -0.0350
 4758W        W21606   3.316   3.417   1.407  0.0607 -0.2060 -0.1600
 4759W        W21607   6.617  16.839   1.461 -0.2798  0.3007 -0.5337
 4760W        W21608   3.199   1.864  15.744  0.0482 -0.0563  0.3067
 4761W        W21609   0.976   4.206   2.836  0.2087  0.0708 -0.0178
 4762W        W21610   1.960   6.364   3.504 -0.2031  0.2632 -0.1423
 4763W        W21611   1.786   9.898   1.864  0.3607  0.3396 -0.0138
 4764W        W21612   2.045  14.581   2.730  0.1181  0.1307 -0.1102
 4765W        W21613   3.441   2.890  11.725  0.1206 -0.3533  0.2719
 4766W        W21614   4.312  12.945   0.661  0.0260  0.0855 -0.2135
 4767W        W21615   1.941  11.974   0.241  0.3251  0.1589 -0.1230
 4768W        W21616   3.425   4.698   4.895  0.0930  0.0579 -0.2481
 4769W        W21617   6.522   0.902   5.401  0.1399 -0.1020  0.0283
 4770W        W21618   8.244  16.607   5.389 -0.2610 -0.0145 -0.2828
 4771W        W21619   2.283  10.719  15.852  0.0696  0.1130  0.1886
 4772W        W21620   8.893  12.856   1.522 -0.2115 -0.1897 -0.1756
 4773W        W21621  13.556  12.137  15.925  0.0750 -0.1059 -0.2122
 4774W        W21622   6.859  14.202   4.685  0.0323  0.0916 -0.0833
 4775W        W21623   8.130  10.893  11.504 -0.1185  0.0370  0.0573
 4776W        W21624  10.023   1.919   4.276 -0.1803 -0.0687  0.0696
 4777W        W21625  14.422   8.757  14.799 -0.2761  0.0314 -0.0290
 4778W        W21626   0.430   1.738  17.763  0.0306  0.0502 -0.4360
 4779W        W21627  10.873  12.923  17.775  0.1633  0.0464  0.1244
 4780W        W21628  15.825   2.570   4.929  0.1119  0.1279  0.1145
 4781W        W21629  11.562  16.018   0.851  0.0117 -0.1293 -0.1386
 4782W        W21630  11.098   1.089  17.042 -0.3099  0.0557 -0.1199
 4783W        W21631   6.563  12.858   4.729 -0.3108 -0.1047 -0.3921
 4784W        W21632   1.686   3.216  17.156 -0.3200  0.4318 -0.1041
 4785W        W21633  11.340  15.917  15.038  0.0175 -0.2504 -0.0560
 4786W        W21634   9.593  16.982  15.578  0.1957  0.2128  0.2909
 4787W        W21635  11.099   7.709   0.339 -0.3186 -0.0250 -0.4218
 4788W        W21636   6.413  11.067  13.378  0.1872  0.4433 -0.1234
 4789W        W21637   1.414   6.734   0.098 -0.2213  0.0988  0.1625
 4790W        W21638   9.050  10.217  16.580  0.0695 -0.1883  0.2871
 4791W        W21639   7.157  12.941   1.826 -0.1427 -0.0752  0.2072
 4792W        W21640   7.255   5.896  13.375  0.0892  0.2342  0.0517
 4793W        W21641  15.341  11.988  13.768 -0.0331  0.0591  0.1526
 4794W        W21642  10.915   6.782  17.630  0.0590 -0.1192 -0.3525
 4795W        W21643   3.382   1.199   3.934  0.1046  0.0021 -0.2262
 4796W        W21644  12.163   0.629  11.699  0.0519 -0.3617 -0.1966
 4797W        W21645   9.563   7.344   1.062  0.0097 -0.0732 -0.1907
 4798W        W21646  13.820  16.692  16.780  0.0512 -0.1683  0.1878
 4799W        W21647  15.288  15.688  15.505 -0.0433 -0.2433 -0.2202
 4800W        W21648   4.241   5.169  15.483  0.1332 -0.2728 -0.0529
 4801W        W21649   7.494  15.055  14.750  0.0579  0.3499 -0.1001
 4802W        W21650   2.805  14.072   1.925  0.2391 -0.0409 -0.0365
 4803W        W21651   1.245  14.448   2.392  0.2140 -0.1412  0.2824
 4804W        W21652  12.541  12.871   3.060 -0.0747 -0.0079  0.0153
 4805W        W21653   5.788  13.938  14.846 -0.2986  0.2169 -0.2872
 4806W        W21654   7.413   9.092  12.362  0.1606  0.0501 -0.3764
 4807W        W21655   6.498   6.598   5.106  0.5121  0.0288  0.0070
 4808W        W21656   9.440  16.279  17.634 -0.0483  0.3045 -0.1023
 4809W        W21657   7.674  12.405  14.971  0.2478 -0.0054 -0.2463
 4810W        W21658  16.925  14.907  14.367 -0.4083  0.2860 -0.0270
 4811W        W21659   0.032   6.993  16.192  0.0364  0.1769 -0.0721
 4812W        W21660  12.111   6.531  15.557  0.3034 -0.1558  0.0170
 4813W        W21661  16.292  13.860  16.583  0.2098 -0.1403  0.0508
 4814W        W21662  10.547  11.836  17.554  0.1389 -0.0033  0.0596
 4815W        W21663   9.890   3.900   2.446  0.0297 -0.0911 -0.1202
 4816W        W21664  16.152   5.392  15.609  0.0456  0.1277 -0.0353
 4817W        W21665   9.340  14.607  14.936  0.1687 -0.0256 -0.0727
 4818W        W21666  16.789   2.587   1.178 -0.2395  0.1708  0.1209
 4819W        W21667  10.967   8.113  16.119  0.0338  0.0348 -0.2393
 4820W        W21668   4.615  16.529  14.424 -0.5948 -0.0084 -0.0830
 4821W        W21669  13.938  14.488  13.760 -0.1197 -0.1147  0.1785
 4822W        W21670  11.997  11.555   3.655 -0.0380  0.1326 -0.0215
 4823W        W21671  17.031   4.033   6.603  0.1632  0.0434 -0.1024
 4824W        W21672   9.896  13.232  12.954  0.0562 -0.0627 -0.2117
 4825W        W21673   7.831   6.060  17.329  0.2337  0.0998 -0.1447
 4826W        W21674  14.347   8.083   4.268 -0.1139 -0.1393 -0.0698
 4827W        W21675   1.846   1.554  16.394  0.0770  0.0391 -0.0690
 4828W        W21676  15.269   9.128  14.468  0.1406  0.0292  0.0381
 4829W        W21677  13.137   0.492   1.048  0.0756 -0.4499 -0.1962
 4830W        W21678   9.301   8.196   0.470  0.0039  0.1691  0.0469
 4831W        W21679  11.612   7.852  15.811  0.0818  0.1786  0.1229
 4832W        W21680   2.368   4.278   4.302 -0.0144 -0.1157  0.3021
 4833W        W21681  13.654   2.175  13.719 -0.1487  0.1344 -0.3128
 4834W        W21682   9.318   0.841   4.059 -0.0058  0.1057  0.1034
 4835W        W21683   0.067   4.313   1.786 -0.1787 -0.2187  0.1652
 4836W        W21684  10.597   7.719   4.529 -0.0223 -0.2052 -0.0049
 4837W        W21685   7.474  10.648   5.030 -0.0426 -0.1490 -0.0078
 4838W        W21686   4.595   6.402  16.912 -0.0527  0.1115  0.1031
 4839W        W21687   4.259  15.133   5.132 -0.1664  0.0802  0.1628
 4840W        W21688  16.715  12.722  15.685 -0.0607  0.1625 -0.1059
 4841W        W21689   5.157   8.316  17.163  0.2469  0.2116  0.2316
 4842W        W21690  11.948  16.780   4.545  0.0777 -0.0648 -0.1320
 4843W        W21691   3.808  12.618  16.988  0.2746  0.3068 -0.1278
 4844W        W21692  11.445   9.468  15.515 -0.1381  0.3507 -0.0359
 4845W        W21693  14.562   8.322   0.109 -0.3816 -0.0126 -0.0553
 4846W        W21694  16.826  11.745   3.270  0.3327  0.1948  0.0117
 4847W        W21695   4.305  13.652  17.132  0.0055  0.2469  0.2513
 4848W        W21696   5.913  10.143   2.560  0.1543 -0.0056  0.1604
 4849W        W21697   7.999  16.640   1.933  0.0405 -0.1600 -0.0741
 4850W        W21698   6.503   9.874  15.678 -0.0510 -0.0298  0.1588
 4851W        W21699   5.223   3.629   1.972 -0.0921  0.1219  0.0957
 4852W        W21700   6.215   7.408  15.809  0.0600 -0.0847 -0.0010
 4853W        W21701   2.888  12.448  16.544  0.0426  0.0340  0.1951
 4854W        W21702   7.033   3.273  16.693  0.1412 -0.2369  0.1425
 4855W        W21703   6.159   9.072  16.040  0.0155 -0.2743  0.4065
 4856W        W21704  14.844   7.526  17.325 -0.1393 -0.2663  0.0682
 4857W        W21705  15.886   4.724   3.686 -0.0357  0.1192  0.1085
 4858W        W21706   3.716  13.057   1.481 -0.2557 -0.0233  0.0762
 4859W        W21707   7.784  13.054   5.188  0.2960 -0.2410  0.0371
 4860W        W21708   5.298  16.258   2.368  0.0410  0.1148  0.3005
 4861W        W21709   6.981   8.291   5.241  0.1647 -0.4002 -0.2344
 4862W        W21710  14.144   5.364   3.257  0.0802 -0.1088 -0.0481
 4863W        W21711  16.286  10.319   2.992 -0.0325 -0.1188 -0.0203
 4864W        W21712   4.935   7.867  14.604  0.1013  0.1006  0.2867
 4865W        W21713   7.410   1.374   6.623  0.0042 -0.1224 -0.1259
 4866W        W21714   9.046  10.952   5.670  0.1325  0.1176  0.2011
 4867W        W21715  11.298  12.022  14.803  0.0401 -0.2039 -0.0896
 4868W        W21716   3.306   5.434  12.211  0.1057  0.0913 -0.0844
 4869W        W21717  13.469   4.224  15.283 -0.0538  0.1018  0.1205
 4870W        W21718   6.363  16.942  17.185  0.0740  0.1001 -0.0678
 4871W        W21719   6.950   8.293  16.756  0.0176 -0.0645  0.2725
 4872W        W21720   0.047  14.808  15.694  0.3472  0.1153 -0.3121
 4873W        W21721  15.074   5.813   2.068  0.3506 -0.0833  0.1704
 4874W        W21722   4.829  14.464  12.649  0.0750  0.0952  0.2435
 4875W        W21723   2.005  12.357  12.810 -0.2145 -0.2075 -0.2025
 4876W        W21724   2.242  15.222  17.590  0.0248 -0.0745 -0.0447
 4877W        W21725   8.191   7.415   4.683 -0.0937 -0.1767 -0.0558
 4878W        W21726   8.765   8.193   4.194  0.2307 -0.2334  0.0752
 4879W        W21727   1.997  12.914  15.924 -0.2749  0.0819  0.0064
 4880W        W21728   3.716  12.301  14.600  0.1970  0.0639  0.0962
 4881W        W21729   8.689   5.109  12.097 -0.2996  0.1228  0.1257
 4882W        W21730   9.938   5.205  17.599 -0.1412  0.1755 -0.1438
 4883W        W21731   6.623   4.953   3.656 -0.2218 -0.0620 -0.1909
 4884W        W21732  13.122  10.684  13.869  0.3386 -0.2206 -0.0360
 4885W        W21733   1.064   8.746  12.653  0.1289  0.1296 -0.1322
 4886W        W21734   2.748   1.980   0.546  0.2227  0.3239  0.3034
 4887W        W21735   7.949   3.393  12.554  0.1337 -0.2321 -0.0864
 4888W        W21736   9.719  11.265  14.341  0.0774 -0.1248 -0.0171
 4889W        W21737   2.316  13.736   3.136 -0.2466 -0.0442 -0.4456
 4890W        W21738  11.709   9.172  13.729 -0.0101 -0.1837 -0.1435
 4891W        W21739   0.136   1.030  13.299  0.2327 -0.0077 -0.1467
 4892W        W21740  15.042   0.385  17.372  0.0385 -0.0325 -0.0403
 4893W        W21741  11.082   7.795   5.342 -0.1325 -0.1660 -0.0067
 4894W        W21742  15.776  15.837  15.680 -0.2628  0.4424 -0.1896
 4895W        W21743  11.526   2.238   0.491 -0.3244  0.1310 -0.1938
 4896W        W21744   1.689  12.135  15.458  0.0262  0.1133 -0.1148
 4897W        W21745  14.802  12.940  11.975  0.0639  0.0377  0.1585
 4898W        W21746  13.387   5.692   1.984 -0.1278 -0.1868  0.2954
 4899W        W21747   3.625  13.421   3.579 -0.2821  0.3414  0.0875
 4900W        W21748   3.428   7.182   2.335  0.0728  0.0142  0.1789
 4901W        W21749   3.340   9.734   2.395  0.2778 -0.3723 -0.0909
 4902W        W21750  13.150  16.138   0.864 -0.0694  0.2524  0.0713
 4903W        W21751   5.944  16.076  15.137 -0.3549 -0.1483 -0.0881
 4904W        W21752  10.836  10.199  15.632 -0.1264 -0.0844  0.0322
 4905W        W21753   4.462   5.923   5.582  0.0340 -0.0092 -0.0114
 4906W        W21754  16.977  13.158  15.442 -0.1496  0.4619  0.0099
 4907W        W21755   1.176  10.736  14.689  0.0766 -0.1147 -0.0099
 4908W        W21756   2.416   4.862  16.585 -0.0934  0.0984  0.2245
 4909W        W21757  10.032   5.967   2.152  0.4126  0.1793 -0.2567
 4910W        W21758  14.736  13.776  13.764 -0.1880  0.1266 -0.2451
 4911W        W21759  13.481  16.680  16.065 -0.2077 -0.1048 -0.1112
 4912W        W21760  12.071  14.520   1.515  0.1572  0.0616 -0.1605
 4913W        W21761   1.824  11.077   3.790  0.0317 -0.0524  0.1532
 4914W        W21762   8.358  16.627   0.900 -0.0839 -0.2700  0.0686
 4915W        W21763  10.384  15.176  12.612  0.1117 -0.1239 -0.1828
 4916W        W21764   0.764   7.963   3.882 -0.1040 -0.0772  0.2355
 4917W        W21765   3.229  14.141   4.639 -0.2603  0.0888 -0.0820
 4918W        W21766   4.324   6.675  15.286 -0.0225  0.0071 -0.1443
 4919W        W21767   8.656  14.663  12.111  0.2440 -0.1477  0.1915
 4920W        W21768   4.511  11.180   2.816 -0.2111  0.0425  0.1524
 4921W        W21769   9.003   5.900  16.786  0.0025  0.1722  0.2424
 4922W        W21770   4.353   5.433  13.572  0.1959 -0.2219 -0.1556
 4923W        W21771   3.479  15.290   5.483  0.1040  0.2141 -0.1588
 4924W        W21772  12.223  12.431   6.291 -0.0051 -0.0395 -0.2508
 4925W        W21773   0.512   7.665  16.454 -0.2326 -0.0234  0.0042
 4926W        W21774   3.045  15.067  17.517 -0.4699  0.1515 -0.0843
 4927W        W21775  14.166  13.490   4.108 -0.4482 -0.0910 -0.0830
 4928W        W21776  12.960  10.698   5.529  0.0423 -0.0348  0.1586
 4929W        W21777   5.253  16.736  15.565  0.0958  0.1761  0.0992
 4930W        W21778   5.590   0.719  12.372 -0.1740 -0.1969  0.0666
 4931W        W21779   3.766   7.466   3.116  0.3068 -0.0745 -0.0860
 4932W        W21780  10.973   0.538  17.235 -0.2931 -0.0046  0.0751
 4933W        W21781   7.896   2.894  15.897  0.3793  0.2087 -0.1591
 4934W        W21782  13.887   4.690   2.324 -0.0046 -0.0384  0.1701
 4935W        W21783   2.407   5.406   0.709  0.3313 -0.3719  0.0278
 4936W        W21784   9.587   9.675   2.877  0.1208 -0.1174  0.0720
 4937W        W21785   2.989   8.380   5.946  0.1598  0.1349 -0.0585
 4938W        W21786   9.325  15.978  17.174  0.2205  0.1235  0.2802
 4939W        W21787   6.116  13.225  12.508  0.0033  0.0506  0.1586
 4940W        W21788   7.377   5.395   3.502 -0.0017  0.1366  0.0547
 4941W        W21789   6.257   1.246  15.327  0.3867  0.1753 -0.1137
 4942W        W21790  13.419  10.071  13.120 -0.2081  0.0786  0.1250
 4943W        W21791   4.163  13.262   1.028 -0.0484  0.0245 -0.0621
 4944W        W21792   3.898   3.522   2.739 -0.2749  0.0851  0.0367
 4945W        W21793   2.454   2.947   1.960 -0.1097  0.0353  0.2006
 4946W        W21794  14.125   7.688  17.660 -0.0257 -0.1183  0.2865
 4947W        W21795   1.371   7.762   4.497 -0.2381 -0.1377 -0.0648
 4948W        W21796   6.165  11.334   2.586  0.0831 -0.0695 -0.0761
 4949W        W21797   8.071   3.824   3.463 -0.0819  0.0538  0.0029
 4950W        W21798   0.724   5.681  17.231  0.0909  0.3932 -0.1794
 4951W        W21799  14.856   0.797  17.785 -0.3069 -0.0318 -0.0678
 4952W        W21800   2.264  11.066   0.293 -0.1439 -0.2862  0.0272
 4953W        W21801  10.716   2.906  14.019  0.0459 -0.0940 -0.1869
 4954W        W21802   1.432   9.577   2.736 -0.1099  0.2351  0.0469
 4955W        W21803   5.814   5.789   1.400  0.1518 -0.0147  0.0649
 4956W        W21804   1.862  15.564  17.829 -0.0495 -0.1826 -0.1320
 4957W        W21805  15.435  12.884  13.471  0.1444 -0.2180  0.3346
 4958W        W21806   9.244   8.333  14.767  0.1588  0.0222  0.2354
 4959W        W21807   5.489  10.668  16.778 -0.2229 -0.1721  0.1172
 4960W        W21808  16.238   0.888  13.334  0.1546  0.0647 -0.0601
 4961W        W21809  10.598   0.280   2.750 -0.2965 -0.4230  0.0235
 4962W        W21810  10.513  13.321  15.776 -0.0735  0.1301  0.4877
 4963W        W21811   1.411  15.238   2.444 -0.0891 -0.2195  0.0154
 4964W        W21812  12.947  14.672  16.863 -0.1925 -0.1056  0.0344
 4965W        W21813   4.598  14.837   3.609 -0.2016  0.1917  0.3124
 4966W        W21814  13.218  11.919   3.730  0.0975 -0.0749  0.2002
 4967W        W21815   6.888   5.421  14.218  0.1385 -0.1125  0.2541
 4968W        W21816   2.015  16.537   1.375  0.2628 -0.1430  0.0725
 4969W        W21817   5.270  16.265   6.726 -0.0416  0.1815 -0.0573
 4970W        W21818   6.822  15.664   2.103 -0.1464  0.0112 -0.0064
 4971W        W21819   8.162  10.539   5.697  0.2805 -0.1348 -0.2811
 4972W        W21820   7.046  13.614   4.959  0.0709  0.0869  0.0394
 4973W        W21821   6.947   6.693   4.928  0.0384 -0.0876 -0.0557
 4974W        W21822   0.541   4.252  14.679  0.0897 -0.1431  0.0132
 4975W        W21823   3.749   2.131  14.125 -0.2123  0.1137  0.0544
 4976W        W21824  14.057   7.215   2.143 -0.2893 -0.1485  0.1202
 4977W        W21825   0.172  10.751   2.459  0.2126  0.2397 -0.0010
 4978W        W21826   0.753   0.928   3.430  0.2249 -0.1833 -0.0006
 4979W        W21827   6.330   9.776   4.844 -0.0380  0.0915 -0.5083
 4980W        W21828   2.915   4.323  17.048  0.0773  0.0825 -0.0023
 4981W        W21829   9.832  12.292  17.188 -0.0713 -0.1233  0.0430
 4982W        W21830  14.038   0.304   3.760 -0.3081  0.2166  0.0572
 4983W        W21831  15.521   3.790  15.218 -0.1734  0.0225 -0.0775
 4984W        W21832   9.245   1.304   3.422 -0.2635  0.1633  0.2494
 4985W        W21833   4.485   1.339   1.850  0.1504 -0.3108 -0.1414
 4986W        W21834   8.912  13.223  13.818 -0.0306  0.0993 -0.4220
 4987W        W21835   2.155  10.329  13.025 -0.3458 -0.1036  0.1649
 4988W        W21836  14.078  15.995  14.543  0.1195 -0.2965 -0.0288
 4989W        W21837  13.385   7.225  14.542 -0.1212 -0.0183  0.2372
 4990W        W21838   5.916   3.212   5.550  0.0951  0.2258 -0.1171
 4991W        W21839  14.423   1.102   0.040  0.0758  0.2809 -0.3350
 4992W        W21840   4.274  13.544  12.113  0.1417  0.2040  0.0222
 4993W        W21841   0.135   8.268  15.387 -0.2923  0.1045  0.1988
 4994W        W21842   3.022  11.212  17.668  0.0870  0.0042  0.2340
 4995W        W21843   4.902  13.374  12.956  0.3138  0.0676  0.2779
 4996W        W21844   7.973  16.299   2.459  0.0028 -0.2437 -0.1078
 4997W        W21845   7.002  14.839  14.784  0.0510 -0.2570  0.0948
 4998W        W21846  14.546   0.015  14.483 -0.0208  0.0639 -0.0720
 4999W        W21847   4.214  12.039   0.729  0.1329 -0.3173 -0.2043
 5000W        W21848   2.238   3.929   3.136 -0.2445  0.0782  0.1821
 5001W        W21849   1.600   6.036  12.969 -0.0454 -0.5061  0.0355
 5002W        W21850   8.505   9.341   5.069  0.0780  0.0133  0.0536
 5003W        W21851   2.999  12.738   3.477  0.0855  0.1293 -0.1544
 5004W        W21852   1.376  14.881   3.247  0.1177  0.0420 -0.1491
 5005W        W21853   1.496  16.611   2.573  0.0011  0.2057  0.1697
 5006W        W21854  10.485   1.948  12.249 -0.3927  0.1013  0.0573
 5007W        W21855   6.978   2.510   4.743  0.0321 -0.2706  0.1360
 5008W        W21856   9.875  12.144  15.826 -0.0615 -0.1286  0.0567
 5009W        W21857  14.372  14.434   3.454  0.0043  0.1856  0.1665
 5010W        W21858  14.991   5.039   0.841  0.5563 -0.1181 -0.0492
 5011W        W21859   9.679  15.674  14.659  0.1064 -0.0109 -0.2979
 5012W        W21860  15.837   6.772   3.202  0.0342 -0.0527 -0.1314
 5013W        W21861   0.625  16.810  14.149 -0.4115 -0.2059  0.0624
 5014W        W21862   9.750   3.161  15.647 -0.1118 -0.0460 -0.3244
 5015W        W21863   4.507   9.767  15.778  0.1126  0.0576  0.0509
 5016W        W21864   8.582   1.426   3.874  0.3733 -0.0596 -0.0556
 5017W        W21865   1.200   6.234   1.233 -0.1813 -0.0738  0.1438
 5018W        W21866  15.841   0.011  13.775 -0.1484 -0.0136  0.1141
 5019W        W21867  12.193  12.933  16.293 -0.0170 -0.3071 -0.1924
 5020W        W21868   1.628   6.639  17.311 -0.0520 -0.1278 -0.0990
 5021W        W21869  10.748  15.159   2.940 -0.0543 -0.1154 -0.2514
 5022W        W21870   6.268  15.225  14.225 -0.1256  0.0746  0.0301
 5023W        W21871   8.291   6.659  14.934 -0.1350 -0.0648  0.0943
 5024W        W21872  15.960   2.657  15.522  0.3942  0.1508  0.0470
 5025W        W21873   1.933   4.969  15.806  0.1152  0.2257  0.0449
 5026W        W21874  13.309   2.818   0.993 -0.0259  0.2202 -0.5144
 5027W        W21875   7.528   5.844   1.335  0.1681  0.3639 -0.1376
 5028W        W21876   4.230   0.880  16.129 -0.0603  0.2800 -0.2906
 5029W        W21877  15.412  16.096  13.459  0.1442  0.1192  0.0959
 5030W        W21878  13.087   9.803   2.956  0.1118  0.2452  0.2891
 5031W        W21879   9.780   1.358   0.898 -0.0768  0.0527  0.0626
 5032W        W21880  12.974  16.230  15.638  0.3286  0.0078 -0.0637
 5033W        W21881   4.722   1.029  13.388  0.2581  0.4524 -0.0614
 5034W        W21882   1.109   1.797  14.892  0.2017  0.0130 -0.1255
 5035W        W21883   0.243   5.712  16.522  0.3286  0.2334 -0.0032
 5036W        W21884   0.930   8.586  13.112 -0.1109 -0.1303 -0.1427
 5037W        W21885   1.923  11.131   4.537 -0.0562  0.3577  0.2150
 5038W        W21886  14.258   7.409  11.638  0.2647 -0.1610  0.1232
 5039W        W21887  11.814   9.156  13.226 -0.1761  0.0748 -0.1290
 5040W        W21888  15.462   6.435  16.258  0.0937 -0.3278 -0.0100
 5041W        W21889   8.763  16.016  15.137 -0.1360 -0.2189 -0.0191
 5042W        W21890  12.069   4.780  14.222  0.0346  0.1779 -0.1107
 5043W        W21891  16.864  14.439  17.041 -0.0555  0.1640  0.1543
 5044W        W21892   2.890  13.904  14.833  0.0725  0.0278 -0.1026
 5045W        W21893  12.383   4.663   1.410  0.2535 -0.5212 -0.1130
 5046W        W21894  13.846   1.682  15.755  0.1559 -0.1744 -0.1259
 5047W        W21895   9.639  16.852   4.353  0.1459  0.2070  0.4344
 5048W        W21896   8.413  10.549  12.446  0.1477  0.0607  0.1565
 5049W        W21897   7.513   7.232  15.957 -0.0275 -0.3980 -0.3614
 5050W        W21898   8.357   3.431   1.557  0.0957 -0.1899  0.2523
 5051W        W21899  14.728   6.638   1.953  0.3016 -0.3183 -0.0900
 5052W        W21900   9.777   9.027  15.619 -0.1788  0.0899 -0.0050
 5053W        W21901   5.083   8.860   2.251  0.2532  0.1727  0.0897
 5054W        W21902   9.789  10.560  15.664 -0.1499 -0.1957  0.1986
 5055W        W21903  11.675   4.515   4.145  0.0003  0.1275  0.0122
 5056W        W21904   9.518  12.045   4.634  0.2390 -0.0781  0.0491
 5057W        W21905   4.985   0.732  13.692 -0.1375  0.2609 -0.3434
 5058W        W21906  10.309  16.798   1.705 -0.3606 -0.1538 -0.0211
 5059W        W21907   8.569   7.372   5.059 -0.1046 -0.0245  0.1511
 5060W        W21908   1.584  16.188   3.500  0.0223 -0.0787 -0.0804
 5061W        W21909   9.144   0.338   4.922  0.2975  0.2420  0.2287
 5062W        W21910  12.770   6.505   4.515  0.2443 -0.0394  0.0978
 5063W        W21911   1.222  14.853   2.054  0.4523  0.4201 -0.2611
 5064W        W21912  15.916   1.641   1.387 -0.0369 -0.1555  0.0073
 5065W        W21913   2.416  13.483   4.150 -0.2539 -0.2898  0.0216
 5066W        W21914   1.571   5.577   5.895  0.2374 -0.2621 -0.4036
 5067W        W21915   1.168   3.204   0.180  0.0586 -0.1439 -0.1395
 5068W        W21916   9.279  11.168   5.263 -0.2009 -0.0265 -0.3477
 5069W        W21917   7.489  14.123   2.500  0.1518 -0.0592  0.2872
 5070W        W21918  12.860  12.742   3.584 -0.1368 -0.2105  0.2671
 5071W        W21919   4.460  10.688   0.468  0.2019  0.0238  0.0031
 5072W        W21920   8.301  14.785   4.356 -0.1915 -0.0815 -0.0816
 5073W        W21921   3.021  13.016   2.537  0.1411  0.5121  0.0112
 5074W        W21922  11.815   1.151  15.709  0.2339 -0.1392 -0.3177
 5075W        W21923   9.886  13.906   4.322 -0.0297 -0.3213 -0.1222
 5076W        W21924  10.988  15.841   2.318 -0.1193  0.1470  0.2109
 5077W        W21925   6.238  15.938  17.602  0.4563 -0.1937  0.1729
 5078W        W21926  13.065   1.468   1.051 -0.0212  0.2247 -0.1018
 5079W        W21927   5.765   9.472  14.444  0.2784 -0.1407 -0.0103
 5080W        W21928  11.061  14.715  12.125  0.0837  0.1614 -0.0693
 5081W        W21929   0.227   4.773   2.048  0.0228  0.1585  0.0380
 5082W        W21930  15.513   7.189  15.703 -0.1145  0.3006  0.3224
 5083W        W21931   1.787   5.210  11.947  0.0396  0.0451 -0.1085
 5084W        W21932  14.552   8.636  16.956 -0.3030 -0.1051  0.0727
 5085W        W21933   6.024  11.012   5.364 -0.0734 -0.0979 -0.0537
 5086W        W21934   2.392  12.244  16.838 -0.2479  0.0442  0.4159
 5087W        W21935  11.374  16.889  12.881 -0.0432  0.3709 -0.2738
 5088W        W21936  15.926   2.271  11.890  0.0394  0.1179  0.1084
 5089W        W21937   9.123  14.814  16.810  0.1996 -0.1761 -0.2050
 5090W        W21938   7.954  14.143  13.231 -0.2726 -0.1120 -0.0060
 5091W        W21939   2.681   2.395  17.697 -0.0454  0.4395 -0.0970
 5092W        W21940  14.386   0.461  15.009 -0.0779 -0.1301  0.1747
 5093W        W21941   4.430   8.408  17.581 -0.1808 -0.2823  0.2115
 5094W        W21942   5.022  12.543   0.364  0.0707 -0.2182 -0.0425
 5095W        W21943  13.080  14.893   2.279  0.0961 -0.0085 -0.1516
 5096W        W21944   3.001   8.024   1.703  0.0603  0.2954  0.2313
 5097W        W21945   3.192   5.282   2.221 -0.3363  0.1378  0.0571
 5098W        W21946   4.120  12.438   5.135  0.0734  0.0758 -0.1563
 5099W        W21947   1.757   2.018   0.644 -0.1938  0.2545  0.2372
 5100W        W21948   3.596   1.114  17.154 -0.0188  0.0886 -0.1512
 5101W        W21949  11.460   2.439   0.978 -0.1685  0.0132  0.1180
 5102W        W21950   2.028   5.512   0.442 -0.1847 -0.0612 -0.0159
 5103W        W21951   5.232   1.748  15.488  0.2952  0.0808 -0.0428
 5104W        W21952   6.760   9.382  13.940 -0.0266  0.2351  0.4069
 5105W        W21953  13.000   3.016  12.290 -0.0377  0.2469  0.0400
 5106W        W21954  11.910   1.753   3.289  0.1208 -0.2430 -0.1711
 5107W        W21955  10.199  16.022  13.306 -0.0821 -0.1128 -0.1060
 5108W        W21956  11.148   7.708   2.818 -0.0324  0.1169  0.0113
 5109W        W21957  11.373   6.299   3.315 -0.1134  0.0158 -0.0185
 5110W        W21958   1.410  16.440  14.245  0.2096  0.1408  0.0022
 5111W        W21959   7.450   5.667   0.322 -0.0743  0.1724  0.1579
 5112W        W21960   9.743   7.753   3.317 -0.0452 -0.0102  0.0060
 5113W        W21961  14.933   5.405  12.289 -0.0606 -0.0863  0.1471
 5114W        W21962   0.447   6.847   3.213 -0.1737 -0.0924  0.0623
 5115W        W21963   2.598  16.997   3.497  0.0169 -0.0697 -0.1479
 5116W        W21964  10.360   6.212  14.792 -0.1131  0.1173  0.0683
 5117W        W21965   5.953   8.912   1.303 -0.2623 -0.0275 -0.1441
 5118W        W21966   8.324   7.994  16.515 -0.0089  0.1466  0.0834
 5119W        W21967   6.278  11.436   4.348 -0.3400 -0.0535 -0.1707
 5120W        W21968  12.309  11.382  13.494  0.1080 -0.0412 -0.1186
 5121W        W21969   5.511   5.210  17.441  0.2832  0.2301  0.1757
 5122W        W21970  16.361   0.490  14.932  0.0815 -0.2185 -0.2280
 5123W        W21971   5.930   0.616   0.694  0.0351 -0.1123  0.0860
 5124W        W21972  14.042   4.993  15.474  0.1417  0.2710 -0.3147
 5125W        W21973   9.162  12.809  14.581  0.0262  0.0542  0.1119
 5126W        W21974   4.209   0.189   4.127 -0.0228  0.0418  0.0153
 5127W        W21975   7.162   1.935   0.003  0.4220 -0.0094  0.0085
 5128W        W21976   2.111  15.255   4.340  0.1291 -0.1418  0.0069
 5129W        W21977   1.851  12.963   3.163 -0.0459 -0.2310  0.1176
 5130W        W21978  13.069   6.685  12.344 -0.1962  0.0835 -0.2690
 5131W        W21979   0.329   6.594   5.247 -0.0169  0.0221  0.3941
 5132W        W21980  10.016   0.615   0.310  0.0419  0.0666  0.1178
 5133W        W21981   6.558   1.601   3.140  0.2279 -0.1949 -0.2963
 5134W        W21982   5.175   0.354  17.798  0.1493 -0.0821 -0.1937
 5135W        W21983   7.985  13.200   3.177  0.1612  0.1433 -0.1534
 5136W        W21984   7.650   9.995  15.670 -0.1117  0.0305  0.0869
 5137W        W21985   2.626  11.921  14.652  0.1913 -0.0327  0.0463
 5138W        W21986  11.315  15.537  13.415 -0.0561  0.0864  0.0037
 5139W        W21987  11.597   1.048   4.292 -0.3865  0.3214  0.0162
 5140W        W21988   8.621   5.109   1.702 -0.1440  0.1193  0.1142
 5141W        W21989   5.549  14.527  17.513 -0.4281 -0.1610 -0.2583
 5142W        W21990   2.796   2.217   1.068  0.3641  0.2793 -0.1697
 5143W        W21991   6.582   2.010  15.160  0.2968 -0.2397 -0.0984
 5144W        W21992  13.875   6.029   1.985  0.1580 -0.1057 -0.0426
 5145W        W21993   4.438   6.561   4.270 -0.1788  0.1367  0.3228
 5146W        W21994   1.765  13.650   3.833 -0.0879  0.0615 -0.3095
 5147W        W21995   8.857   7.954  13.514 -0.2506  0.1635  0.0810
 5148W        W21996  11.162   5.930   0.712  0.1809 -0.0389  0.1327
 5149W        W21997  17.033  15.907  13.215  0.1423 -0.2121 -0.1022
 5150W        W21998  13.005   5.174  13.873 -0.0141  0.0273 -0.1298
 5151W        W21999   9.358   2.647  13.070 -0.0214  0.0559  0.2206
 5152W        W22000  10.589  14.272   5.044 -0.0006  0.0269 -0.2746
 5153W        W22001   7.364   6.112  17.403 -0.1052 -0.1001 -0.1065
 5154W        W22002  12.618  10.378  12.625 -0.0650 -0.0722 -0.0266
 5155W        W22003   9.542   4.238  16.987 -0.3561  0.2350  0.0620
 5156W        W22004   8.258   5.104  16.155  0.1307  0.2193  0.1030
 5157W        W22005  15.618   6.456   4.220 -0.1431 -0.5355  0.1839
 5158W        W22006   9.321  15.845  13.320 -0.1333 -0.2258 -0.0736
 5159W        W22007   2.693  15.470  12.566 -0.0059  0.0881  0.1493
 5160W        W22008   9.880   6.685  12.603 -0.2952  0.1021  0.3115
 5161W        W22009  15.420  12.123  15.671  0.1172  0.1492  0.0272
 5162W        W22010  11.348  16.734  15.481  0.0129  0.0612  0.1232
 5163W        W22011   7.811   4.543   3.485  0.0910  0.2006  0.1111
 5164W        W22012   0.357   2.890   0.138  0.0597 -0.1639  0.1048
 5165W        W22013   3.787  12.665  16.135  0.0778  0.2516 -0.0062
 5166W        W22014  14.427   9.738  12.663  0.1116 -0.0609  0.0948
 5167W        W22015   3.220  12.080   1.120  0.0348 -0.0675  0.1014
 5168W        W22016  15.495   3.694   5.555 -0.0641 -0.1247  0.2000
 5169W        W22017   3.168  11.550   5.123 -0.0389  0.0071 -0.2104
 5170W        W22018   7.909  14.707   4.095  0.2485  0.0413  0.2407
 5171W        W22019   6.139  10.249  13.085 -0.0971 -0.0449  0.1796
 5172W        W22020  11.829   4.907   3.797  0.0301 -0.0451  0.0237
 5173W        W22021  15.385   6.971   4.474 -0.0617 -0.1072  0.0606
 5174W        W22022  13.535  14.059  13.162 -0.1053  0.0435  0.0494
 5175W        W22023   5.815  10.695   5.735 -0.0421  0.1777 -0.1671
 5176W        W22024   1.388   7.645  13.287 -0.2114  0.0672  0.2092
 5177W        W22025  16.191   1.147  17.325 -0.0821  0.0319 -0.4443
 5178W        W22026   8.674  16.042  15.818 -0.3865 -0.0514 -0.3707
 5179W        W22027   9.877  11.888   5.011 -0.0619 -0.0934 -0.1137
 5180W        W22028   4.262  14.913   4.517  0.0922 -0.1201  0.2331
 5181W        W22029   2.410  15.300   6.049 -0.1768  0.3155 -0.1011
 5182W        W22030   1.328   6.598   3.785  0.0043 -0.1715  0.1580
 5183W        W22031   2.052  10.035  16.775 -0.1704 -0.1112  0.1729
 5184W        W22032  17.018   0.908  15.784  0.1031 -0.0632  0.0429
 5185W        W22033  16.511   9.042  15.511  0.0719  0.2042  0.0395
 5186W        W22034   8.671  12.772   3.257 -0.1749  0.1951  0.1332
 5187W        W22035   1.822  11.281   5.539  0.1431 -0.0220  0.1397
 5188W        W22036  12.948   1.766   2.912 -0.1822  0.2529 -0.2317
 5189W        W22037   1.593   1.723  14.888 -0.0016  0.0349 -0.0716
 5190W        W22038  12.312  12.594   1.348  0.1092 -0.0130 -0.3032
 5191W        W22039   6.597   3.637   3.049  0.2286 -0.2302  0.1081
 5192W        W22040   5.497  12.479  15.167 -0.0482  0.2909 -0.3662
 5193W        W22041  14.695  15.840   2.397  0.2430 -0.0935 -0.1755
 5194W        W22042  15.683  13.570   1.298  0.0018  0.1004 -0.0221
 5195W        W22043  15.151  16.345   0.799 -0.1180 -0.2938 -0.3403
 5196W        W22044   0.390  14.025   2.724  0.2848  0.1064  0.0234
 5197W        W22045   8.897  10.949   3.271 -0.3238  0.0325 -0.1954
 5198W        W22046   6.201  12.023   1.309  0.1386  0.0743  0.1029
 5199W        W22047  16.212   4.944  16.812 -0.1025 -0.0201  0.3104
 5200W        W22048  16.587  10.447  14.386 -0.0806 -0.2023 -0.2310
 5201W        W22049  15.183   5.350   5.993  0.0568  0.1790 -0.2189
 5202W        W22050  12.937   8.750   1.694  0.0955  0.4014 -0.1465
 5203W        W22051   1.802  15.361  14.160  0.1602 -0.3412  0.2114
 5204W        W22052   1.483   3.137   4.642  0.2349  0.1847 -0.0666
 5205W        W22053   7.206   0.425  12.777  0.0107 -0.3934  0.1077
 5206W        W22054  12.480   7.981   2.969  0.0096 -0.4242 -0.0237
 5207W        W22055   3.809   4.917   2.743 -0.4020 -0.0816  0.0975
 5208W        W22056  10.561   0.771  13.306  0.2869 -0.1183  0.1835
 5209W        W22057  15.493   5.967   1.840  0.4198 -0.0082 -0.0220
 5210W        W22058   9.129   8.485   4.051  0.2173 -0.0797 -0.1056
 5211W        W22059   3.652   4.526  15.036  0.0396 -0.1100 -0.1559
 5212W        W22060  11.728   2.220  17.173 -0.1033 -0.0663 -0.2222
 5213W        W22061   3.509  16.841   3.239  0.2648  0.3371 -0.0585
 5214W        W22062   3.199  17.014   5.385 -0.0797  0.0715 -0.3916
 5215W        W22063   5.572   8.648  16.944  0.1237 -0.1799 -0.5073
 5216W        W22064   8.446   8.883   3.431  0.0723  0.2894  0.1067
 5217W        W22065  16.315   5.562  12.628  0.1197 -0.1581 -0.0977
 5218W        W22066   1.766   0.109   2.933 -0.2683  0.0313  0.0961
 5219W        W22067   5.122  11.248   4.831 -0.0635 -0.2163 -0.0314
 5220W        W22068   6.976  10.829   2.060 -0.0460  0.0978  0.0954
 5221W        W22069   6.123   5.479  16.697 -0.2044 -0.1752  0.0948
 5222W        W22070  13.426   7.425   3.139 -0.0821 -0.0045  0.2190
 5223W        W22071   3.316   8.151  13.382  0.1947 -0.0536  0.1202
 5224W        W22072  14.523   1.075  13.653 -0.0296  0.0702 -0.1555
 5225W        W22073  14.587   7.485   4.241 -0.1881  0.2245  0.1088
 5226W        W22074   6.491   5.212  14.528  0.2387 -0.0751 -0.1305
 5227W        W22075  15.780   5.331   5.017  0.4674 -0.0416 -0.0606
 5228W        W22076  15.845   2.482  14.041 -0.0167  0.0695  0.1886
 5229W        W22077  16.510   6.225   2.065  0.0813  0.1817  0.2260
 5230W        W22078  13.465  14.883  16.406  0.0390  0.3606 -0.0607
 5231W        W22079  10.338   5.023   5.611  0.3680  0.1762  0.1142
 5232W        W22080   8.881   3.498  17.483  0.3034  0.0691  0.0816
 5233W        W22081   7.902  12.710  15.968  0.0795 -0.3636 -0.3533
 5234W        W22082   5.990  14.712   1.335 -0.2329 -0.1698  0.1701
 5235W        W22083  15.227  11.761   1.076 -0.1809 -0.0546 -0.1610
 5236W        W22084   6.531   4.349  13.461 -0.0346  0.2558 -0.1188
 5237W        W22085   7.963  11.807   0.363  0.1537 -0.0399 -0.1277
 5238W        W22086   0.579   0.140   4.674  0.1835  0.0834  0.2130
 5239W        W22087   8.092  16.589   4.896  0.0134 -0.1303  0.1296
 5240W        W22088   6.356  12.072  16.094  0.0451 -0.0696  0.0212
 5241W        W22089   4.178   1.054   3.202 -0.0345 -0.1146  0.0885
 5242W        W22090  14.535   3.809  11.646 -0.1276  0.0410  0.0512
 5243W        W22091   5.745  13.551  12.462 -0.1512  0.2715  0.1375
 5244W        W22092  13.004   2.073   0.332  0.0670  0.2403  0.1712
 5245W        W22093   6.821   7.422  13.905  0.0456  0.1946  0.2159
 5246W        W22094  12.380   5.706  12.297  0.0198  0.3291 -0.0910
 5247W        W22095   9.667   8.506  13.852 -0.1584 -0.0812 -0.2173
 5248W        W22096   4.131  10.269   1.253 -0.0207  0.1637  0.2299
 5249W        W22097  16.668   0.342  17.665 -0.1515  0.0452 -0.0237
 5250W        W22098   0.914   1.975   4.225  0.2181  0.2294 -0.1246
 5251W        W22099   1.944   3.734  14.036 -0.0561 -0.3233 -0.3519
 5252W        W22100  15.881  17.052   3.989  0.0875  0.0818  0.2711
 5253W        W22101   2.435   6.340   4.480  0.1958 -0.1723  0.1082
 5254W        W22102   8.332   7.099  16.357 -0.1501 -0.1337  0.0652
 5255W        W22103  12.563   1.328  11.977 -0.0049  0.0022  0.2403
 5256W        W22104  10.555   3.329   2.767  0.0313  0.0608 -0.0758
 5257W        W22105   3.317  10.636   2.310  0.0544 -0.0688  0.0040
 5258W        W22106  12.977  10.638   1.650  0.0330 -0.4498 -0.1633
 5259W        W22107  11.622   6.105  14.386  0.2070  0.1878  0.2540
 5260W        W22108   1.212  11.615  17.025 -0.0857  0.0617  0.0462
 5261W        W22109  15.191   2.119   4.402 -0.1167 -0.1106  0.1323
 5262W        W22110  16.001   3.497  14.963  0.1469  0.0076 -0.2740
 5263W        W22111  15.639   0.138  14.268 -0.0418 -0.0406  0.1594
 5264W        W22112   4.616  16.665  12.270 -0.0418 -0.1435 -0.1539
 5265W        W22113   6.274   0.270  14.657 -0.0485 -0.0652 -0.0384
 5266W        W22114   3.571   8.528   2.372 -0.0412 -0.3916  0.2049
 5267W        W22115   1.775   2.899  14.329  0.0937  0.0670  0.3377
 5268W        W22116   6.515   5.359  13.809 -0.2508 -0.1672 -0.1593
 5269W        W22117   0.758   9.811   5.653  0.2194 -0.1727  0.3838
 5270W        W22118   3.316   9.653   0.101  0.1707  0.1365 -0.0169
 5271W        W22119  15.403   9.872   4.948  0.3700 -0.2745  0.2862
 5272W        W22120  13.803   7.339   4.823  0.0169  0.0224 -0.0058
 5273W        W22121   3.483   1.889  17.617 -0.0382  0.1301 -0.0628
 5274W        W22122   8.399   5.424  13.588 -0.0351  0.2845 -0.3477
 5275W        W22123   3.421   1.542  15.232  0.0306  0.0136  0.1994
 5276W        W22124   0.264   6.632   4.046 -0.1886  0.1777 -0.0900
 5277W        W22125  14.734   5.139   2.313 -0.1641  0.1202 -0.0332
 5278W        W22126   6.209   8.154  13.231  0.3614 -0.0064 -0.0586
 5279W        W22127   6.279   8.634   1.003  0.0602 -0.1375 -0.1553
 5280W        W22128   4.516   7.730   2.743  0.2577  0.0215  0.2278
 5281W        W22129   5.148  13.587   5.491 -0.0181 -0.2425  0.4115
 5282W        W22130  11.138   8.467  13.982  0.0144  0.1824  0.0733
 5283W        W22131  10.084   7.393  14.530 -0.0918 -0.0769  0.1180
 5284W        W22132   1.494  14.230  17.079  0.1627  0.1237 -0.2046
 5285W        W22133  15.751   7.490  14.411  0.0451  0.1670  0.4907
 5286W        W22134   5.707  16.924  15.396  0.1239 -0.0947 -0.1227
 5287W        W22135   3.890  16.081  11.485 -0.0862 -0.0283  0.1542
 5288W        W22136   7.604   7.000   2.358 -0.0076  0.3136 -0.1332
 5289W        W22137   7.562  15.166   3.187 -0.2333 -0.2947 -0.2662
 5290W        W22138  10.271  11.832  16.660 -0.0873 -0.0114 -0.0881
 5291W        W22139  13.103  13.025   3.939  0.0537  0.3091 -0.0145
 5292W        W22140   5.353  16.733   2.488 -0.0982 -0.1133  0.0092
 5293W        W22141   1.348  10.112   4.610  0.3093  0.2472 -0.2214
 5294W        W22142   9.378  11.395  14.747 -0.0251  0.0388 -0.0016
 5295W        W22143   7.184  10.404   5.790  0.0066 -0.0179 -0.2074
 5296W        W22144   9.985   5.600  17.327  0.1664 -0.2625  0.2151
 5297W        W22145  14.339   1.894  12.164 -0.0659  0.0732  0.0534
 5298W        W22146  10.013   2.390   4.254 -0.3942 -0.1865 -0.1115
 5299W        W22147   4.300   2.218  16.508  0.0724  0.0654 -0.1948
 5300W        W22148   3.413   0.875  16.706  0.1041  0.0867  0.1873
 5301W        W22149  14.486   7.050   1.552 -0.2246  0.0668  0.2228
 5302W        W22150  15.116   6.133  16.107  0.2012  0.0437  0.0213
 5303W        W22151   9.086   1.921  12.436 -0.0427  0.2172  0.1123
 5304W        W22152   5.018   8.513   3.291  0.1658  0.2802  0.0518
 5305W        W22153  16.851   5.334   3.595  0.2293  0.1116  0.0894
 5306W        W22154  15.526   6.253   0.524 -0.2730 -0.1132 -0.1057
 5307W        W22155   2.171   4.549  13.508  0.1309  0.1078  0.1376
 5308W        W22156   4.374   4.111   2.929 -0.2875 -0.2898 -0.1673
 5309W        W22157   8.830   8.359   1.209  0.2002 -0.0481  0.2474
 5310W        W22158   0.441  11.709  17.657  0.0157 -0.1162 -0.0632
 5311W        W22159  12.338   7.414   5.183  0.0145  0.1591  0.0637
 5312W        W22160  11.625   1.656   5.482  0.1610 -0.0537  0.1352
 5313W        W22161  11.285  14.647  15.964  0.0929 -0.3748  0.1119
 5314W        W22162  15.563   0.659  14.429  0.0606 -0.0030  0.1863
 5315W        W22163  11.883   2.808  14.953 -0.0635  0.1083  0.0901
 5316W        W22164  11.632   3.482  14.545  0.0517  0.3105 -0.2461
 5317W        W22165  13.329   1.639  13.116 -0.0534 -0.0794 -0.3540
 5318W        W22166   6.958  15.242  15.666 -0.3236  0.1913  0.0614
 5319W        W22167   9.158  11.406   3.268  0.0347 -0.1527  0.2570
 5320W        W22168  16.678   2.849  16.780  0.1468  0.2090 -0.1783
 5321W        W22169   6.392   1.225  17.647 -0.1063 -0.1784  0.0360
 5322W        W22170   7.453   2.687   3.520  0.1478  0.0094 -0.0085
 5323W        W22171   7.265   8.315  14.456 -0.3632 -0.1298 -0.1493
 5324W        W22172   9.506  10.928  15.754  0.0366 -0.0297 -0.1569
 5325W        W22173   1.107  14.753  13.234  0.1825 -0.1688  0.0829
 5326W        W22174   5.156   3.938   4.703 -0.1254  0.0587 -0.2091
 5327W        W22175   5.014   4.658  15.392  0.0665 -0.1471  0.0076
 5328W        W22176   8.815   7.876   1.234  0.1336  0.1691 -0.3246
 5329W        W22177   2.324  14.762   5.298 -0.0744  0.1914 -0.0869
 5330W        W22178   2.529   1.091  12.646 -0.1466  0.1795 -0.1923
 5331W        W22179   8.281   1.076  12.947  0.0973  0.0854 -0.2191
 5332W        W22180  17.016   7.423  12.829  0.0986  0.1071  0.0176
 5333W        W22181  13.167   2.898  13.748 -0.2602 -0.0731 -0.0427
 5334W        W22182   6.048   7.073   2.960  0.2040  0.0833  0.0313
 5335W        W22183   1.406  16.929  14.384  0.0256 -0.1029 -0.0830
 5336W        W22184  13.069   6.413  17.460  0.0599  0.4286  0.0207
 5337W        W22185   8.064  14.042   3.285  0.3095 -0.2074  0.0154
 5338W        W22186  13.981   4.135  12.352  0.0918 -0.0430  0.1065
 5339W        W22187  16.728   2.015   5.192 -0.2243 -0.1251 -0.0142
 5340W        W22188   8.965  14.578   3.213  0.0384  0.2423  0.0957
 5341W        W22189  12.562  10.287   0.805  0.1555  0.2481  0.0775
 5342W        W22190  16.440  14.269  13.706 -0.2570 -0.1989 -0.1163
 5343W        W22191   6.001  11.645  16.238 -0.0650 -0.1490 -0.2545
 5344W        W22192   6.711   4.223  16.963  0.0828  0.2424 -0.0474
 5345W        W22193   0.450   3.752  17.428 -0.0352 -0.1100  0.0831
 5346W        W22194   9.542  11.908  14.468  0.0615 -0.0942 -0.0089
 5347W        W22195   4.677   0.688  14.660 -0.1290  0.1615 -0.3153
 5348W        W22196   6.317   4.572   0.926  0.0710 -0.4053  0.0041
 5349W        W22197  10.324  13.225   4.409  0.0205 -0.1357 -0.1737
 5350W        W22198   4.465   7.222   0.402 -0.1104  0.1745 -0.2346
 5351W        W22199   0.857   0.244   0.978  0.3398 -0.0818 -0.1382
 5352W        W22200   4.107   7.838  15.723 -0.2806 -0.0191  0.2146
 5353W        W22201  12.580  16.324  14.857 -0.0064 -0.1828 -0.0340
 5354W        W22202   6.224   9.013   4.219 -0.0485  0.0728  0.1992
 5355W        W22203  11.042  11.075  15.024  0.0152 -0.1329  0.0115
 5356W        W22204   5.447   5.345   0.171 -0.0424 -0.3176  0.3342
 5357W        W22205   6.162   6.625  17.748  0.0894  0.2521 -0.2817
 5358W        W22206  13.298  16.174   4.531 -0.0349  0.1006  0.3373
 5359W        W22207  16.009  16.034   0.219 -0.1511 -0.1568  0.0250
 5360W        W22208   4.666   5.204   1.816  0.2395 -0.2687  0.0494
 5361W        W22209  14.533   3.575   3.678  0.2236  0.0802  0.2760
 5362W        W22210   9.027  11.626  14.446 -0.1798  0.1754  0.1436
 5363W        W22211   0.486   0.235   4.115 -0.1672 -0.2777  0.1476
 5364W        W22212   5.461   6.218  12.877 -0.1356 -0.3423 -0.0087
 5365W        W22213   5.001   2.712  12.531 -0.1315  0.2265  0.0850
 5366W        W22214  10.753   8.238   4.652  0.1175 -0.1194  0.0211
 5367W        W22215   5.743   0.232  17.776 -0.0625  0.0468 -0.1108
 5368W        W22216   4.555  11.763  17.032 -0.1898  0.2229 -0.0688
 5369W        W22217  13.305   7.657   0.909  0.3054  0.0216 -0.0151
 5370W        W22218  12.657   5.584   1.352 -0.1258 -0.2597 -0.1466
 5371W        W22219   4.890  15.091  11.785 -0.0647 -0.1952  0.3517
 5372W        W22220   1.774   4.049   6.085  0.1965 -0.0806 -0.0082
 5373W        W22221  16.733   1.284   1.907  0.2119  0.1127  0.1530
 5374W        W22222  16.424  12.913  17.050 -0.3184 -0.0740  0.1162
 5375W        W22223  16.727   9.542  17.005 -0.4090  0.2284 -0.0591
 5376W        W22224   4.088  16.781  14.351  0.3267 -0.2672 -0.0798
 5377W        W22225  16.412   1.822  17.530 -0.0161 -0.1639 -0.0882
 5378W        W22226   2.136  13.324  11.795  0.1705 -0.1503  0.1216
 5379W        W22227  10.082   3.039  16.691 -0.0066  0.3564 -0.0998
 5380W        W22228  15.077   4.250  12.527 -0.2137  0.2420  0.1504
 5381W        W22229   9.555  11.058   3.191 -0.1500  0.0646 -0.0512
 5382W        W22230   9.974   0.762  17.286 -0.1450 -0.1999 -0.1833
 5383W        W22231   9.913   6.224  17.611 -0.4147 -0.0582 -0.0520
 5384W        W22232   5.270   5.491   3.869 -0.1781 -0.2797 -0.1195
 5385W        W22233   2.414  10.723  13.152 -0.0485  0.1996 -0.1020
 5386W        W22234   4.603   8.887   2.144 -0.1218 -0.0752 -0.1216
 5387W        W22235  11.573   7.374  16.277  0.2931 -0.0847 -0.1076
 5388W        W22236   7.091   2.676  14.666 -0.1369 -0.2190  0.0495
 5389W        W22237   6.395  12.419   4.684  0.0954 -0.1578  0.1941
 5390W        W22238   5.887   5.923  13.931  0.0743  0.1173 -0.0020
 5391W        W22239  14.119  14.101   3.203  0.0177 -0.1740  0.0526
 5392W        W22240  15.652   6.478   5.259  0.1665  0.0630 -0.1126
 5393W        W22241  13.168  10.396  12.536 -0.0002  0.2020  0.1063
 5394W        W22242  12.552   4.192   1.657 -0.1866  0.3541  0.1042
 5395W        W22243  10.964  11.153  13.668 -0.1118 -0.1705  0.0614
 5396W        W22244   3.254  13.791   2.098  0.1238 -0.2103  0.2360
 5397W        W22245   3.067   1.599  17.731 -0.0162 -0.1255 -0.2550
 5398W        W22246   8.228   0.632   0.653  0.0474  0.0449  0.0049
 5399W        W22247  14.955   4.300  13.043 -0.0648 -0.0505 -0.1200
 5400W        W22248   3.275  13.929   5.150 -0.3319 -0.2938  0.0931
 5401W        W22249   4.861   1.818   0.205 -0.1879  0.0783  0.0784
 5402W        W22250  11.778   6.930   6.426 -0.0064 -0.2946 -0.1745
 5403W        W22251  14.773   2.965  13.217 -0.0258 -0.0578  0.1091
 5404W        W22252  13.480   2.052   4.915  0.0531  0.1479 -0.2249
 5405W        W22253  10.925   8.349  14.941  0.0461  0.0955 -0.0775
 5406W        W22254   5.170   1.095   4.252  0.2456 -0.0481  0.2256
 5407W        W22255   2.748   5.438   2.439  0.0371 -0.1048 -0.1447
 5408W        W22256  15.831   3.087  11.826  0.0801  0.0572  0.2156
 5409W        W22257   5.772   0.507  13.039 -0.1236  0.0098 -0.0663
 5410W        W22258  15.269   6.270   5.956 -0.0017  0.1582 -0.0784
 5411W        W22259   0.552   1.716   5.257  0.2825 -0.1286  0.0880
 5412W        W22260  13.574  16.157  14.427 -0.0836  0.2012  0.0752
 5413W        W22261   2.886  16.665   3.815 -0.0582  0.1040 -0.3712
 5414W        W22262   7.829  15.267   0.248  0.1994 -0.0914 -0.0520
 5415W        W22263   2.605   9.412   0.764 -0.0469 -0.2145  0.2333
 5416W        W22264  14.268   7.773  16.076 -0.0205 -0.1926 -0.1629
 5417W        W22265   5.841  16.230  16.042 -0.1660 -0.0824 -0.2195
 5418W        W22266   1.711  12.156  12.090  0.0495 -0.0284 -0.1393
 5419W        W22267  11.076  13.386  11.584 -0.0989 -0.4289  0.3433
 5420W        W22268   1.865  13.244  15.598  0.2157  0.0931  0.0265
 5421W        W22269   0.202  12.995  17.591 -0.1756 -0.1456  0.1440
 5422W        W22270   6.894  12.375  15.126 -0.1864  0.0308 -0.1861
 5423W        W22271  13.914   2.467  12.011  0.0270  0.0763 -0.1167
 5424W        W22272   0.938   9.747  12.178 -0.0868 -0.0324  0.1683
 5425W        W22273   1.845  13.762  15.352 -0.0140  0.0959  0.0950
 5426W        W22274  10.384  14.893  14.057  0.0853 -0.1025  0.2337
 5427W        W22275  13.702   6.548   4.365 -0.0320 -0.0774  0.0512
 5428W        W22276   1.972  11.621  14.264  0.3818  0.2347 -0.2009
 5429W        W22277   1.164  13.585   4.403 -0.0326 -0.1306 -0.2350
 5430W        W22278   1.267   3.973   3.593  0.0112  0.1386  0.1041
 5431W        W22279  16.215  16.473   1.674  0.0148 -0.3516  0.0906
 5432W        W22280   9.567   7.929  14.759 -0.1029 -0.0099 -0.0684
 5433W        W22281  14.044   2.426   2.797  0.1615  0.2461 -0.0463
 5434W        W22282   5.705   6.769  14.374 -0.3008  0.1625 -0.0713
 5435W        W22283  15.054   8.160   0.088  0.0662  0.0038 -0.1306
 5436W        W22284  10.128  13.788   5.164  0.1530 -0.1668  0.1931
 5437W        W22285  11.802   6.795  16.750  0.0544 -0.0919 -0.1431
 5438W        W22286  12.124  10.597  14.427 -0.1312  0.0218 -0.0859
 5439W        W22287   7.605   6.549   3.430  0.0714 -0.0440 -0.0324
 5440W        W22288  14.885  14.149  12.799 -0.2091 -0.3632 -0.2773
 5441W        W22289  14.907   6.155   1.416  0.0171 -0.0215 -0.0643
 5442W        W22290  13.521   1.207  12.173  0.2872 -0.2500 -0.4076
 5443W        W22291   9.002   4.481  12.434  0.1599 -0.0869 -0.0592
 5444W        W22292   3.235   8.304   3.500 -0.1270 -0.1305  0.0230
 5445W        W22293   2.172   6.682   1.319 -0.1203 -0.1272  0.2507
 5446W        W22294   4.469   7.018  13.604 -0.1466  0.1315 -0.0384
 5447W        W22295   9.635   4.953  12.832  0.2614 -0.1408  0.3198
 5448W        W22296   4.907  11.077  11.932 -0.1084 -0.1379  0.0158
 5449W        W22297   0.582   3.745   0.845 -0.3188 -0.2153  0.3177
 5450W        W22298  12.739   3.066   3.672  0.1491  0.2372  0.1412
 5451W        W22299  12.463  16.021   0.498 -0.1161 -0.1630 -0.1300
 5452W        W22300   5.369   7.964   5.511 -0.0607  0.0430 -0.4079
 5453W        W22301   1.406   6.136   1.671 -0.1767 -0.2295  0.3086
 5454W        W22302  16.604   3.380  12.959  0.0277 -0.2749  0.0109
 5455W        W22303   5.396  11.798  17.375  0.0986 -0.0286  0.0825
 5456W        W22304  10.749  12.900  14.900  0.2338  0.1129 -0.0134
 5457W        W22305  15.995  10.683   3.184  0.0360 -0.1793  0.1957
 5458W        W22306  12.470   6.263   6.333  0.0287 -0.3182  0.0917
 5459W        W22307  15.866   0.343  12.637  0.1044  0.2693 -0.1200
 5460W        W22308  14.049  14.457   4.419 -0.1016 -0.2836 -0.0550
 5461W        W22309  11.028  16.928   2.371 -0.1075  0.1733 -0.5100
 5462W        W22310  11.987   3.057   3.139 -0.2128  0.0188 -0.1531
 5463W        W22311  14.847   2.458  13.096  0.0930  0.2817  0.2899
 5464W        W22312   9.194   9.345   4.645  0.2407  0.0890  0.0994
 5465W        W22313   0.347  14.044  13.226  0.3041  0.3366  0.0164
 5466W        W22314  16.222  11.378   3.106  0.1097  0.2450 -0.0478
 5467W        W22315  10.486  16.523   5.472  0.1844  0.0177 -0.0223
 5468W        W22316  13.318  13.055   0.162  0.1028 -0.2009  0.1970
 5469W        W22317  11.606   0.816  16.914 -0.0138  0.0145  0.0635
 5470W        W22318   1.963  13.574   0.992 -0.1132 -0.1212 -0.0357
 5471W        W22319  14.110  12.960   0.888  0.0528  0.1006 -0.1008
 5472W        W22320   1.299  15.360   1.363  0.0389  0.5582  0.0615
 5473W        W22321   2.333   1.368   5.496  0.0150  0.1908 -0.1913
 5474W        W22322   5.719   0.088  13.446  0.1758 -0.0720 -0.3306
 5475W        W22323  11.708  15.806   1.664  0.2126 -0.0963  0.0391
 5476W        W22324  10.581   5.647  11.169  0.0603  0.2379  0.1079
 5477W        W22325   4.445   5.121   0.143 -0.2753  0.2469 -0.2654
 5478W        W22326   8.352   4.837   3.386  0.0324 -0.0289 -0.1317
 5479W        W22327   9.195   6.208  12.464 -0.4055  0.0466 -0.0252
 5480W        W22328  12.220  12.031   2.203 -0.0023  0.0799  0.0734
 5481W        W22329  12.524  12.208   2.622  0.1599 -0.2177  0.1872
 5482W        W22330   4.504  15.308  14.185  0.0931 -0.1901  0.3099
 5483W        W22331   5.048   4.106   0.728 -0.2225 -0.0946 -0.2116
 5484W        W22332   6.175   4.979   4.414 -0.2794 -0.0628  0.0379
 5485W        W22333  16.866  12.925   3.645 -0.0390 -0.1130 -0.1508
 5486W        W22334   7.989   5.736  16.926 -0.0834 -0.1208 -0.2058
 5487W        W22335   0.799   1.775  15.850  0.1847 -0.1344 -0.0178
 5488W        W22336  12.551   7.930   1.920 -0.0005  0.0562  0.1968
 5489W        W22337  13.238   8.546  16.584 -0.3000 -0.1628  0.2650
 5490W        W22338   6.525   6.460   4.233 -0.0152  0.0607 -0.1093
 5491W        W22339  14.611   7.897  17.704  0.0756  0.1112 -0.0460
 5492W        W22340   6.482   8.428  13.723  0.2943 -0.2410 -0.1232
 5493W        W22341  14.448   6.543   0.506  0.0768  0.2607  0.0570
 5494W        W22342  14.045  16.652  13.976  0.0058 -0.1366 -0.1758
 5495W        W22343   9.864   2.055  12.900 -0.1122 -0.0067  0.1821
 5496W        W22344  16.486   1.572  14.575 -0.1539  0.3837 -0.0955
 5497W        W22345   1.967   2.997   4.554  0.1484 -0.0646  0.0766
 5498W        W22346   5.192   2.016  14.728  0.0925  0.0909  0.1742
 5499W        W22347   5.170   4.459  13.217  0.1191  0.1216 -0.0596
 5500W        W22348  14.987  16.783  13.552 -0.0251 -0.0715  0.1006
 5501W        W22349  13.547  14.572   5.327  0.2622  0.0040 -0.2383
 5502W        W22350  14.569   3.669  15.867  0.1338  0.1595 -0.0167
 5503W        W22351   4.786  13.712  13.329 -0.0942  0.2914  0.0009
 5504W        W22352   5.541   2.745   2.455 -0.0362  0.0680 -0.1381
 5505W        W22353   7.181  16.642  17.732 -0.0415 -0.1438 -0.4182
 5506W        W22354   1.841   3.733   2.868  0.1086  0.0812 -0.0089
 5507W        W22355   3.017   8.952   1.923 -0.0479  0.1012 -0.2004
 5508W        W22356   6.992   0.422  16.991 -0.0451 -0.0572  0.0427
 5509W        W22357  15.973  16.933   1.596  0.0950 -0.0202  0.0207
 5510W        W22358   4.168  12.289  12.770  0.2612 -0.0117 -0.1465
 5511W        W22359   4.727   1.112   4.064  0.0101 -0.0404 -0.1351
 5512W        W22360   5.170  13.097   2.676  0.1175 -0.0980  0.2016
 5513W        W22361  11.442  16.131   5.260 -0.1890  0.1320 -0.2946
 5514W        W22362  16.212   4.634   1.222  0.2140  0.0232  0.1250
 5515W        W22363  10.675   8.017   1.405  0.0387  0.2936  0.1952
 5516W        W22364   1.423  12.396   5.175  0.1232  0.0768  0.0937
 5517W        W22365   6.305   6.571   3.773 -0.1120  0.2246 -0.1299
 5518W        W22366   3.377   7.053   3.338 -0.0757 -0.0057 -0.1350
 5519W        W22367   3.616  10.040  15.402 -0.1555 -0.0915  0.1341
 5520W        W22368   4.714  15.858  17.669  0.0244 -0.0871 -0.1034
 5521W        W22369  12.674   7.543  12.401 -0.2336  0.2718  0.0161
 5522W        W22370   8.691   1.559   4.341  0.1350  0.4341 -0.0988
 5523W        W22371   1.116  14.510  16.908  0.0741 -0.1648  0.0068
 5524W        W22372   9.669   4.840   3.858  0.0022 -0.0555  0.1040
 5525W        W22373   4.997  10.516   2.407  0.0130  0.2233 -0.1376
 5526W        W22374   4.034   3.354  14.737 -0.1069  0.3582  0.2623
 5527W        W22375   4.628   2.663   5.348 -0.0311 -0.0031 -0.0688
 5528W        W22376   4.919   9.590   2.722 -0.0442  0.1503 -0.2496
 5529W        W22377   9.118  13.090   6.275 -0.0147  0.1532  0.0891
 5530W        W22378  11.824   2.837   1.818  0.2330  0.0672  0.2540
 5531W        W22379   1.221  15.712   0.412  0.0548 -0.1819 -0.1737
 5532W        W22380   9.128   9.425   1.119 -0.5224 -0.0117 -0.1213
 5533W        W22381   6.519  13.022   4.284  0.0094  0.0986  0.0572
 5534W        W22382  17.007   1.642   1.579 -0.0917  0.1145 -0.0749
 5535W        W22383  14.300  10.499  16.813  0.0362  0.3531 -0.0421
 5536W        W22384   6.913  13.102   5.360  0.2446  0.4432 -0.2127
 5537W        W22385  12.817   7.721  14.072 -0.0985  0.1332 -0.3140
 5538W        W22386  14.477   4.334  13.078  0.0250  0.0566  0.1057
 5539W        W22387  11.264   4.374   4.292  0.1441 -0.0307  0.1852
 5540W        W22388  15.801  16.368   3.583  0.0218  0.2221 -0.2233
 5541W        W22389   9.523  13.933  13.483 -0.2310 -0.0970 -0.0336
 5542W        W22390  16.996   1.859   2.277 -0.0738  0.1973  0.3097
 5543W        W22391   6.108   9.488  12.334  0.0601  0.1499  0.1577
 5544W        W22392   6.009   9.822  16.071  0.0725  0.0790  0.0226
 5545W        W22393  10.790   3.336  14.825  0.2472 -0.2438  0.0240
 5546W        W22394   5.868  14.205   1.614  0.2993  0.0046  0.1237
 5547W        W22395  15.944   8.874  13.767  0.1387  0.1479 -0.1499
 5548W        W22396   1.914  11.800   5.231 -0.0963  0.0076  0.1939
 5549W        W22397   5.831  16.242   6.757 -0.0156  0.1190  0.0163
 5550W        W22398  11.332   3.957   3.361  0.2088 -0.0942  0.0739
 5551W        W22399   1.522  10.925   5.060  0.1160 -0.0825  0.1735
 5552W        W22400   2.156   8.344  13.352 -0.0556  0.0175 -0.2445
 5553W        W22401  12.098   9.986   2.726 -0.1734 -0.0558 -0.2073
 5554W        W22402  10.872   9.746  16.562 -0.1233 -0.0175  0.1109
 5555W        W22403   5.175  12.142  14.283 -0.1440 -0.2724  0.0747
 5556W        W22404   5.985   7.361  17.160 -0.2313  0.1343  0.0123
 5557W        W22405  10.612   3.911   2.093 -0.1555 -0.1933 -0.4263
 5558W        W22406   3.941   4.486   4.755 -0.1615  0.0063 -0.0775
 5559W        W22407   0.477   7.363   0.798 -0.0478 -0.1834  0.0069
 5560W        W22408   0.531  11.176  15.928  0.1812 -0.0601 -0.1274
 5561W        W22409  13.437   6.986   2.943  0.0267  0.2808  0.1703
 5562W        W22410   5.512   0.926   5.302 -0.2070  0.0203  0.0785
 5563W        W22411  11.376   9.887  16.318  0.0503  0.1226 -0.3034
 5564W        W22412  10.175  10.929  12.578 -0.0085  0.1858 -0.1921
 5565W        W22413   3.462  13.834  16.638 -0.3164  0.0177  0.1328
 5566W        W22414   7.917   9.727  14.539 -0.0892 -0.1307 -0.2236
 5567W        W22415  16.922   3.437  16.049  0.2371  0.1810  0.0556
 5568W        W22416  16.558   1.611   0.942  0.0965 -0.0562  0.0994
 5569W        W22417   8.960  10.585   0.392  0.1795  0.2671  0.1503
 5570W        W22418  14.093   3.440   3.978 -0.0856  0.0044  0.2162
 5571W        W22419   2.818   5.806   0.844  0.1501 -0.2689 -0.0029
 5572W        W22420  13.972   6.012   5.059  0.1077 -0.1423 -0.1463
 5573W        W22421   5.667  16.283  13.279 -0.4330 -0.1087  0.4033
 5574W        W22422  15.004   5.444  15.406  0.2312 -0.0796  0.1370
 5575W        W22423  16.933   8.741  13.900 -0.0524 -0.2677  0.2772
 5576W        W22424   4.380  10.505   6.709  0.0854  0.1532  0.0784
 5577W        W22425  12.502   2.256  13.166  0.0256 -0.0344 -0.1323
 5578W        W22426  13.297  10.826   4.250 -0.1599 -0.4258  0.0526
 5579W        W22427   1.848  11.403   1.334  0.1065 -0.0269 -0.0756
 5580W        W22428   0.459  11.958  15.783 -0.1561 -0.2706 -0.2667
 5581W        W22429  16.105   5.882   2.272 -0.1189 -0.1161 -0.0895
 5582W        W22430  11.627  10.775   5.497  0.3217  0.1949  0.1168
 5583W        W22431   6.967  15.317  14.631  0.3857  0.2336  0.3476
 5584W        W22432  13.968  16.733   2.791 -0.3530 -0.1686 -0.0398
 5585W        W22433   3.531   3.915   2.749 -0.0690  0.0188 -0.1029
 5586W        W22434  12.715   9.965   6.005 -0.3457  0.0711 -0.0087
 5587W        W22435   8.397  12.988   2.888 -0.2083 -0.2237  0.1614
 5588W        W22436   2.195  16.736  13.850 -0.1070 -0.2325 -0.0961
 5589W        W22437   4.456   3.417  14.348 -0.1958  0.0085  0.1717
 5590W        W22438  11.610   0.979  13.395 -0.1004 -0.0524 -0.1507
 5591W        W22439   1.395  16.427  15.895  0.0028  0.0634  0.4584
 5592W        W22440   1.076  14.149   1.966 -0.1527  0.2474 -0.0505
 5593W        W22441   0.567  10.747   4.670  0.1666 -0.1848  0.0334
 5594W        W22442  15.202  16.347  16.497  0.0737  0.1186 -0.0295
 5595W        W22443   2.401   7.528   4.606 -0.1667 -0.2331  0.3982
 5596W        W22444   9.787  10.380  13.845 -0.1747  0.0045  0.1041
 5597W        W22445  16.085  16.736  12.947 -0.0924  0.0880  0.1305
 5598W        W22446  17.001   7.986   0.882  0.0252 -0.0861 -0.0396
 5599W        W22447  10.053  15.673  15.577  0.1501 -0.3072  0.0399
 5600W        W22448  16.378   0.757  16.018  0.1250 -0.2560  0.1399
 5601W        W22449   7.374  11.085  16.317 -0.1346  0.1901 -0.0628
 5602W        W22450   2.510   4.041  14.072  0.0298 -0.2733  0.1552
 5603W        W22451  14.365  10.033  14.847  0.0099  0.2486  0.1893
 5604W        W22452   4.537  10.494   0.997 -0.0303  0.1306 -0.2688
 5605W        W22453   3.629  12.871  16.594  0.2365 -0.2887 -0.1316
 5606W        W22454   9.953   2.404  16.273  0.0119 -0.0222  0.0953
 5607W        W22455  12.398  10.482  12.141 -0.0212 -0.2330 -0.1199
 5608W        W22456  16.946  14.033   0.564  0.2895  0.3770 -0.0695
 5609W        W22457   9.382   0.066  16.108  0.0793 -0.2659 -0.0880
 5610W        W22458   8.866   8.332  15.217  0.2300 -0.1922  0.0658
 5611W        W22459   1.036   0.648   3.057 -0.0235 -0.0803  0.1316
 5612W        W22460   9.447   7.914  17.375  0.1437 -0.1918  0.0470
 5613W        W22461   4.656  15.851   5.684 -0.0337 -0.0780 -0.1561
 5614W        W22462   3.159   5.476   1.693 -0.1234 -0.4785 -0.0066
 5615W        W22463   1.557  16.153  14.716 -0.0217 -0.2833 -0.0556
 5616W        W22464   9.899   4.776   4.869 -0.0903  0.1140 -0.0823
 5617W        W22465   3.280  10.283  13.727 -0.1935  0.0442 -0.1059
 5618W        W22466  10.547   4.206  17.232 -0.0936  0.0897  0.3771
 5619W        W22467   8.614   8.809  13.462 -0.0598 -0.2589  0.1694
 5620W        W22468  12.017   3.467   3.494 -0.0536  0.1117 -0.0118
 5621W        W22469   3.937   6.008   3.695 -0.0138 -0.3278 -0.0465
 5622W        W22470   7.552  10.707  12.662 -0.0643  0.1137  0.1436
 5623W        W22471   8.627   0.160   4.220 -0.1937 -0.2430  0.2955
 5624W        W22472   6.022   3.570  13.743  0.0346 -0.3060 -0.1474
 5625W        W22473  15.609   1.620  15.895  0.2516 -0.1452  0.0510
 5626W        W22474   0.722  10.546   5.073  0.0633  0.2504 -0.0683
 5627W        W22475   8.181   5.929  13.365 -0.1251  0.0075  0.0429
 5628W        W22476   0.650   8.013   1.572  0.1172  0.1328  0.2300
 5629W        W22477   8.818  11.366   2.004 -0.3107 -0.1154 -0.1847
 5630W        W22478   5.692   8.058   4.290 -0.0842 -0.0954 -0.1125
 5631W        W22479   4.183  12.958   4.345 -0.0590  0.2284 -0.0564
 5632W        W22480  16.693  11.524   5.492  0.1461 -0.0787 -0.0115
 5633W        W22481  11.232   6.419   0.935  0.2362 -0.3175 -0.0821
 5634W        W22482  12.787  13.706  15.535 -0.0483  0.2347  0.0614
 5635W        W22483   9.127  13.068   0.451 -0.2318 -0.2118 -0.1685
 5636W        W22484   4.828   6.251   3.855 -0.0354  0.1404  0.0105
 5637W        W22485  10.233  10.214  11.909 -0.1188 -0.1728 -0.2083
 5638W        W22486   9.156   1.819   3.543  0.1714 -0.0989  0.1608
 5639W        W22487   1.486   2.024  12.495  0.0461 -0.0973 -0.1082
 5640W        W22488  10.329   5.615  12.534 -0.1682  0.1790  0.1207
 5641W        W22489   7.266  11.814   5.538 -0.0760 -0.0200 -0.0245
 5642W        W22490  12.057   8.703  13.050  0.0468  0.1181  0.1609
 5643W        W22491   2.725   5.639   5.104  0.1780 -0.1447  0.0260
 5644W        W22492   1.482   4.087  17.210 -0.0342 -0.0254 -0.2105
 5645W        W22493  11.380  12.067   0.330 -0.0508  0.0434  0.2419
 5646W        W22494   7.034   0.204  15.055  0.1136  0.0674  0.0906
 5647W        W22495   7.594  15.820   3.005  0.0984 -0.3264  0.0569
 5648W        W22496  16.887  12.219  16.638  0.1282 -0.1204  0.1714
 5649W        W22497  13.159   5.507  15.316 -0.0523  0.4610  0.2309
 5650W        W22498   6.389  16.041  16.744 -0.0318 -0.0047 -0.1792
 5651W        W22499  15.559  11.418  14.519 -0.1807  0.1491  0.0708
 5652W        W22500   2.334   0.183  13.030  0.0770 -0.1038 -0.0472
 5653W        W22501   2.412  14.262   0.456  0.0364 -0.1736  0.0761
 5654W        W22502   7.299   2.089  17.238 -0.1365 -0.1713  0.2016
 5655W        W22503  10.711   3.542   5.520 -0.0531  0.1709  0.2501
 5656W        W22504   3.418   0.526   1.386  0.2200  0.1130 -0.0537
 5657W        W22505   4.426  13.633   6.259 -0.1527  0.2336  0.0093
 5658W        W22506  12.477  10.768  11.517 -0.0714 -0.0862  0.1150
 5659W        W22507   0.829   6.449  16.654  0.1632  0.0491  0.1221
 5660W        W22508   8.362  15.721   3.165 -0.1506 -0.0290 -0.3051
 5661W        W22509  10.807   6.770   0.956 -0.4489 -0.0061  0.1966
 5662W        W22510   0.985   8.764   0.895  0.1486 -0.2592  0.1809
 5663W        W22511   3.869   6.973   3.142  0.1740 -0.3224  0.1130
 5664W        W22512   5.706  14.014  12.184 -0.3187 -0.1380  0.1722
 5665W        W22513   0.506  10.351   0.467  0.0695 -0.2671  0.1820
 5666W        W22514  16.822   3.605   5.475  0.2835  0.1239  0.3044
 5667W        W22515   4.458  10.626   2.016  0.2273  0.2841 -0.0936
 5668W        W22516   6.362  15.601  12.031  0.1438 -0.1545 -0.0164
 5669W        W22517   5.493   7.062   2.076  0.0623  0.1400  0.2873
 5670W        W22518   2.821  14.149  15.613 -0.1632  0.2260 -0.2073
 5671W        W22519   6.145  15.423  16.133 -0.3988 -0.2098  0.2733
 5672W        W22520  15.971   3.417   0.063 -0.0573  0.0053  0.1155
 5673W        W22521   9.196  16.553  16.800  0.0796  0.0794  0.1820
 5674W        W22522  11.498  14.671  17.050 -0.0425  0.1442 -0.1890
 5675W        W22523  14.991  11.101  13.685 -0.1053  0.2573 -0.0787
 5676W        W22524   7.008  16.248   5.801 -0.0009  0.0051 -0.0634
 5677W        W22525   0.074  15.448  13.310 -0.1275 -0.1577 -0.1234
 5678W        W22526  14.785  12.498   0.550 -0.1991 -0.2052 -0.1818
 5679W        W22527   5.906  16.226  14.196 -0.0317  0.0923 -0.1080
 5680W        W22528  12.608   1.438  15.316 -0.0136  0.0113 -0.3415
 5681W        W22529  11.344   3.284  14.190 -0.2137  0.2680  0.1745
 5682W        W22530   3.842   5.332  15.148 -0.0426  0.2893 -0.4287
 5683W        W22531   1.238  13.051   1.361  0.2690 -0.1476  0.0404
 5684W        W22532  13.769   8.943   0.003 -0.1454 -0.0000  0.2024
 5685W        W22533   2.700  12.223   3.718  0.1430  0.1219  0.1528
 5686W        W22534  14.681   1.345  11.084 -0.1037  0.0664  0.2119
 5687W        W22535  16.846  12.804   0.015 -0.0046  0.0702 -0.0001
 5688W        W22536   0.804   9.339  12.468  0.1215  0.1899  0.0439
 5689W        W22537  13.980   3.636   3.501  0.0597 -0.0227 -0.0053
 5690W        W22538   4.032   8.712   3.788 -0.2405 -0.0350 -0.3932
 5691W        W22539  16.027   7.362   5.589  0.1244  0.0253  0.2250
 5692W        W22540   0.749  11.032   5.174  0.2618 -0.2528 -0.0851
 5693W        W22541  15.781  10.956   0.590  0.3708  0.0282  0.0293
 5694W        W22542  15.768   6.079   6.038  0.2412 -0.1374 -0.2117
 5695W        W22543  11.063  12.412  13.504  0.0510  0.0291  0.2155
 5696W        W22544   7.010   7.216  16.720 -0.0085  0.3246 -0.1309
 5697W        W22545   8.267   4.816  17.833  0.0532  0.0653 -0.0098
 5698W        W22546   1.308  14.767   1.148 -0.0063  0.0146 -0.0131
 5699W        W22547  14.751  12.243  16.850 -0.0677 -0.3270  0.0502
 5700W        W22548   9.410   2.344  16.328 -0.0197  0.0129  0.0040
 5701W        W22549   1.032  11.344   3.809  0.1415  0.1076  0.1691
 5702W        W22550  10.780   0.601  12.936  0.2869 -0.0087  0.2969
 5703W        W22551   4.146  15.388   4.352  0.0437 -0.2152 -0.3930
 5704W        W22552   7.482  12.201  13.080  0.2320 -0.0427  0.2028
 5705W        W22553   1.983   4.595   0.048  0.1502  0.0065 -0.0177
 5706W        W22554  13.495   5.287   1.673  0.0270 -0.0736 -0.2988
 5707W        W22555   0.964   8.368  17.264 -0.2690 -0.2786  0.3983
 5708W        W22556  13.996   3.575   5.866 -0.3112  0.2336 -0.1112
 5709W        W22557   2.688   9.586  15.555 -0.1920 -0.0839  0.1214
 5710W        W22558  10.699   1.380   5.024  0.0076 -0.0228  0.0161
 5711W        W22559   6.111   1.690   1.937 -0.0726 -0.1673 -0.1019
 5712W        W22560   6.097  11.081  16.903  0.0321  0.0283  0.0224
 5713W        W22561  10.344   1.959   2.388 -0.0099  0.0520  0.2036
 5714W        W22562   2.802   7.482  13.413 -0.1301 -0.1268  0.0801
 5715W        W22563   7.937   6.593  17.304 -0.1385  0.2892 -0.0248
 5716W        W22564  15.119  16.887   5.094  0.0195 -0.1679 -0.2771
 5717W        W22565   9.074  10.774  15.923 -0.1146  0.4943 -0.2616
 5718W        W22566   7.563  17.054   0.476  0.2784  0.0183  0.1466
 5719W        W22567   0.661  10.340  16.342 -0.2592  0.1340  0.1521
 5720W        W22568   7.187   8.114  12.263 -0.1855 -0.1384  0.2199
 5721W        W22569   0.983   2.320   4.911  0.0866 -0.0027  0.2870
 5722W        W22570   3.681  10.250  17.423 -0.3840  0.0322  0.2829
 5723W        W22571   9.301   1.426   5.794  0.0548 -0.0512  0.3499
 5724W        W22572   7.063  11.730   0.272 -0.2530  0.1277 -0.2035
 5725W        W22573  12.682   0.854  13.396  0.2315 -0.3747 -0.0388
 5726W        W22574   2.477  12.991   3.247  0.0877  0.1627  0.0721
 5727W        W22575  16.574   7.286   2.136 -0.0408 -0.0185 -0.2311
 5728W        W22576   0.099   7.588   0.378 -0.1931 -0.2460 -0.5102
 5729W        W22577  12.294  12.405   4.737  0.1909  0.2371 -0.0891
 5730W        W22578   2.368   7.592   1.000 -0.0479 -0.2893  0.0905
 5731W        W22579  16.625   3.130   3.265 -0.0017 -0.1393 -0.1284
 5732W        W22580   0.772  16.405   2.575  0.0277 -0.1087 -0.1137
 5733W        W22581   4.163  16.256  12.448 -0.0477  0.0779  0.1980
 5734W        W22582   2.481   8.037  17.417  0.1823 -0.1358 -0.1651
 5735W        W22583   4.897   3.140   0.435 -0.0264 -0.3053 -0.1758
 5736W        W22584   1.869   8.811   1.689  0.1749  0.0100  0.1111
 5737W        W22585  16.116   8.710  13.272  0.1373 -0.2397  0.2653
 5738W        W22586   9.271  15.062   0.082 -0.0443 -0.2588  0.2602
 5739W        W22587   0.366   7.940   0.633  0.0199  0.0627  0.0316
 5740W        W22588  12.858   9.032  15.657 -0.2350  0.0212  0.0973
 5741W        W22589   9.723   5.778  13.387  0.0383 -0.1991 -0.1259
 5742W        W22590   6.028   1.914   1.327  0.0272  0.1749 -0.2107
 5743W        W22591  16.591   7.306   1.287  0.0209  0.0925 -0.0820
 5744W        W22592   0.023  10.986  15.930 -0.0220  0.0520 -0.1705
 5745W        W22593  11.622   3.344   2.675  0.3103 -0.0965 -0.1546
 5746W        W22594   2.187  10.003   2.177 -0.0893 -0.0979 -0.2325
 5747W        W22595   3.367   1.647   5.302 -0.2303  0.4026 -0.0853
 5748W        W22596  11.104   0.040  15.810 -0.1406 -0.2086 -0.1119
 5749W        W22597  16.364   0.007  14.754  0.2018  0.1430 -0.0328
 5750W        W22598  13.227   4.928   3.469 -0.1173 -0.1088 -0.0080
 5751W        W22599   3.855   6.031   2.046  0.1761 -0.0549 -0.4771
 5752W        W22600   4.814  12.293   2.094 -0.0251 -0.1094  0.1617
 5753W        W22601   9.449  15.693   1.265 -0.2627  0.0327 -0.2694
 5754W        W22602   8.026  16.758   4.436  0.4667  0.1858  0.1157
 5755W        W22603   7.733  14.805   3.555 -0.0700 -0.2140 -0.0428
 5756W        W22604   4.893   4.203  12.314 -0.0204  0.0193  0.1314
 5757W        W22605  16.000   9.126  17.172  0.0356  0.1044  0.0643
 5758W        W22606   9.337   4.166   4.346 -0.1216  0.2947  0.3337
 5759W        W22607   2.483   0.611  12.668  0.0507  0.0687 -0.3072
 5760W        W22608   5.687   0.935   1.007  0.1170  0.1783 -0.0290
 5761W        W22609   5.203   2.205  15.314 -0.0477  0.0215  0.2104
 5762W        W22610  11.546   9.520   1.293 -0.1610  0.3293 -0.0972
 5763W        W22611   2.869   4.825   5.683 -0.2102 -0.2048 -0.0902
 5764W        W22612   2.073  16.359   1.879 -0.0944  0.0492 -0.3206
 5765W        W22613  10.970   5.831   4.544 -0.3760 -0.2494  0.1215
 5766W        W22614   1.112   9.811  15.766 -0.0900 -0.0825 -0.1954
 5767W        W22615  11.223   7.444  13.957 -0.3570 -0.3893  0.0725
 5768W        W22616   6.948   4.228  12.945  0.1628  0.0033  0.1721
 5769W        W22617  10.116  14.978   2.742  0.0028  0.1657 -0.0211
 5770W        W22618  16.497   4.717  17.733 -0.0503 -0.1713 -0.1568
 5771W        W22619  14.619  14.095  15.159 -0.1596 -0.0915  0.3398
 5772W        W22620  13.259  10.846  17.121 -0.1595  0.3310  0.1001
 5773W        W22621  12.237  13.074   2.135 -0.1557  0.0225  0.1391
 5774W        W22622   3.114  11.148  11.250  0.3217 -0.0747 -0.0661
 5775W        W22623   0.235   3.209   3.682  0.2228  0.2542  0.1671
 5776W        W22624  14.140  15.584   1.219 -0.3410  0.0489  0.2185
 5777W        W22625   6.272  14.978  13.166 -0.0083 -0.1354  0.0183
 5778W        W22626   9.909   3.302   5.526  0.6583 -0.1000  0.2165
 5779W        W22627   0.929  11.544  14.064  0.0435 -0.0455 -0.0242
 5780W        W22628   2.644  14.387  17.442  0.2166 -0.1519  0.2426
 5781W        W22629   7.285  11.641  17.094 -0.0403 -0.0896  0.0867
 5782W        W22630  16.777   6.493   2.854  0.0185 -0.2033 -0.3099
 5783W        W22631  10.932  15.636  14.996  0.0715  0.1072 -0.1325
 5784W        W22632   9.989   3.961  16.994  0.0539 -0.0417  0.3433
 5785W        W22633   3.810   9.287   2.950  0.0832 -0.3495  0.1313
 5786W        W22634   0.201   0.087  16.040  0.1537 -0.0245 -0.1588
 5787W        W22635  13.798   9.862  12.436 -0.1264  0.0600  0.0348
 5788W        W22636   9.464  10.265   3.619  0.3268  0.1963  0.0828
 5789W        W22637   9.126  10.621  16.374  0.1204  0.1678  0.4504
 5790W        W22638  15.164   5.380  16.682  0.0357  0.0453 -0.1478
 5791W        W22639   2.301   7.254   1.937 -0.2500  0.2162  0.0452
 5792W        W22640   5.078   6.912   1.859 -0.1707 -0.1211  0.0289
 5793W        W22641  13.196  15.750   3.633  0.1194  0.1044 -0.3254
 5794W        W22642  13.934   7.400   0.205 -0.0652 -0.2593  0.0313
 5795W        W22643   6.954   0.690   5.651  0.1214  0.0045 -0.4051
 5796W        W22644   4.848  14.754  13.036  0.2622  0.0510 -0.2037
 5797W        W22645   3.997   3.984   2.619 -0.0685 -0.0136 -0.0388
 5798W        W22646   7.613   9.172  17.617  0.0506 -0.0487  0.0303
 5799W        W22647  11.910  11.373  12.795  0.0429 -0.1405 -0.1857
 5800W        W22648   6.025  12.866   4.366  0.2242 -0.1223  0.2534
 5801W        W22649   5.529  16.777   2.995  0.0763  0.0633  0.1983
 5802W        W22650   1.948   3.040   6.732  0.0861 -0.3248 -0.2397
 5803W        W22651  10.406  13.661   2.215  0.0277 -0.1192 -0.1718
 5804W        W22652   7.530   3.445   3.201 -0.0164 -0.1834  0.0629
 5805W        W22653   3.837  10.782  14.243 -0.0114  0.0484  0.0409
 5806W        W22654   9.062  14.027   4.090  0.0961  0.2493 -0.0733
 5807W        W22655   8.635   6.631   2.414  0.0523 -0.0718  0.0593
 5808W        W22656   8.897   2.857  15.868  0.2702  0.0010 -0.0122
 5809W        W22657   2.672   5.195  16.860  0.0747  0.1068 -0.0725
 5810W        W22658   1.673   4.815  13.455 -0.3625 -0.3949  0.2001
 5811W        W22659   4.976   7.094  14.816  0.0072 -0.0672 -0.0140
 5812W        W22660   3.334   6.549   4.533 -0.0476  0.0187 -0.0594
 5813W        W22661   3.980   0.404   3.650  0.0338  0.1018 -0.3100
 5814W        W22662   8.548   5.697  16.976  0.0257  0.1376  0.1611
 5815W        W22663   5.177  16.062   0.596 -0.2866 -0.0736 -0.0303
 5816W        W22664   5.200   1.088  16.180  0.1003 -0.1877 -0.1836
 5817W        W22665   1.524   1.914  16.371 -0.1059  0.1207 -0.0701
 5818W        W22666  15.175  15.790  12.527 -0.3050 -0.0974  0.0967
 5819W        W22667  16.315   8.547  15.658  0.0488 -0.2715  0.0415
 5820W        W22668   1.587  17.026   3.443 -0.0396 -0.2357 -0.3748
 5821W        W22669  16.421   1.686  16.290  0.1548 -0.0059 -0.4114
 5822W        W22670  14.916  10.984  16.053  0.0055 -0.2108  0.5929
 5823W        W22671   1.569   5.414   0.523  0.0849  0.1528  0.2561
 5824W        W22672  10.419  16.682  14.435  0.1588  0.0270 -0.0521
 5825W        W22673  10.929   4.425  15.609 -0.1849 -0.3300 -0.0497
 5826W        W22674   5.899   6.713   0.810  0.0233 -0.2802 -0.2106
 5827W        W22675  11.594   6.854   2.051 -0.0426 -0.2432 -0.3856
 5828W        W22676  14.034  10.867  14.668  0.0955 -0.2893 -0.2671
 5829W        W22677  12.693  12.560  13.182  0.1723  0.1030 -0.0561
 5830W        W22678  11.348   6.046  16.906 -0.0570  0.2329  0.2304
 5831W        W22679  10.103  14.024   3.678 -0.1058  0.2976 -0.1757
 5832W        W22680  11.084  15.443   0.156  0.0318 -0.0259  0.1188
 5833W        W22681   2.639  10.069   0.969  0.0363 -0.1689  0.1687
 5834W        W22682   2.214  15.477  14.390 -0.2335 -0.1657  0.0438
 5835W        W22683   3.671   1.123   6.667  0.0052  0.1894 -0.2336
 5836W        W22684  13.760  10.120  17.572 -0.3085  0.0367  0.1184
 5837W        W22685   2.240  15.711  12.435 -0.1062 -0.2788  0.2218
 5838W        W22686   1.293   4.451  14.318  0.0665  0.1958  0.0758
 5839W        W22687  14.537  14.204   4.379  0.0110 -0.0383  0.1531
 5840W        W22688  11.459   5.886  13.260 -0.0478 -0.1936  0.2734
 5841W        W22689  10.744  15.603   1.914 -0.4564 -0.1155  0.0931
 5842W        W22690   0.532  14.819  15.044  0.0621  0.0716  0.1351
 5843W        W22691   7.064   7.719  16.744 -0.0880  0.0364  0.0969
 5844W        W22692   2.306   4.159   1.302  0.0295 -0.2191  0.0749
 5845W        W22693   6.804  10.022   5.002 -0.0532 -0.3443 -0.1008
 5846W        W22694   3.979   6.045  16.197 -0.1234 -0.0700  0.1378
 5847W        W22695   6.684   0.323  13.263 -0.0073  0.1235 -0.1870
 5848W        W22696  16.724  11.150  17.261 -0.2339 -0.0668 -0.2429
 5849W        W22697   6.923  11.241   3.430  0.0388 -0.0010  0.1680
 5850W        W22698  12.474  10.794   3.873  0.0698  0.0373  0.1079
 5851W        W22699  10.521   4.656   3.984  0.0643 -0.2841  0.2275
 5852W        W22700   3.047   6.678   1.711  0.1645  0.1195  0.0217
 5853W        W22701   3.523   0.471   3.424 -0.0525  0.1946  0.2546
 5854W        W22702   8.905   1.318  15.293 -0.0877 -0.1104 -0.0915
 5855W        W22703   1.060  14.957  16.646 -0.0684 -0.0315 -0.2356
 5856W        W22704  13.874  16.293   4.050 -0.0257  0.2372  0.0992
 5857W        W22705  13.000   2.260  11.774 -0.1854 -0.1279 -0.1628
 5858W        W22706  15.543   3.867  14.707  0.1481 -0.0311  0.0626
 5859W        W22707   4.231   9.198   3.729  0.0321  0.2687  0.0657
 5860W        W22708   8.120  16.167  13.627 -0.2684 -0.0191 -0.0014
 5861W        W22709   5.771   3.982   5.492  0.0374  0.3669  0.1145
 5862W        W22710  15.660   4.180   3.632 -0.0483 -0.3698  0.2980
 5863W        W22711   9.850  10.047   5.510  0.0841  0.0491  0.0698
 5864W        W22712   6.495   9.482  13.405 -0.2820  0.1200  0.0697
 5865W        W22713   0.400   7.130   5.340 -0.1265  0.1696  0.0642
 5866W        W22714  16.711   6.531  17.490  0.0272 -0.1041  0.1055
 5867W        W22715   3.231   7.393   0.002 -0.1156 -0.4036 -0.1251
 5868W        W22716   9.056   6.230   2.449  0.1833 -0.3537  0.2695
 5869W        W22717   9.505   7.198   3.423 -0.0057 -0.1145 -0.0427
 5870W        W22718  13.398  12.532  15.649  0.2441  0.3666  0.1217
 5871W        W22719  16.909   9.470  14.458  0.2532  0.1501  0.1289
 5872W        W22720  16.248   0.840   4.089  0.1580 -0.1917 -0.0022
 5873W        W22721   2.695   8.752  13.989  0.1020 -0.0618 -0.1726
 5874W        W22722   3.058   5.621  12.810 -0.2212  0.1835 -0.2401
 5875W        W22723  14.278  11.019   2.088  0.1881 -0.0334 -0.0578
 5876W        W22724  13.683   7.912  16.990  0.0716  0.1581  0.0491
 5877W        W22725   2.278   8.364   5.432 -0.0886 -0.4156 -0.3256
 5878W        W22726   6.721   6.741   0.571  0.1097 -0.3012 -0.4437
 5879W        W22727  10.314   5.220  14.522 -0.1482  0.0100  0.1924
 5880W        W22728   3.627   6.423   3.760  0.0265  0.0376  0.0755
 5881W        W22729  12.467   0.739   5.781 -0.1793 -0.0408 -0.0274
 5882W        W22730  10.868   5.839   1.143  0.1760  0.0754 -0.0782
 5883W        W22731   5.602   0.785  16.361 -0.0270  0.1443  0.0135
 5884W        W22732  13.812   9.070  12.863 -0.2743 -0.1598 -0.0779
 5885W        W22733   5.090   6.378   1.650  0.2167  0.2364  0.3385
 5886W        W22734   0.356   1.831  14.425 -0.0557  0.2026 -0.3654
 5887W        W22735  16.077  12.920  16.655 -0.1262  0.1726  0.1681
 5888W        W22736   3.703   8.516   1.242  0.0264  0.1188  0.0436
 5889W        W22737   3.147  15.313  13.005 -0.1691 -0.2189  0.2151
 5890W        W22738   1.853   5.798   2.815 -0.0463  0.0521 -0.0261
 5891W        W22739   5.814   4.000  12.341  0.1291  0.1321 -0.1047
 5892W        W22740  11.330  13.235  15.957  0.0096 -0.0296  0.1633
 5893W        W22741  12.488   8.057  13.726 -0.2094 -0.2095  0.1696
 5894W        W22742  15.561   7.782  14.880 -0.2085 -0.0745  0.1241
 5895W        W22743   9.841   6.283   4.439 -0.0219  0.0916  0.1355
 5896W        W22744  12.221  10.552   3.536 -0.1196 -0.1519 -0.0561
 5897W        W22745  10.008  16.725   3.311 -0.0458 -0.1057  0.0328
 5898W        W22746  16.926  13.691  13.750  0.0214  0.2131 -0.1701
 5899W        W22747  10.156  12.815  13.050  0.1083 -0.2133 -0.0236
 5900W        W22748  14.552   1.741  17.328 -0.3183  0.3017 -0.3033
 5901W        W22749   8.120   4.225  17.533 -0.1407  0.1707 -0.0038
 5902W        W22750  16.728   7.345   0.345 -0.3129 -0.1609 -0.1394
 5903W        W22751  13.296   5.055  16.687 -0.1716 -0.1751  0.1533
 5904W        W22752  10.865   5.126  16.091 -0.0113  0.0489 -0.1728
 5905W        W22753  15.282  16.629   5.502  0.0299  0.1803 -0.0628
 5906W        W22754   5.768  15.500  11.734  0.1458  0.0286 -0.0923
 5907W        W22755   3.054   4.312   3.787  0.0089 -0.1395  0.0707
 5908W        W22756   3.610   5.490   3.618  0.0230 -0.1701  0.2232
 5909W        W22757   3.534  15.479  15.324  0.1429 -0.2768  0.1269
 5910W        W22758   1.831  14.066   0.882  0.2659 -0.1265  0.1279
 5911W        W22759   8.793  13.876   0.887 -0.0009 -0.1686 -0.0938
 5912W        W22760   0.064  13.623   0.323 -0.1142 -0.0670  0.2108
 5913W        W22761   2.182  16.377   5.565  0.0634 -0.0255 -0.2458
 5914W        W22762  12.556   9.782  13.054 -0.2909  0.0745  0.1437
 5915W        W22763   3.921   4.031   5.059  0.0902  0.1266 -0.0876
 5916W        W22764  13.768   0.937   4.412  0.2729  0.2215  0.0250
 5917W        W22765  11.129  13.142   0.338 -0.2389 -0.0363  0.0229
 5918W        W22766  16.651   6.743  15.298  0.0716 -0.1930  0.2243
 5919W        W22767  17.046  10.513  14.686 -0.2236  0.2141 -0.1501
 5920W        W22768   1.313  16.133   0.706  0.0311 -0.4216  0.0102
 5921W        W22769   7.626   9.679  14.146  0.1970 -0.0555  0.1659
 5922W        W22770  12.916   8.316  15.064 -0.0276 -0.1312 -0.0107
 5923W        W22771  12.791   5.141  14.335 -0.1707  0.1008  0.0258
 5924W        W22772   3.270  11.029   2.727 -0.2421 -0.1703  0.0581
 5925W        W22773   7.953   3.858  12.385  0.0458 -0.1387 -0.0941
 5926W        W22774   9.196   9.567  13.465  0.0971 -0.1306 -0.0308
 5927W        W22775  13.812   2.007  11.967  0.0107 -0.0477  0.1144
 5928W        W22776   5.244  14.800  12.556  0.0164 -0.2218 -0.1036
 5929W        W22777   4.723   9.573  14.785  0.0908  0.1002  0.2187
 5930W        W22778  10.607  14.687  12.882  0.1406 -0.1031  0.0083
 5931W        W22779  15.258  10.603  15.904 -0.1035  0.0236  0.1377
 5932W        W22780  15.088  13.439   2.768 -0.0828 -0.0407 -0.1030
 5933W        W22781  12.366   0.080   2.824  0.1449 -0.0469  0.1095
 5934W        W22782   0.506   8.168  17.229 -0.1023 -0.1250 -0.1530
 5935W        W22783  10.764   4.189   3.110  0.0753  0.0318  0.0351
 5936W        W22784  14.176   4.160  17.221 -0.4107  0.1492  0.0042
 5937W        W22785  10.183  16.630  12.030  0.1054  0.0761 -0.4288
 5938W        W22786   2.146   9.911   4.353 -0.1273  0.1164  0.1045
 5939W        W22787  12.974   4.448   1.843  0.0726 -0.1610  0.0703
 5940W        W22788   4.249   8.831  17.587  0.1422  0.0042  0.1114
 5941W        W22789   9.404   4.525  15.209  0.2153 -0.0581  0.2322
 5942W        W22790   2.509   3.159   1.427  0.0120  0.2605 -0.1045
 5943W        W22791   8.018   9.512  12.956  0.1896  0.3643  0.0362
 5944W        W22792   4.582   7.208  14.044  0.1430  0.0574  0.2495
 5945W        W22793  14.834   4.091  14.564  0.0999  0.4336  0.2092
 5946W        W22794   5.240  11.480   3.455  0.0686  0.0165  0.2572
 5947W        W22795   6.598   6.402  17.559  0.2426 -0.1752  0.1333
 5948W        W22796   5.782  12.905   1.840 -0.1261 -0.2408  0.1317
 5949W        W22797   0.227  12.760   1.606  0.0045 -0.0997  0.1951
 5950W        W22798  11.826   6.498   3.234 -0.0783  0.0479  0.2077
 5951W        W22799  15.107  17.009   2.792 -0.1121 -0.1134 -0.1512
 5952W        W22800  15.167   4.607   1.072  0.1778  0.1804  0.0274
 5953W        W22801   9.284   4.943  14.909 -0.0268 -0.2151  0.2901
 5954W        W22802   7.699   4.753  16.774  0.1857  0.4281 -0.0016
 5955W        W22803   2.284   1.806   0.281  0.1659  0.0982 -0.2790
 5956W        W22804   7.238  10.879  15.296 -0.1484 -0.4987  0.0925
 5957W        W22805   7.334  16.476  14.703  0.0722  0.2607 -0.4314
 5958W        W22806   2.431  12.167   3.304 -0.0165  0.0065 -0.2505
 5959W        W22807   4.874  15.686  14.774 -0.2628 -0.1924  0.1274
 5960W        W22808  14.305   8.803   2.637 -0.1738 -0.0780 -0.1716
 5961W        W22809   6.813   4.298   1.557 -0.1458 -0.0554 -0.3820
 5962W        W22810  13.761   7.522  17.303 -0.4271  0.0431 -0.0152
 5963W        W22811   5.415   7.057  17.680  0.3637  0.1421  0.0580
 5964W        W22812  16.976   6.326  15.066 -0.0617  0.0641 -0.0005
 5965W        W22813   5.298  14.992  14.750 -0.0748  0.5196  0.1004
 5966W        W22814   1.563   1.079   0.452  0.0034  0.0641 -0.0508
 5967W        W22815   5.382   7.680   5.139 -0.1896 -0.2598 -0.3082
 5968W        W22816   4.814  16.441   2.643  0.2160  0.4217 -0.3136
 5969W        W22817   8.158  14.977   2.394  0.1700 -0.0058  0.0500
 5970W        W22818   2.865  13.356  16.617 -0.0237  0.0564 -0.2775
 5971W        W22819   2.332   3.712  11.446  0.0667 -0.1632 -0.0598
 5972W        W22820  12.707   4.019   3.121  0.1581 -0.2839  0.3171
 5973W        W22821   4.312   9.589  12.993  0.0998 -0.0854 -0.0043
 5974W        W22822  12.779  15.224   2.514  0.2161 -0.2645  0.1483
 5975W        W22823   7.690  16.074  12.507 -0.1498 -0.4411  0.1623
 5976W        W22824   8.235  13.862  16.789  0.0231 -0.0324  0.0777
 5977W        W22825   2.809  16.132   3.711  0.1368  0.1399 -0.0444
 5978W        W22826   0.769   6.662   5.091 -0.1357 -0.0492 -0.0823
 5979W        W22827   6.701  15.888   2.739  0.1408  0.0325  0.2191
 5980W        W22828  10.507  11.305   2.678  0.0491 -0.0348 -0.1553
 5981W        W22829  15.847   8.299   0.573  0.0386  0.0221  0.0569
 5982W        W22830   1.388   8.198  16.218  0.0602 -0.1140  0.1235
 5983W        W22831   4.312  12.790   2.540 -0.2507  0.0823  0.1202
 5984W        W22832   3.230   4.118  12.062 -0.2545 -0.0802 -0.1060
 5985W        W22833   8.855   1.779  15.128 -0.0286 -0.4630 -0.1966
 5986W        W22834   9.992  14.953   5.033 -0.0556  0.0932  0.0325
 5987W        W22835   8.095  12.007  15.643 -0.0145  0.3254  0.0576
 5988W        W22836   6.930  14.856   3.974  0.0821  0.2419  0.1166
 5989W        W22837   0.472   5.376  15.273  0.1217  0.0718  0.0174
 5990W        W22838  12.498   2.982   2.301 -0.0911 -0.0813  0.0527
 5991W        W22839  14.880   0.697   3.245  0.1843  0.0704 -0.1320
 5992W        W22840  11.144   7.574  16.120  0.1004  0.1419 -0.2683
 5993W        W22841  14.739   3.271   3.366 -0.1138  0.0902 -0.2355
 5994W        W22842  11.688   9.471  16.234  0.1436  0.1546  0.0006
 5995W        W22843   9.510  10.505  16.671 -0.1310  0.0186  0.1122
 5996W        W22844   4.585   0.310  14.370  0.2196 -0.1753 -0.0090
 5997W        W22845   7.496   7.274  15.485 -0.1259 -0.1566  0.2329
 5998W        W22846  12.167   9.032  14.548 -0.0387  0.0682 -0.0758
 5999W        W22847   4.492   8.974   4.494  0.0353 -0.0878 -0.0557
 6000W        W22848   7.819   9.396   2.302  0.1832 -0.1075 -0.2993
 6001W        W22849  16.102  12.758   5.121  0.1419  0.2455 -0.0778
 6002W        W22850   3.914   1.338  16.205 -0.2169  0.0294 -0.0243
 6003W        W22851   2.924  12.880  13.960 -0.0490  0.1936 -0.1340
 6004W        W22852   2.071   0.034  15.483  0.0619 -0.0115  0.1269
 6005W        W22853   8.817   2.325   3.535 -0.0981 -0.1635  0.2294
 6006W        W22854   3.166   5.701   1.223  0.0650  0.1389 -0.1901
 6007W        W22855  10.497   5.254   1.799  0.0286 -0.0503  0.0380
 6008W        W22856  10.087   2.513  17.625 -0.0681  0.0440 -0.2624
 6009W        W22857   6.239  10.440  12.365 -0.1783 -0.0748  0.1353
 6010W        W22858   1.429   6.597   2.783 -0.3178 -0.0713 -0.3269
 6011W        W22859   8.704   0.397   4.729 -0.2569 -0.1196  0.2899
 6012W        W22860   5.334  15.519  15.535 -0.0760 -0.1365  0.1789
 6013W        W22861  12.308   1.704   0.084 -0.1509 -0.0481  0.2732
 6014W        W22862   7.881   4.175  13.477 -0.1788  0.0272 -0.2683
 6015W        W22863   2.504   0.601  15.453  0.0336 -0.1670 -0.0842
 6016W        W22864   8.154   2.436   1.662 -0.0227  0.0956  0.1605
 6017W        W22865   4.087   9.171   1.255  0.0384  0.2804 -0.0348
 6018W        W22866   1.892  11.315  16.400  0.3482  0.0668  0.2433
 6019W        W22867  10.293   0.207  16.405  0.0041  0.0518  0.2567
 6020W        W22868   3.391  14.227   0.346 -0.1085 -0.3104 -0.0597
 6021W        W22869  13.031   3.667   3.257 -0.1042 -0.0429 -0.0797
 6022W        W22870   1.024   5.803   1.529 -0.2506 -0.5605  0.2230
 6023W        W22871  16.330   9.895  12.619  0.1274  0.1618 -0.1837
 6024W        W22872  12.212  15.932  13.613  0.0507  0.0138 -0.3458
 6025W        W22873  11.429   5.010  16.344  0.1776 -0.2235  0.3568
 6026W        W22874   7.262   5.622   1.806  0.3120  0.0871  0.1338
 6027W        W22875  12.407  10.760   0.129  0.2069  0.0997  0.2634
 6028W        W22876  14.010   7.879   5.123 -0.3968 -0.0720  0.1529
 6029W        W22877  14.922   3.092  14.873 -0.0730  0.1431  0.0977
 6030W        W22878   2.918   5.578  14.870 -0.0218  0.1323 -0.2814
 6031W        W22879  13.233  11.070   5.290  0.0595  0.0172 -0.1641
 6032W        W22880   4.367  12.160  15.374  0.0184  0.0057  0.1027
 6033W        W22881  11.930   2.072  15.407  0.1350  0.4134 -0.2394
 6034W        W22882   3.370  14.720  13.491 -0.2323 -0.0258  0.3438
 6035W        W22883   4.348   4.133  13.724  0.0738  0.0222  0.2610
 6036W        W22884  15.043   3.196  13.868  0.0196 -0.1143  0.1844
 6037W        W22885   9.835  11.256   5.163 -0.2890  0.2306  0.1970
 6038W        W22886   7.984   0.453   5.491  0.0539 -0.2713 -0.0319
 6039W        W22887   5.919   3.991  14.180 -0.0796  0.1594 -0.2265
 6040W        W22888   6.376  15.501  17.416 -0.1080  0.5043  0.0025
 6041W        W22889   1.837   9.447  16.089  0.0690  0.0132 -0.0097
 6042W        W22890   2.296   9.091   2.593  0.0462 -0.0403  0.1842
 6043W        W22891   2.229  15.938  15.071 -0.2353  0.3172  0.2816
 6044W        W22892   2.641   5.919   2.842  0.0060 -0.1725  0.1510
 6045W        W22893  11.826   8.887  16.247 -0.1483 -0.1399 -0.0922
 6046W        W22894  12.399  15.868  16.883 -0.1442  0.3475 -0.0649
 6047W        W22895   2.418   0.485  17.456  0.2576  0.0714  0.2517
 6048W        W22896  12.507  11.344  17.435 -0.1760  0.1975 -0.0339
 6049W        W22897   1.009   4.853   5.101 -0.1570  0.3031  0.1551
 6050W        W22898   2.706  15.355   2.744  0.2810 -0.0038 -0.1658
 6051W        W22899   6.858  15.142   1.938  0.1333  0.0064 -0.0159
 6052W        W22900   3.772   3.891   0.127  0.1774  0.3204  0.0096
 6053W        W22901   3.482   2.716   1.151  0.1138 -0.0455  0.0815
 6054W        W22902  15.730  13.283  13.317 -0.1509  0.2087 -0.1829
 6055W        W22903  10.937   9.459  13.926  0.2028 -0.1964 -0.1227
 6056W        W22904   7.243  11.950   4.964 -0.2498 -0.0432 -0.0038
 6057W        W22905   1.758  12.866   1.605  0.3147  0.1336 -0.2691
 6058W        W22906   7.561   4.326   3.156  0.1918  0.1078 -0.1483
 6059W        W22907  13.242   9.912   5.532  0.1691 -0.2901 -0.0577
 6060W        W22908  10.920  16.564  15.029  0.3075  0.0381 -0.1185
 6061W        W22909  14.826  10.324   3.138 -0.0030 -0.0855  0.0574
 6062W        W22910   2.557   1.178  13.143 -0.1637  0.0479 -0.1577
 6063W        W22911  15.615   5.646  14.770 -0.0665  0.0160  0.1387
 6064W        W22912  11.494   4.413  14.290 -0.1975 -0.1249  0.3622
 6065W        W22913  11.879  10.707  15.679 -0.1952  0.2121 -0.0442
 6066W        W22914   3.088   8.370   4.848  0.1260 -0.0743 -0.0775
 6067W        W22915   8.862   7.592  13.171 -0.0533  0.1212  0.0655
 6068W        W22916   6.221  11.039  15.088 -0.0243 -0.1373 -0.2778
 6069W        W22917  10.832  16.513   1.722 -0.0885 -0.1463  0.0395
 6070W        W22918   5.509  12.332   3.353 -0.1589 -0.2827 -0.3546
 6071W        W22919  15.043   4.091   5.528  0.1487  0.2091 -0.0871
 6072W        W22920  10.507  16.415   0.880  0.2230  0.0186  0.0434
 6073W        W22921   6.076   3.181  12.762 -0.0416 -0.1153 -0.1420
 6074W        W22922   9.252   5.376  15.225 -0.0293  0.1372 -0.0874
 6075W        W22923  15.956  10.215  13.858 -0.0287 -0.0302  0.2751
 6076W        W22924  10.245  13.091  14.938 -0.2173 -0.1432 -0.0436
 6077W        W22925   4.654   8.249   3.569 -0.0259  0.0025 -0.1847
 6078W        W22926  10.635  16.609   6.654  0.2820 -0.2257  0.3143
 6079W        W22927  16.311   2.526  16.748  0.2268  0.0409 -0.1552
 6080W        W22928   7.921   0.987   2.742 -0.0673 -0.0512  0.0032
 6081W        W22929  12.418   5.791  17.461 -0.0872  0.1531 -0.0476
 6082W        W22930   4.812  11.400   0.937 -0.0639 -0.1473  0.0468
 6083W        W22931  12.455  15.997  12.774 -0.0024  0.2744 -0.0635
 6084W        W22932   7.303   7.346   1.509 -0.0499 -0.0696 -0.1756
 6085W        W22933  14.691  14.021   5.177  0.1455 -0.0174  0.0482
 6086W        W22934   9.198   5.920  15.809  0.0200  0.1078 -0.1253
 6087W        W22935   1.779   9.412  15.502  0.0630  0.0973 -0.4823
 6088W        W22936   5.742   9.824   1.595 -0.2166 -0.0342 -0.2637
 6089W        W22937  16.441  12.434   1.578  0.2835  0.0412  0.1621
 6090W        W22938   7.861  11.895  12.725  0.0790  0.2101 -0.0506
 6091W        W22939  14.967   6.431   0.489  0.1004  0.4832 -0.2047
 6092W        W22940  12.257   5.878   4.857 -0.0674 -0.0997  0.1598
 6093W        W22941  13.781  11.083   3.313  0.1804  0.1416 -0.0545
 6094W        W22942   2.028   5.239   2.674  0.2775 -0.2728 -0.0837
 6095W        W22943   4.943   5.616  13.896 -0.1553 -0.1806 -0.1862
 6096W        W22944   7.363   7.856   0.190 -0.0088  0.0940 -0.2804
 6097W        W22945  14.354   9.929  11.499 -0.0214 -0.1118 -0.0857
 6098W        W22946  12.435   0.875  16.670  0.0374 -0.0070  0.1559
 6099W        W22947   1.496   6.841  14.414  0.1564 -0.2171 -0.2581
 6100W        W22948   1.356   8.421   3.499  0.0319 -0.2081 -0.0856
 6101W        W22949   5.704  13.370   2.078  0.1525 -0.0638 -0.1153
 6102W        W22950  13.379   8.300   1.530  0.1045  0.1824 -0.1622
 6103W        W22951   6.074  14.362  16.118 -0.2020 -0.0226  0.1155
 6104W        W22952   8.078   2.700   4.169 -0.0495  0.0197  0.1322
 6105W        W22953  13.857  16.585   3.284  0.0790  0.2254 -0.3082
 6106W        W22954   2.741  10.488   0.504  0.2244  0.0185  0.5174
 6107W        W22955  11.443  16.720   3.202 -0.0012  0.0103  0.1773
 6108W        W22956  15.692   0.119   2.536  0.1505 -0.1640 -0.3588
 6109W        W22957   1.047   5.362   0.619 -0.3720 -0.0597 -0.1547
 6110W        W22958   3.111  16.513   0.540  0.2685 -0.1284  0.0384
 6111W        W22959   2.257   0.019  17.357  0.3502 -0.0195  0.0588
 6112W        W22960  11.187   6.317   4.364 -0.0956  0.2837  0.0492
 6113W        W22961   9.890   0.209   3.856 -0.1256  0.0685 -0.0783
 6114W        W22962  14.473  11.006  14.464 -0.2401  0.0448  0.1617
 6115W        W22963   4.146  14.184  17.286 -0.1119 -0.2240 -0.0215
 6116W        W22964  13.826  14.369  12.965  0.1921  0.1661  0.0675
 6117W        W22965   0.519  10.712   3.735 -0.3336 -0.1571 -0.1287
 6118W        W22966   4.611   8.468   1.718 -0.1651 -0.2747 -0.0135
 6119W        W22967   0.804   3.668   0.352 -0.0945  0.0220  0.0531
 6120W        W22968  15.778   1.782   0.204  0.2374 -0.0250 -0.0550
 6121W        W22969  10.136   2.204  15.030  0.2194  0.2546  0.0785
 6122W        W22970   0.111   5.671   4.823 -0.0408 -0.0855 -0.2012
 6123W        W22971   5.202   1.237   3.779  0.0598 -0.1675 -0.3283
 6124W        W22972  11.069  13.351   0.850 -0.0779  0.1271  0.1591
 6125W        W22973  12.822  15.437   1.239 -0.2686  0.0467  0.0184
 6126W        W22974   0.838  11.498   0.006 -0.0284 -0.1783  0.0803
 6127W        W22975   3.732   0.886   0.223 -0.0340 -0.1717 -0.3498
 6128W        W22976   3.037  10.066  17.808  0.0273  0.1032  0.0852
 6129W        W22977   9.508   7.384   1.581  0.0855 -0.2857 -0.0226
 6130W        W22978   4.957  11.005   4.383  0.0863 -0.0515  0.1088
 6131W        W22979  14.210  13.339   5.531  0.0362 -0.1458  0.0441
 6132W        W22980  15.927   6.805   4.498 -0.0589 -0.1673  0.2430
 6133W        W22981   4.577  10.778   2.507  0.2249 -0.0741  0.3319
 6134W        W22982   6.910   0.466  13.649 -0.2299 -0.1590  0.1272
 6135W        W22983  15.624  10.587   5.553  0.7331 -0.0332  0.0231
 6136W        W22984   4.396   7.619  17.683  0.0201 -0.3736 -0.1782
 6137W        W22985   8.649   6.059   3.899  0.0288 -0.1055 -0.0717
 6138W        W22986   9.721   7.795   0.966  0.0873  0.2568 -0.0654
 6139W        W22987  15.133   7.829   0.655 -0.1399 -0.3117  0.1966
 6140W        W22988  11.482  14.577   0.736  0.0043 -0.1404 -0.2180
 6141W        W22989  16.490   6.784   3.697  0.2376  0.0710 -0.0683
 6142W        W22990   0.821  12.825   1.535 -0.3709 -0.0302  0.1316
 6143W        W22991  13.263   3.804   4.935 -0.1459 -0.0448 -0.1760
 6144W        W22992   4.118   1.354  17.388  0.1947  0.1190  0.1035
 6145W        W22993   4.304   2.508  14.864  0.2204  0.2089 -0.0373
 6146W        W22994   3.847   7.734   0.635 -0.0445 -0.1307  0.0421
 6147W        W22995  13.443   3.164  12.697  0.0384 -0.1980 -0.2551
 6148W        W22996  17.025  14.971  16.152  0.0310  0.3038 -0.1197
 6149W        W22997   8.411  15.996  16.785  0.1481  0.0928  0.1468
 6150W        W22998   3.842  14.838   1.326  0.0378  0.1140  0.0888
 6151W        W22999   6.395   1.864  13.253  0.0590 -0.0393 -0.1385
 6152W        W23000  11.689  16.534  16.632  0.0177  0.0007 -0.0057
 6153W        W23001   2.247  16.735  12.952  0.0271 -0.0323  0.2110
 6154W        W23002   5.639  15.776   5.610  0.1214  0.1162  0.0526
 6155W        W23003   8.726   6.255  12.495 -0.1983 -0.1123  0.1147
 6156W        W23004   1.959   0.108   2.400  0.1393 -0.0079 -0.0372
 6157W        W23005  11.640  16.822  12.211  0.2032  0.0238  0.3039
 6158W        W23006   3.129   8.023  14.202 -0.0180  0.3471 -0.2150
 6159W        W23007   9.484   5.709  16.943 -0.3102 -0.1313 -0.1597
 6160W        W23008   4.055  10.824  12.339 -0.1935  0.1687  0.0777
 6161W        W23009  13.336  10.825   1.952 -0.0481 -0.0721 -0.4804
 6162W        W23010   1.933   2.821  16.576  0.0612 -0.0314 -0.0560
 6163W        W23011   4.150   9.998   2.509  0.0612  0.0169  0.2255
 6164W        W23012  13.979  10.672  12.921  0.1721 -0.0924  0.0054
 6165W        W23013   6.264  11.321   3.225  0.2161 -0.0507  0.0065
 6166W        W23014   6.619   7.490  12.632  0.0805 -0.0565  0.0625
 6167W        W23015  11.437   6.205   3.893 -0.0924 -0.1565  0.0381
 6168W        W23016   2.503   4.184  17.314 -0.3282 -0.0738  0.0508
 6169W        W23017   6.453   4.181  12.932  0.0205  0.1459  0.0187
 6170W        W23018  13.866   3.960   1.698 -0.0174  0.0637  0.0764
 6171W        W23019   9.308   9.842   0.449  0.0582 -0.0244  0.2716
 6172W        W23020   3.075  10.816  15.310 -0.0234  0.2625  0.1183
 6173W        W23021  13.619  10.592   0.915  0.1120  0.1596  0.1974
 6174W        W23022  11.474   1.842   5.053 -0.1286 -0.3850  0.2502
 6175W        W23023   1.052   5.817   3.387  0.2931 -0.1788 -0.0105
 6176W        W23024   5.061  12.529   4.692  0.0084 -0.0688  0.1046
 6177W        W23025   9.548   8.148   2.889 -0.2812 -0.0843  0.0210
 6178W        W23026  15.135  16.021   2.564 -0.0931  0.2104  0.3925
 6179W        W23027   4.444  15.496   2.605 -0.0901  0.0195 -0.0857
 6180W        W23028  12.110  15.433   4.157  0.1797 -0.5352 -0.0653
 6181W        W23029  11.344  12.172  15.854 -0.1303  0.0389 -0.2058
 6182W        W23030  12.266   7.514   1.766  0.0534  0.0403  0.1457
 6183W        W23031   4.107  16.901   0.456 -0.0110  0.0622  0.1437
 6184W        W23032   9.139   2.625   5.139 -0.2400 -0.0872 -0.2033
 6185W        W23033   3.833   4.998   4.802  0.3498 -0.0020  0.0070
 6186W        W23034   0.603   9.002   0.001  0.0179  0.1325 -0.3107
 6187W        W23035  14.019  16.536   2.029 -0.0615 -0.1609  0.1533
 6188W        W23036   9.133   5.089  17.430 -0.1051  0.3822  0.1436
 6189W        W23037   8.417   7.528  13.415 -0.0602  0.2200  0.0098
 6190W        W23038  14.907  10.120  13.923 -0.2624 -0.0115 -0.1747
 6191W        W23039  16.435  10.821   5.616  0.1065  0.0254  0.1393
 6192W        W23040   7.065   5.551  11.536  0.1797  0.1378 -0.0010
 6193W        W23041   2.861   3.687   2.084 -0.1467  0.0433  0.0221
 6194W        W23042  12.585   6.498   1.439 -0.0745  0.1026  0.1844
 6195W        W23043  16.539   9.580  12.304 -0.0650  0.2593  0.4924
 6196W        W23044   0.817   5.709  15.410  0.3477 -0.1290 -0.0530
 6197W        W23045  12.798   4.355  16.491 -0.1468 -0.0097 -0.0541
 6198W        W23046   6.112   8.496   4.013 -0.3405 -0.1235  0.0683
 6199W        W23047  16.842  14.605  13.722 -0.0595  0.1780  0.0003
 6200W        W23048   2.304   4.565  14.058  0.0554 -0.0703  0.0204
 6201W        W23049  15.719   8.067   3.491  0.1637 -0.2817 -0.0007
 6202W        W23050   2.354   1.758   5.767 -0.1995 -0.0007  0.1920
 6203W        W23051   7.978   7.720   4.020  0.3421 -0.0382  0.0063
 6204W        W23052  12.834   7.052  14.668 -0.0488 -0.1771 -0.1666
 6205W        W23053  16.891  16.007   5.365 -0.1845 -0.1612 -0.2120
 6206W        W23054  14.580  14.166  16.580 -0.1829 -0.1505  0.1179
 6207W        W23055   4.359   8.406  16.356  0.1081 -0.1106 -0.0387
 6208W        W23056   1.555  14.262   5.329  0.0578 -0.0633  0.1852
 6209W        W23057  11.556   5.176   4.726 -0.2427 -0.0232 -0.2910
 6210W        W23058   7.256  15.166   6.128 -0.1584 -0.1440 -0.0307
 6211W        W23059  11.381   9.995  13.603  0.0977  0.4661 -0.5245
 6212W        W23060  16.022   9.195   1.603  0.0206 -0.1308  0.0185
 6213W        W23061   6.213   2.887  17.105 -0.0725  0.0085  0.0959
 6214W        W23062   4.797   1.083   4.686  0.0375 -0.0352 -0.0607
 6215W        W23063  16.200  14.628   3.375 -0.0450 -0.2129 -0.2577
 6216W        W23064   1.350   6.652   3.297 -0.0183 -0.4453 -0.3890
 6217W        W23065   7.703  10.767  15.502  0.1796 -0.0566  0.2611
 6218W        W23066   2.261   5.732   3.078  0.0466  0.0510 -0.0657
 6219W        W23067   5.102  11.023  16.066  0.3395 -0.0858  0.0047
 6220W        W23068   7.833   1.724   3.841  0.1294 -0.0691  0.1405
 6221W        W23069  15.044  13.610   3.877  0.0734 -0.0661  0.1911
 6222W        W23070  12.425   0.543  13.074  0.0801 -0.1807 -0.0746
 6223W        W23071   7.430   3.136   5.147  0.4984  0.4502  0.1873
 6224W        W23072  10.403   4.433   0.759  0.0034  0.0309  0.2122
 6225W        W23073   4.346  16.813  17.834  0.0490 -0.0340 -0.0214
 6226W        W23074  15.670   8.974  17.594 -0.1786 -0.2511 -0.1076
 6227W        W23075   7.315   5.618   2.909 -0.2986 -0.0171 -0.1403
 6228W        W23076  11.861   0.461   1.469  0.3336 -0.1502 -0.3706
 6229W        W23077   2.175   9.736   0.845  0.3622  0.0703  0.2404
 6230W        W23078  11.219  13.276   5.654  0.2383 -0.1455  0.3617
 6231W        W23079  13.819  10.262   3.151 -0.0475  0.4888  0.1026
 6232W        W23080   6.740  14.391  15.398 -0.2565 -0.1024  0.1459
 6233W        W23081   4.565   7.842  13.121  0.3029 -0.0444  0.0155
 6234W        W23082  15.179  15.409   3.200  0.0167  0.2208 -0.1339
 6235W        W23083  12.447   1.026   3.398  0.2795  0.2292  0.4039
 6236W        W23084   0.441   3.580   5.395 -0.0182  0.1620  0.0874
 6237W        W23085   1.026  14.429   5.186  0.0575  0.3056 -0.0701
 6238W        W23086   0.537   7.247  16.120  0.5287 -0.1280  0.1769
 6239W        W23087   7.897   3.919  14.973  0.0819 -0.1507 -0.1432
 6240W        W23088   1.019  15.654  17.438 -0.1831 -0.0466 -0.1036
 6241W        W23089  13.199  13.905  15.359 -0.1717 -0.2863  0.0836
 6242W        W23090  14.429  11.373  14.833  0.0245 -0.0761  0.1168
 6243W        W23091   1.906   8.214   0.812 -0.1515 -0.2284 -0.1156
 6244W        W23092   3.558   1.998  12.755 -0.1570 -0.0210  0.2053
 6245W        W23093  11.321  11.686  13.143  0.2928 -0.1109 -0.1268
 6246W        W23094  10.077   3.080  12.191 -0.3376 -0.0485  0.2450
 6247W        W23095   3.185  16.876  15.354 -0.5411  0.1096 -0.1466
 6248W        W23096  12.133   0.116  12.922  0.2742 -0.0526  0.1554
 6249W        W23097  16.118   8.674  15.159 -0.1421  0.0634 -0.1512
 6250W        W23098  14.222  13.560  12.528  0.1796 -0.2174  0.1526
 6251W        W23099   6.107   0.662  16.507  0.0594 -0.0710  0.1575
 6252W        W23100  16.658   5.956   2.504  0.1101  0.1257  0.0164
 6253W        W23101  14.158   9.608  14.525  0.0569 -0.1881  0.1554
 6254W        W23102  12.823  12.945   1.230 -0.0908 -0.1666  0.0160
 6255W        W23103   7.484  14.656   3.119 -0.0611  0.1941 -0.2095
 6256W        W23104  16.409   9.938  16.286  0.3037  0.0141  0.1198
 6257W        W23105   6.177   5.184   4.845  0.2682 -0.1741 -0.0493
 6258W        W23106  15.898   4.907   2.571 -0.0343  0.2189  0.1195
 6259W        W23107   8.937  15.846   1.510 -0.1502 -0.0280 -0.2263
 6260W        W23108  10.628   5.723   1.996  0.2615 -0.0815  0.4592
 6261W        W23109  12.548   3.472   3.436  0.1255 -0.0527 -0.0933
 6262W        W23110   3.984   6.587  14.941  0.1330 -0.0026  0.0699
 6263W        W23111   2.980  15.787   4.352 -0.4083 -0.2954  0.0805
 6264W        W23112   7.888  13.787   2.770  0.1146  0.1830  0.0299
 6265W        W23113   9.985  10.874  16.026  0.2745  0.1376 -0.1662
 6266W        W23114   4.631   2.524   1.376  0.3285  0.3492  0.1197
 6267W        W23115   8.954   0.706   1.916  0.0997 -0.1735  0.3040
 6268W        W23116  15.349  14.748  15.172  0.0496  0.1922  0.1122
 6269W        W23117  11.613  14.505  15.394  0.3189  0.1277  0.0028
 6270W        W23118  14.296   7.053   4.114  0.1094 -0.0976 -0.2237
 6271W        W23119   7.988   6.023   2.406 -0.0301  0.0189 -0.0387
 6272W        W23120   7.095   5.366  16.173  0.0548 -0.0641  0.2309
 6273W        W23121   8.840   6.641  15.634 -0.1025 -0.0872 -0.1232
 6274W        W23122   2.804   9.089   0.137  0.1842  0.0003 -0.2681
 6275W        W23123   7.733   8.460   3.340 -0.0237  0.2262  0.2445
 6276W        W23124  15.731   6.911   1.297  0.0970  0.0153 -0.1743
 6277W        W23125   5.876   8.638   0.702 -0.4339  0.1275 -0.0629
 6278W        W23126  11.034  11.546  17.442  0.1999 -0.4194 -0.1572
 6279W        W23127   9.924  11.187  13.355  0.1323 -0.0991 -0.0721
 6280W        W23128  10.077  14.120   5.542  0.0068 -0.0313 -0.0287
 6281W        W23129  16.501   6.248   3.818 -0.1680  0.1520 -0.1095
 6282W        W23130  13.979   4.612  13.945 -0.1873  0.0665  0.2536
 6283W        W23131   5.057  16.682   3.768 -0.0324  0.4768 -0.2586
 6284W        W23132   5.590  11.234   1.252  0.0356 -0.0947 -0.2008
 6285W        W23133  10.747   8.037   5.601 -0.0560  0.0448 -0.1178
 6286W        W23134  14.434   5.451   3.802 -0.2999 -0.1814  0.1694
 6287W        W23135   9.500   4.638   4.516  0.1811 -0.1516 -0.1786
 6288W        W23136   7.696  11.297  17.128  0.2262  0.1330  0.1466
 6289W        W23137  12.029  10.233  15.702 -0.1349  0.3292 -0.0903
 6290W        W23138   7.044   3.244   3.069  0.0054 -0.0520 -0.2135
 6291W        W23139  16.100  17.052  15.525 -0.2363  0.1279  0.3284
 6292W        W23140  16.544   6.202   4.323  0.1014  0.2009  0.1294
 6293W        W23141   4.922   7.884   5.047 -0.1454  0.2353  0.0814
 6294W        W23142  12.757  16.270  16.095 -0.2678 -0.3447 -0.0095
 6295W        W23143  16.371   3.497  15.366 -0.0761  0.0625  0.2674
 6296W        W23144   4.125  10.475   2.317  0.0674  0.3173  0.2063
 6297W        W23145  13.613   8.648   2.457  0.1451  0.1472  0.1981
 6298W        W23146  15.402   7.295  16.149 -0.0003 -0.3717  0.1844
 6299W        W23147  11.743   4.067   0.725 -0.0205 -0.1172  0.0434
 6300W        W23148  15.966  14.505  13.820 -0.0707 -0.0753  0.2029
 6301W        W23149   8.157  13.618  17.217 -0.0712 -0.1900 -0.2971
 6302W        W23150  11.148   1.608   5.360 -0.1722  0.2398 -0.0845
 6303W        W23151   0.434   0.795  12.125 -0.2039 -0.0815  0.1069
 6304W        W23152  14.025  16.725  15.236 -0.2349 -0.4373 -0.1069
 6305W        W23153   1.798   3.256  17.731  0.1620 -0.1434 -0.2270
 6306W        W23154  16.531   1.212   4.861 -0.0616  0.0168  0.1604
 6307W        W23155  13.901  14.958  13.615  0.0039  0.1677 -0.0408
 6308W        W23156  13.457   0.379   5.010 -0.2975  0.0007  0.0837
 6309W        W23157  15.402   4.950   2.393  0.0387 -0.1111  0.3602
 6310W        W23158   6.377  12.215  14.944  0.1523  0.0008  0.0334
 6311W        W23159  11.669   1.019   1.385  0.0368 -0.1552  0.1228
 6312W        W23160   0.247  13.147   4.888 -0.1673 -0.0457 -0.0808
 6313W        W23161  11.969  11.124   2.914  0.1459  0.1331  0.0953
 6314W        W23162   4.962   9.879  15.645 -0.0468 -0.1371 -0.1958
 6315W        W23163   8.417   3.300  15.959  0.0262  0.2143  0.1838
 6316W        W23164  13.607   0.695   1.707 -0.1122 -0.0832  0.0314
 6317W        W23165  16.234  10.607   0.141  0.1090  0.0629  0.1323
 6318W        W23166  11.661  14.604   2.174 -0.1024 -0.0141 -0.1160
 6319W        W23167  10.448  11.027  14.628  0.5146  0.0130  0.0169
 6320W        W23168   9.278   2.987   3.986 -0.2370 -0.0958  0.0761
 6321W        W23169   3.985   7.942   1.959 -0.2168 -0.1970  0.0790
 6322W        W23170   8.576   3.303   3.253  0.2318 -0.1706  0.1293
 6323W        W23171   6.937   4.657   1.985 -0.0516 -0.2834 -0.3479
 6324W        W23172   6.687   6.965   0.132 -0.2290 -0.1307  0.0792
 6325W        W23173   3.209   2.218   0.551 -0.0697  0.1064  0.0789
 6326W        W23174   8.691   4.066  12.470 -0.1282  0.1377 -0.1363
 6327W        W23175   7.807  10.014  16.510 -0.2628  0.1566  0.0799
 6328W        W23176  12.973   7.077  16.312 -0.0669 -0.0306 -0.0435
 6329W        W23177   8.843   1.241  15.858 -0.0091 -0.0319  0.3247
 6330W        W23178  16.140   8.796  14.695  0.0317  0.1469 -0.1075
 6331W        W23179   5.998  13.703  16.177 -0.4096 -0.2050 -0.0289
 6332W        W23180   2.086   0.239  14.477  0.1091  0.1822  0.1715
 6333W        W23181  11.988  13.577   2.000  0.2575 -0.0708 -0.2023
 6334W        W23182   8.741   3.501  12.218  0.1819 -0.0547 -0.2934
 6335W        W23183   8.481   2.792   2.763 -0.1034 -0.0157 -0.1668
 6336W        W23184  10.368  10.045  16.873  0.2573  0.1881  0.0715
 6337W        W23185  14.363   2.902   1.756  0.0528 -0.1775 -0.1556
 6338W        W23186   2.293  16.200  17.128  0.1822 -0.1943 -0.1773
 6339W        W23187   4.898   6.060  13.630 -0.1003 -0.1985 -0.0969
 6340W        W23188   3.283  16.945   3.949  0.0048 -0.2522 -0.3196
 6341W        W23189   4.533   0.600   2.963 -0.0300  0.0159 -0.0684
 6342W        W23190   0.251  16.678  15.908  0.2547  0.2872  0.0532
 6343W        W23191  12.311  16.005  17.393  0.1538  0.1725 -0.1198
 6344W        W23192   8.786  13.325  13.342  0.2374 -0.0788  0.1227
 6345W        W23193   3.183   1.718   0.543 -0.1807 -0.2185 -0.0597
 6346W        W23194   2.641   0.135  14.461 -0.0176 -0.1063  0.2340
 6347W        W23195  11.089   7.851  15.698 -0.0672  0.0066 -0.1352
 6348W        W23196   1.968   4.615  13.059 -0.0739  0.0619 -0.1694
 6349W        W23197   0.870   7.237   5.653 -0.1882  0.0973 -0.0495
 6350W        W23198  14.354  11.402  13.773 -0.2151  0.1038 -0.3677
 6351W        W23199   3.633  15.747  17.842 -0.2463  0.0012  0.2281
 6352W        W23200   5.719   3.401  12.491 -0.0759 -0.0816 -0.1441
 6353W        W23201   3.447  16.290   1.696 -0.2456  0.1774  0.2189
 6354W        W23202   2.968   3.697   3.060  0.1235  0.0507  0.0301
 6355W        W23203  12.105  14.909  13.574 -0.0086  0.1263 -0.0234
 6356W        W23204   9.934   9.122   4.495  0.3922 -0.2684 -0.1820
 6357W        W23205   2.692   2.236  15.552 -0.0265  0.1023  0.1535
 6358W        W23206   5.473   5.016   5.821 -0.0001  0.0199 -0.2166
 6359W        W23207   3.188  10.368   2.802  0.3951  0.3539  0.1902
 6360W        W23208   4.653  13.874  12.021  0.1513  0.2352  0.1955
 6361W        W23209  12.139  12.591  17.752  0.0792 -0.2421 -0.3810
 6362W        W23210   3.667   2.887  13.121 -0.1037  0.0396  0.1068
 6363W        W23211  11.065  13.890  14.815  0.1233 -0.2972 -0.3361
 6364W        W23212   9.173  14.728  12.682  0.0627  0.3398  0.2111
 6365W        W23213   0.353  13.643   5.082 -0.1692 -0.1763  0.1190
 6366W        W23214   4.175   4.178   1.600  0.2439  0.1436 -0.1647
 6367W        W23215  16.763  13.894  17.207 -0.0308  0.1085  0.3116
 6368W        W23216   2.122  12.148   0.938  0.0169 -0.2001  0.1833
 6369W        W23217   0.185   5.583   1.300 -0.3298 -0.0269  0.0259
 6370W        W23218  16.808  16.799  13.837 -0.0532 -0.0700 -0.3577
 6371W        W23219  14.981  11.633   2.513 -0.0205 -0.0162  0.1040
 6372W        W23220   1.019  12.182  14.898  0.1833 -0.1095 -0.0610
 6373W        W23221  11.780   9.293   3.081 -0.0161 -0.3600 -0.1862
 6374W        W23222  10.309   0.061  14.461  0.2080 -0.1136 -0.0324
 6375W        W23223  15.762  13.702   4.998  0.1826  0.0242  0.0712
 6376W        W23224   8.849  12.102   4.079  0.2448 -0.1052  0.0309
 6377W        W23225   7.337  12.758  16.530 -0.1980  0.2735 -0.2329
 6378W        W23226  14.904  13.093  17.588  0.1339 -0.0649 -0.0590
 6379W        W23227   0.901  11.343  17.331 -0.0407  0.0133 -0.2161
 6380W        W23228  10.374   5.284  12.927 -0.1503 -0.1336  0.1203
 6381W        W23229  11.604   1.535  12.770 -0.2643  0.0518 -0.0507
 6382W        W23230   2.374   8.437   4.063 -0.0967 -0.0601  0.2303
 6383W        W23231   6.567  14.973  13.904  0.1858 -0.1555  0.2289
 6384W        W23232   7.764  16.530  16.391 -0.2493  0.4123 -0.0720
 6385W        W23233   2.905  10.273   2.384  0.1849 -0.1806 -0.1534
 6386W        W23234   6.621   6.850  13.314 -0.1217  0.0347 -0.0260
 6387W        W23235   2.162  16.802  16.855  0.0637  0.1798  0.0701
 6388W        W23236   4.126  15.073   2.739  0.2024  0.0906  0.1760
 6389W        W23237   1.373  11.833  12.853  0.0379  0.0314 -0.1571
 6390W        W23238  13.191   9.297   4.672  0.1340 -0.0337 -0.0031
 6391W        W23239  15.579  10.083   2.267 -0.2752 -0.0900  0.2133
 6392W        W23240  14.934   2.193   5.638 -0.3537 -0.2373  0.3350
 6393W        W23241   3.604   0.736   3.965  0.0458 -0.0074  0.1604
 6394W        W23242  12.639   3.756  11.789  0.0732  0.2344  0.2765
 6395W        W23243   2.996   0.342   2.686  0.1318  0.1802  0.0753
 6396W        W23244   4.801   9.588  13.749 -0.3126 -0.4699 -0.0682
 6397W        W23245  13.359   0.147  13.122  0.0485  0.0033  0.2951
 6398W        W23246   2.372   5.158  17.351  0.0705 -0.0760 -0.2434
 6399W        W23247  12.478   1.737  16.988 -0.0298 -0.0970 -0.3248
 6400W        W23248   4.235   0.332   2.149 -0.0819  0.1060  0.0666
 6401W        W23249  16.659   7.796  15.909  0.0107 -0.0630 -0.0431
 6402W        W23250  12.316   0.279  14.171 -0.1777 -0.0384 -0.0190
 6403W        W23251  16.495  12.560  16.581 -0.1157 -0.0555 -0.2382
 6404W        W23252  11.105  15.387   2.181 -0.1144  0.2116  0.1185
 6405W        W23253  16.887  12.965   1.454 -0.3008 -0.0496 -0.1523
 6406W        W23254  11.437   5.660   1.828  0.0803 -0.2052 -0.0336
 6407W        W23255  10.795  15.371  12.334  0.0377 -0.0030 -0.0500
 6408W        W23256   1.173   2.377  12.563  0.0824  0.2038 -0.0388
 6409W        W23257   4.414  13.182  13.142 -0.0423  0.3346  0.0344
 6410W        W23258   5.946  10.598  15.722  0.0976 -0.1017 -0.1184
 6411W        W23259   6.317  11.736  11.301  0.0870  0.1604  0.2249
 6412W        W23260   2.521  12.216   1.227  0.4104 -0.3698  0.2526
 6413W        W23261   7.591   7.138  15.031  0.3349 -0.5866 -0.0542
 6414W        W23262   9.405   9.136  14.682  0.0139  0.3236  0.1134
 6415W        W23263  13.334  15.199   1.840  0.1463  0.1924 -0.3484
 6416W        W23264   8.534   3.637   0.150 -0.0325 -0.2596 -0.2849
 6417W        W23265  15.620   4.119   5.755 -0.0150 -0.0431 -0.2084
 6418W        W23266   5.628  17.019   3.835  0.3110 -0.1029 -0.0052
 6419W        W23267   6.272  11.720  17.530  0.2536  0.2347  0.1603
 6420W        W23268   9.868   6.163   3.575 -0.1026 -0.2540 -0.1664
 6421W        W23269  14.879   4.605   5.672  0.2740  0.0308  0.0186
 6422W        W23270  13.994   9.892  12.929  0.2589 -0.1038  0.0930
 6423W        W23271  15.720   8.367  16.604 -0.0267  0.0598 -0.2019
 6424W        W23272  12.866   6.831   2.874  0.2374 -0.1510  0.0833
 6425W        W23273   4.723  13.845   5.169  0.1758  0.1437  0.0642
 6426W        W23274   0.991   2.568  16.304 -0.1769  0.1498 -0.1469
 6427W        W23275   5.746  15.317  16.341 -0.0383  0.1637 -0.2393
 6428W        W23276   1.176   1.993   1.650  0.0899  0.3168 -0.1578
 6429W        W23277   6.086   6.291  15.880 -0.0311  0.0584 -0.1086
 6430W        W23278  12.223   5.382  14.353  0.0842 -0.2524 -0.4015
 6431W        W23279   5.547   3.082  12.943  0.2597  0.0267 -0.0556
 6432W        W23280   0.721  15.650  12.719 -0.1719 -0.2691  0.0193
 6433W        W23281  16.139  10.898  15.084 -0.2048  0.2249  0.1463
 6434W        W23282  10.058   5.740   1.227 -0.0756  0.0520 -0.0625
 6435W        W23283   7.431  12.876  13.483  0.0050 -0.1764 -0.2467
 6436W        W23284   0.406   8.541   5.488  0.0498 -0.0562  0.1640
 6437W        W23285   3.313  15.002   3.898 -0.2049 -0.0150 -0.1611
 6438W        W23286  16.707   3.936   3.466 -0.3341 -0.1984  0.2737
 6439W        W23287   5.384   8.583  12.256 -0.0852 -0.0031 -0.2750
 6440W        W23288  13.041   7.759   1.412 -0.0772 -0.2099 -0.2075
 6441W        W23289   5.165   4.391  17.584 -0.1378 -0.2078 -0.2573
 6442W        W23290   9.324  17.065   1.751 -0.0196 -0.1986  0.4018
 6443W        W23291  12.138   5.202   6.408 -0.1868  0.0377 -0.1506
 6444W        W23292  17.047  15.231   3.385  0.2647 -0.0288  0.0288
 6445W        W23293   5.285   8.141  14.901 -0.5520 -0.1175  0.3498
 6446W        W23294   5.315  13.045   2.193  0.0243 -0.3974 -0.1391
 6447W        W23295   3.982  17.043   5.020 -0.0771 -0.1027 -0.1446
 6448W        W23296   7.058   2.630   0.662 -0.0590  0.0191  0.1773
 6449W        W23297   4.121   7.149  14.930 -0.0128  0.1018  0.1874
 6450W        W23298  15.405  11.290   2.146 -0.3900 -0.0830  0.1144
 6451W        W23299   6.164  13.079  17.313  0.3839 -0.1250 -0.0601
 6452W        W23300  15.002   2.603   4.374  0.1563 -0.2747 -0.0039
 6453W        W23301   5.047   8.187   0.985 -0.3228  0.0633  0.1648
 6454W        W23302   2.055   9.436  17.485  0.0205  0.0988 -0.1226
 6455W        W23303  14.533   2.850   4.313 -0.1727  0.0565  0.0399
 6456W        W23304   2.088  11.386  15.146  0.2438  0.3397 -0.4578
 6457W        W23305  15.778   8.290   1.695  0.0646 -0.0278  0.0665
 6458W        W23306  11.418   5.574   0.354 -0.0942 -0.3260  0.2774
 6459W        W23307   2.230   9.728  15.678 -0.4013  0.2476  0.1422
 6460W        W23308  13.765   9.756   2.426  0.0106 -0.2064  0.1890
 6461W        W23309   1.605   1.745   2.557 -0.0194  0.1635 -0.1486
 6462W        W23310   4.709   7.979   1.930  0.0627 -0.0470 -0.0066
 6463W        W23311  14.267   8.369   1.442 -0.1111  0.2827 -0.1458
 6464W        W23312   3.525  11.437  13.547 -0.1389  0.3960 -0.2583
 6465W        W23313  11.176   1.713  16.517  0.0256 -0.1036  0.1044
 6466W        W23314   7.866  14.990   1.885 -0.1998 -0.0076 -0.0295
 6467W        W23315  12.159   8.117   1.621  0.0589  0.2439 -0.5176
 6468W        W23316   5.342  11.614   0.095  0.0315 -0.2076  0.1905
 6469W        W23317  12.051  16.307  12.549 -0.0956 -0.0830  0.0390
 6470W        W23318  14.015   7.285   1.511  0.0941  0.0075 -0.1240
 6471W        W23319   6.102   5.846  17.038 -0.0479 -0.2655  0.0198
 6472W        W23320   9.590  14.720   4.366  0.0324  0.0067 -0.0728
 6473W        W23321  16.995  11.022  11.921 -0.2243  0.1168 -0.1294
 6474W        W23322  11.968   7.950   4.394 -0.0493  0.1140 -0.0107
 6475W        W23323   4.468   4.428   3.643 -0.1453 -0.4284 -0.1793
 6476W        W23324   6.623  10.560   3.931  0.0635 -0.1747  0.1951
 6477W        W23325  10.622   1.105  12.826  0.0872  0.1080  0.0071
 6478W        W23326  15.576   6.809  15.937  0.1477  0.1018 -0.0470
 6479W        W23327   4.988  16.412  16.302  0.0987  0.0534  0.0818
 6480W        W23328   1.376   6.390  16.913  0.1768 -0.0151 -0.0944
 6481W        W23329   2.842   1.166  17.834  0.1060 -0.1946 -0.3825
 6482W        W23330   4.663  10.777  12.180 -0.1090 -0.0483  0.0731
 6483W        W23331  12.518  12.830  14.652  0.3550 -0.1204 -0.0241
 6484W        W23332   9.233   8.138   0.978  0.0114 -0.2209  0.1270
 6485W        W23333   8.601   6.565   4.961  0.1838 -0.0783 -0.2154
 6486W        W23334   9.903   7.453  13.730 -0.3657  0.0575 -0.1694
 6487W        W23335   2.934   8.388  13.665 -0.0476 -0.3365  0.1769
 6488W        W23336  14.099   9.427  12.574  0.1949  0.1119  0.0380
 6489W        W23337   4.934   1.767  12.673 -0.0946  0.1110 -0.1715
 6490W        W23338   2.618   6.882   2.733  0.2058  0.0016 -0.4013
 6491W        W23339   7.204   9.579  12.638 -0.1026 -0.0272  0.1975
 6492W        W23340  12.528  16.380   1.090  0.3754 -0.2562 -0.1332
 6493W        W23341  12.535  11.499   0.530  0.0787 -0.2369  0.2309
 6494W        W23342   8.602   3.017  15.545 -0.1148 -0.1776 -0.1595
 6495W        W23343   4.560  15.294   4.682  0.1648 -0.0506  0.2042
 6496W        W23344  15.438  15.829   1.866  0.1578  0.0486 -0.1109
 6497W        W23345   0.977  15.753  13.197  0.1489  0.2896  0.1057
 6498W        W23346   5.722  11.083  16.599 -0.2809  0.0150 -0.1278
 6499W        W23347   9.134   3.868  15.625  0.2334 -0.1134 -0.1344
 6500W        W23348   1.405   8.145   2.034 -0.4617 -0.1104 -0.2400
 6501W        W23349   1.400   3.954  13.325 -0.0629 -0.1110 -0.0112
 6502W        W23350   7.810   6.649   1.808  0.0187  0.4823  0.3030
 6503W        W23351   6.313   3.895  15.857  0.1543  0.0880 -0.1011
 6504W        W23352  13.665  15.921  17.488  0.1849  0.2433  0.0284
 6505W        W23353   6.656   3.839   4.009 -0.2294  0.0550 -0.1424
 6506W        W23354  11.152   5.917   3.595  0.1280  0.2422 -0.2372
 6507W        W23355   5.391  16.531   1.407  0.0922 -0.2426  0.1340
 6508W        W23356   7.512  15.936   1.381  0.0832 -0.0702 -0.4069
 6509W        W23357  11.992  15.318   2.334 -0.0418  0.0764  0.0139
 6510W        W23358   5.984   0.196  16.314 -0.0387  0.0757 -0.1870
 6511W        W23359  16.400  10.077   3.695  0.0337 -0.1007 -0.3170
 6512W        W23360   6.804  15.645  14.927  0.1406  0.1275  0.1732
 6513W        W23361   8.632  15.575  15.387 -0.1154  0.2567  0.2019
 6514W        W23362  14.475   5.571   0.405  0.0512 -0.0090  0.1021
 6515W        W23363   8.479   3.963   4.142  0.0187  0.2218  0.0899
 6516W        W23364   1.197  10.042   2.089  0.1378 -0.1293  0.1728
 6517W        W23365   6.067   0.492  14.157 -0.1796 -0.0383  0.0593
 6518W        W23366   8.473   7.780  13.868 -0.2023 -0.1053 -0.0837
 6519W        W23367   8.813  12.490  16.868  0.1271 -0.4705 -0.2972
 6520W        W23368  13.566  13.351   1.706 -0.0101 -0.1031  0.1025
 6521W        W23369   8.832  15.682  14.752 -0.0402 -0.0392 -0.0357
 6522W        W23370  11.819   9.217  14.845  0.2041  0.0251  0.1159
 6523W        W23371  15.595   1.041  12.312  0.0912 -0.0096 -0.1234
 6524W        W23372  14.694   4.600  12.727 -0.1518  0.2887  0.0190
 6525W        W23373  11.197  15.589   3.741  0.0144  0.0261  0.0711
 6526W        W23374  10.704   2.390   1.665  0.0088  0.2987  0.0931
 6527W        W23375  14.487  10.589   5.440  0.0261 -0.1285 -0.1317
 6528W        W23376  10.408  13.188  12.786 -0.0077 -0.2441  0.0374
 6529W        W23377   8.633  14.338  13.402 -0.1266  0.2460  0.1758
 6530W        W23378   8.707  16.330   1.294 -0.3165 -0.0982  0.1056
 6531W        W23379  13.314   1.608  13.620 -0.2714 -0.0307  0.0836
 6532W        W23380   7.140  10.867   1.244  0.0422  0.0573  0.0361
 6533W        W23381   1.185  11.903  15.267 -0.0241  0.0931  0.0068
 6534W        W23382   3.555  12.222   5.852 -0.0419  0.1925  0.1601
 6535W        W23383  15.160   1.822   1.207 -0.2424 -0.1957  0.1664
 6536W        W23384   9.890  16.789   0.104  0.5293 -0.1131  0.0613
 6537W        W23385   2.627  14.043  16.540 -0.1551  0.0243 -0.1366
 6538W        W23386   2.253  15.735  13.417  0.0433  0.2290 -0.1202
 6539W        W23387  10.046  13.741   3.045  0.2097  0.1214 -0.1019
 6540W        W23388  12.922   1.301  13.347  0.2308  0.0485 -0.2649
 6541W        W23389   6.284   5.839  15.706  0.2353  0.2767  0.2818
 6542W        W23390   9.313  16.247  15.197  0.3939 -0.0620  0.2932
 6543W        W23391  16.092   6.609   5.024  0.2514 -0.1517 -0.1280
 6544W        W23392  15.201  15.241  17.820 -0.1646  0.3486 -0.0713
 6545W        W23393  15.774   2.747  12.206 -0.0222 -0.0283  0.1575
 6546W        W23394  12.759  16.980   1.903 -0.4094 -0.0016  0.1375
 6547W        W23395   6.156   9.436  13.821  0.0100 -0.4579 -0.2324
 6548W        W23396  13.552   7.288   2.459  0.0245  0.1631  0.2901
 6549W        W23397   4.252   6.929   3.466 -0.0104  0.1143 -0.0745
 6550W        W23398   9.236   5.782   1.136 -0.0309  0.0766 -0.2197
 6551W        W23399   6.018   3.653   1.602 -0.1038  0.0123  0.0550
 6552W        W23400   6.958   1.943   5.510  0.1886  0.0732  0.1021
 6553W        W23401   6.619  12.697   5.241  0.0702  0.1227  0.1648
 6554W        W23402  12.925   8.373   5.437  0.0632  0.0842  0.1692
 6555W        W23403   2.632   6.428  14.263 -0.1194 -0.1291  0.1071
 6556W        W23404   7.352   7.805  14.493 -0.0669 -0.1596  0.2065
 6557W        W23405   6.816  11.212  15.841  0.1963  0.0988  0.1805
 6558W        W23406   0.324  11.264   0.143 -0.1798 -0.0210  0.0312
 6559W        W23407   5.713  14.493   5.530  0.0305  0.1608  0.1579
 6560W        W23408  10.306   4.627   5.137 -0.1698 -0.0584  0.0044
 6561W        W23409   6.853  16.629  14.769 -0.0896 -0.1672 -0.1928
 6562W        W23410   6.460   3.584  14.681 -0.2524 -0.3415 -0.5870
 6563W        W23411   7.607   2.462  16.399 -0.0127  0.0079 -0.1473
 6564W        W23412   3.835  15.951  12.761  0.0453 -0.3870  0.2550
 6565W        W23413  12.238   5.200  16.756  0.0007 -0.1397  0.0407
 6566W        W23414   8.585  11.458  13.283  0.4323  0.2659 -0.2830
 6567W        W23415   2.196   4.679  17.454 -0.0421  0.1805 -0.0512
 6568W        W23416   7.815   0.139  12.007 -0.2401 -0.1363  0.2863
 6569W        W23417   8.929  15.993   1.015 -0.1062  0.1841 -0.0066
 6570W        W23418   2.884   0.363   0.484  0.0782  0.0200  0.0106
 6571W        W23419   6.256  11.139   1.685 -0.0530  0.1528  0.0074
 6572W        W23420   1.676   9.801   4.570 -0.1327  0.4777 -0.0545
 6573W        W23421  12.783   3.325   4.485  0.1860 -0.0088  0.0138
 6574W        W23422  15.953  11.065   5.663  0.3319 -0.0749 -0.1869
 6575W        W23423   3.713   2.212   2.498  0.0275 -0.3096 -0.1781
 6576W        W23424   3.958  16.064  13.756  0.0862  0.0855 -0.0702
 6577W        W23425  13.167   7.662   2.356 -0.2998 -0.1033 -0.0172
 6578W        W23426   2.658   3.524   5.699  0.2818 -0.1196 -0.1486
 6579W        W23427   7.713   9.451  16.460 -0.0940 -0.1300 -0.1232
 6580W        W23428   0.230   9.989  16.408  0.0278 -0.0161  0.1467
 6581W        W23429   1.337   5.505  13.327  0.1448  0.0834 -0.0007
 6582W        W23430  10.490   0.770  12.455 -0.0811 -0.0797 -0.0206
 6583W        W23431   3.906   6.114  12.707 -0.0599  0.2030  0.0959
 6584W        W23432   7.352   6.980   0.147  0.0668  0.1114  0.0430
 6585W        W23433  12.768  11.371   5.336  0.1042 -0.0707  0.1871
 6586W        W23434   9.661   9.507  13.506  0.0800 -0.0565 -0.0635
 6587W        W23435   7.442  10.061   0.678  0.0180 -0.1253 -0.1483
 6588W        W23436   7.363  16.746   1.829 -0.0934  0.1038  0.0793
 6589W        W23437  10.609  16.727   1.325  0.0034  0.0452 -0.1934
 6590W        W23438   9.464   1.485   2.067  0.2904  0.1204  0.0923
 6591W        W23439   3.100   6.160   3.114 -0.1453  0.0051 -0.0364
 6592W        W23440   4.911  13.735   6.024  0.1069  0.1255 -0.1625
 6593W        W23441   5.550   5.574  15.272  0.2262  0.0833 -0.0291
 6594W        W23442   5.221   3.359   0.809  0.0978 -0.0299 -0.0610
 6595W        W23443   3.110   2.524   4.252  0.0789  0.0730 -0.1319
 6596W        W23444  13.000   6.158   1.347  0.5236  0.0527 -0.2156
 6597W        W23445   2.983  16.143   5.144  0.0769 -0.1634 -0.1819
 6598W        W23446   3.973  12.306  15.706  0.4017 -0.0988  0.1289
 6599W        W23447   1.937  16.487   2.748 -0.0894 -0.2701 -0.1012
 6600W        W23448   1.429  11.396  17.835 -0.1825 -0.4005 -0.0506
 6601W        W23449   2.194  12.604   5.458 -0.1170  0.1286  0.1454
 6602W        W23450  13.051   3.237  17.370  0.1388  0.1435  0.0811
 6603W        W23451  12.560   9.587  17.184 -0.2117  0.0241 -0.0849
 6604W        W23452   1.866   5.413   3.907 -0.2549 -0.0684  0.1242
 6605W        W23453  17.062   7.500  14.453  0.2377 -0.0651  0.4283
 6606W        W23454  11.874   0.009   5.188  0.0997  0.0995 -0.1482
 6607W        W23455   1.727   7.274  14.843 -0.2966  0.1914 -0.1682
 6608W        W23456   1.293   5.934  17.796 -0.0521  0.3393 -0.1009
 6609W        W23457   7.807   2.843  13.869 -0.0221 -0.0042 -0.3130
 6610W        W23458   7.087   5.395  12.417 -0.1022 -0.1991  0.1011
 6611W        W23459  12.991   0.824  15.125  0.0003  0.0746 -0.0804
 6612W        W23460  14.387   6.074   0.313 -0.2368  0.2634  0.2475
 6613W        W23461  14.179  12.977   2.494 -0.2593 -0.2696 -0.0542
 6614W        W23462  13.882  10.822  16.882  0.1373  0.1451 -0.0149
 6615W        W23463   0.984   4.663  16.232 -0.1275 -0.2120  0.4659
 6616W        W23464  10.194  10.559   2.930 -0.0338 -0.4639  0.0285
 6617W        W23465  13.988   6.270   3.614 -0.1050  0.0688  0.0405
 6618W        W23466   0.895  14.686   3.017 -0.1074  0.3082 -0.0374
 6619W        W23467  13.641   8.978   4.645 -0.1450  0.2551 -0.3619
 6620W        W23468   8.173  15.416  14.193  0.0930  0.3103 -0.1204
 6621W        W23469  14.703   4.014  12.074 -0.0061 -0.0945 -0.1761
 6622W        W23470   1.053  14.395  16.421  0.0773  0.1229 -0.1551
 6623W        W23471   9.238  11.737  17.098 -0.0642  0.0889  0.0423
 6624W        W23472   1.858   9.067  12.169  0.1481 -0.0870 -0.0922
 6625W        W23473   7.698  10.093   3.416 -0.0511 -0.0955  0.0419
 6626W        W23474  14.739   1.850  12.954 -0.1531 -0.1376 -0.0706
 6627W        W23475   0.144   6.251   4.313  0.1175  0.0476 -0.1703
 6628W        W23476  10.783   8.205   5.122 -0.0147  0.1902 -0.1862
 6629W        W23477  15.270   7.671   1.420  0.1698  0.0052  0.2389
 6630W        W23478   2.258   4.777   0.913 -0.0119 -0.0169 -0.2917
 6631W        W23479   3.237   9.457  15.870  0.1271 -0.2427 -0.0590
 6632W        W23480   0.392   8.127  16.722  0.0620  0.3405  0.2009
 6633W        W23481   8.373  10.354   4.190  0.2044 -0.0277  0.0728
 6634W        W23482  14.628  13.922   3.326  0.2254 -0.1035 -0.2010
 6635W        W23483  16.871   0.707  12.647  0.1302 -0.0368  0.0375
 6636W        W23484  15.859  13.144   0.663 -0.0111 -0.2477  0.2853
 6637W        W23485  10.406   2.124  12.806  0.0603 -0.2188 -0.0753
 6638W        W23486   7.067  11.948   4.008  0.2623  0.1194 -0.2884
 6639W        W23487   0.904   0.716   1.501  0.0428  0.0069 -0.0571
 6640W        W23488   0.688   9.347  11.985  0.1833  0.2406 -0.0429
 6641W        W23489   6.615  15.658   4.112 -0.0761 -0.4347  0.0921
 6642W        W23490  10.070  15.826  14.334  0.0372  0.0865 -0.1307
 6643W        W23491  16.106  15.958  15.356  0.0982  0.0474 -0.1439
 6644W        W23492   7.525   9.727   2.545 -0.3270 -0.2324 -0.1456
 6645W        W23493  12.509   5.688   5.585  0.2272 -0.1387  0.0390
 6646W        W23494  15.221   5.368   2.538 -0.1911 -0.0127  0.1525
 6647W        W23495  13.941  16.185   2.986  0.1483 -0.2056  0.2449
 6648W        W23496   4.675   4.482   4.145  0.0253  0.1575 -0.0642
 6649W        W23497  14.840  11.791   3.649 -0.3830 -0.1204  0.0901
 6650W        W23498   8.803  15.812   0.435  0.2345 -0.3845 -0.3010
 6651W        W23499   8.775  13.266  15.706  0.3018 -0.1860  0.2177
 6652W        W23500   0.660  10.082  12.427 -0.0664 -0.0936 -0.0920
 6653W        W23501   0.184   7.863  12.710 -0.1508 -0.1473 -0.0591
 6654W        W23502   4.762   8.958   3.070  0.1723  0.2996  0.0836
 6655W        W23503   2.206   7.093   5.255 -0.0739  0.1370  0.0719
 6656W        W23504  14.317   6.368  12.049  0.2431 -0.1902 -0.2561
 6657W        W23505  12.321  13.249   4.822 -0.0956  0.0310  0.1306
 6658W        W23506   9.516   4.943  17.667 -0.2166 -0.0715 -0.0590
 6659W        W23507   9.155   4.653   2.361  0.1398 -0.1967 -0.4877
 6660W        W23508   5.088   3.366   3.003  0.2061 -0.1020  0.0763
 6661W        W23509  14.001  11.035  17.341 -0.0857  0.2247 -0.2135
 6662W        W23510   3.832   6.846   1.701 -0.2924 -0.0340  0.1997
 6663W        W23511   7.770   5.673   3.524  0.0469  0.0570 -0.1818
 6664W        W23512   9.361   9.436  13.011 -0.1320  0.0416  0.0250
 6665W        W23513  11.100   7.475  12.446 -0.2069  0.3862 -0.0218
 6666W        W23514  12.853  11.136  17.157  0.0359  0.0081 -0.1607
 6667W        W23515   4.101  14.168   4.942  0.2775  0.1487  0.0706
 6668W        W23516  15.601  15.316  13.905 -0.0758  0.1865 -0.0082
 6669W        W23517  10.827  15.604  17.067 -0.1727 -0.0265 -0.4250
 6670W        W23518   5.076   1.708   4.003 -0.2686 -0.2869  0.1437
 6671W        W23519   2.698  13.261   4.529  0.0603  0.1751  0.2509
 6672W        W23520  12.809   0.216  13.064 -0.1048  0.1919  0.0666
 6673W        W23521   5.544   8.853  13.604  0.1155  0.3366  0.0872
 6674W        W23522  10.074   0.881  14.229  0.0684 -0.1895  0.2941
 6675W        W23523   2.972   8.263  15.207  0.1473 -0.0741 -0.3583
 6676W        W23524   1.865  15.472   2.116  0.0923  0.1973 -0.4475
 6677W        W23525   0.306   0.521   4.806  0.3830 -0.0810 -0.1553
 6678W        W23526   1.735  10.314   4.837  0.1911  0.0558  0.0595
 6679W        W23527   4.639  11.354  17.303 -0.0473  0.1408  0.0120
 6680W        W23528   6.194  11.897   1.806 -0.1798 -0.2594 -0.0036
 6681W        W23529   0.087   2.067  13.400 -0.1793  0.1113  0.0417
 6682W        W23530   6.578  15.500  15.901  0.0873  0.1220  0.1086
 6683W        W23531  13.432   6.230   3.277 -0.2104  0.1266 -0.2853
 6684W        W23532  11.174  10.927   1.956 -0.1705 -0.2026 -0.1702
 6685W        W23533   4.866   6.685  16.572 -0.1499 -0.0796  0.0500
 6686W        W23534   5.347   8.794  15.719 -0.0447  0.0516  0.2448
 6687W        W23535   0.912  11.962  12.530 -0.0422  0.2938  0.0215
 6688W        W23536   5.066   5.066   2.790 -0.1987  0.0719  0.1142
 6689W        W23537  10.097   0.327  13.168 -0.2466  0.1310 -0.0376
 6690W        W23538   2.736  11.369  14.705  0.0235 -0.1753 -0.1902
 6691W        W23539  16.202   9.939  14.968 -0.0891 -0.1853 -0.2564
 6692W        W23540   0.277  10.297  16.828 -0.1408 -0.1269  0.0241
 6693W        W23541  16.764  16.648   0.441  0.2479  0.1142  0.2821
 6694W        W23542  13.080   3.159  14.701  0.0287 -0.1279 -0.1765
 6695W        W23543   9.462   1.507  16.998 -0.1232 -0.0373  0.0118
 6696W        W23544  13.615  14.860  12.534 -0.3000 -0.1752 -0.2192
 6697W        W23545  12.484   4.645  15.047 -0.1486  0.0859  0.0440
 6698W        W23546   4.399  10.328   3.826  0.0186  0.3066  0.1909
 6699W        W23547   8.370  10.334  13.532  0.1085  0.0699  0.3393
 6700W        W23548   3.387   7.442  15.154 -0.0953  0.1263  0.0481
 6701W        W23549   1.118  10.760  13.763 -0.0937  0.0478  0.0275
 6702W        W23550   8.045  16.437   4.014 -0.2200 -0.2776  0.1423
 6703W        W23551   5.879   2.307   0.015  0.1538  0.1103 -0.0867
 6704W        W23552   4.551  12.853   2.018  0.0723  0.0384  0.0472
 6705W        W23553   8.614   5.119   3.751  0.4166  0.2387 -0.1706
 6706W        W23554  14.114   0.622   3.379 -0.0284  0.0677 -0.2189
 6707W        W23555  15.401   8.656   0.499 -0.2757 -0.1983 -0.0591
 6708W        W23556   7.823  15.765  15.994  0.0280 -0.0249  0.0584
 6709W        W23557   8.331   6.782   0.737  0.2478  0.0070 -0.3679
 6710W        W23558  12.775  14.045   3.589 -0.1529  0.1169  0.2267
 6711W        W23559  10.255  16.125   2.730  0.0254 -0.1556  0.0767
 6712W        W23560   8.971   1.735  17.193 -0.0108 -0.1026  0.2882
 6713W        W23561   5.103   0.025  15.251 -0.0459 -0.1624  0.1705
 6714W        W23562   3.671   9.770  13.243  0.0415  0.0717  0.0291
 6715W        W23563  16.940   6.561  14.034 -0.0685 -0.0022 -0.0031
 6716W        W23564  13.271  14.548   5.747 -0.0178  0.0102 -0.2154
 6717W        W23565   0.399  10.718  14.998 -0.0265  0.0790  0.1379
 6718W        W23566  11.989  15.862   0.370  0.2078 -0.1207 -0.1491
 6719W        W23567  11.347   9.121   5.742 -0.1432  0.0908 -0.0918
 6720W        W23568  11.325   1.158  14.728  0.0093  0.1007  0.0751
 6721W        W23569   5.259  13.406   4.228  0.0277  0.0422  0.0646
 6722W        W23570  13.121   9.370  16.065 -0.0662 -0.2639  0.0577
 6723W        W23571  10.657   3.623   3.245 -0.0907 -0.3951 -0.3351
 6724W        W23572   4.618  15.768  16.889 -0.1879 -0.2221  0.0241
 6725W        W23573   3.457  10.522  15.208  0.2183  0.0134  0.1587
 6726W        W23574   1.716   0.877  15.345  0.2935 -0.2477  0.2012
 6727W        W23575  10.948   4.366   1.993 -0.0430  0.0957 -0.2388
 6728W        W23576   5.228  14.354  17.118  0.3811 -0.0758  0.1797
 6729W        W23577   0.287   3.933   2.413 -0.0372  0.0289  0.3940
 6730W        W23578   3.555  13.372   0.933  0.1535  0.3624 -0.1248
 6731W        W23579  13.381  13.346  16.109 -0.0684  0.0398  0.1508
 6732W        W23580   2.267   2.329  15.808  0.2411 -0.0704 -0.1642
 6733W        W23581   8.945   7.456   0.935 -0.0308  0.0402 -0.0917
 6734W        W23582   6.327   2.430  14.372  0.1386  0.0881  0.4792
 6735W        W23583  13.703  11.561   6.171 -0.1226  0.3022 -0.1981
 6736W        W23584   0.414  16.090   5.337 -0.3327  0.0147  0.0555
 6737W        W23585  14.635   9.006  16.584  0.1551 -0.3000  0.0843
 6738W        W23586   0.033   1.301   2.883  0.0747  0.3350  0.1867
 6739W        W23587   1.655  15.629  14.554 -0.0481 -0.1650 -0.2862
 6740W        W23588   3.566   8.671  14.178 -0.0664  0.1547 -0.0571
 6741W        W23589  16.492  13.509  13.907  0.1841  0.0694 -0.1006
 6742W        W23590   0.197   4.483  16.940  0.2339 -0.1143 -0.2629
 6743W        W23591   0.729   1.168   1.344 -0.1103 -0.1621 -0.0821
 6744W        W23592  15.156   6.152  17.836 -0.0364 -0.0280 -0.1539
 6745W        W23593  10.955   8.366   0.987 -0.0594 -0.0335 -0.0377
 6746W        W23594   5.695   7.949  13.642  0.1226  0.4563  0.1595
 6747W        W23595  16.809   7.104   4.571  0.2326  0.3038  0.0233
 6748W        W23596  13.681   0.111  16.004 -0.0115  0.0037 -0.2041
 6749W        W23597  12.501  11.429  13.962  0.0374  0.4453  0.1420
 6750W        W23598  16.517  16.943   2.814  0.0070 -0.0701  0.2507
 6751W        W23599   7.480  14.344   5.793 -0.0201  0.2439 -0.2281
 6752W        W23600   0.870   1.649  14.439  0.0590 -0.3166 -0.3027
 6753W        W23601  13.042   8.965   1.266 -0.2607 -0.0664 -0.1967
 6754W        W23602  15.103   6.543   4.460  0.2069  0.0849 -0.1796
 6755W        W23603  14.759   7.077   2.729  0.1878  0.1159  0.1992
 6756W        W23604   7.040  11.752   2.351  0.0787  0.1096 -0.2455
 6757W        W23605   3.951  15.209  14.275 -0.1040 -0.1876  0.3030
 6758W        W23606   8.626   7.097  13.082  0.0906  0.3308  0.0664
 6759W        W23607   7.136  15.668   2.619  0.3079  0.0154  0.3927
 6760W        W23608   7.504  13.744   1.392  0.0339 -0.0615 -0.1938
 6761W        W23609   6.632   9.024   4.637  0.0938 -0.2567  0.1628
 6762W        W23610  15.732   1.141  16.109  0.0503  0.1826  0.1217
 6763W        W23611   5.555  15.822   0.161  0.1062 -0.2569  0.1279
 6764W        W23612  15.513   0.889   1.199  0.0588  0.0067  0.1492
 6765W        W23613   0.829  10.343  16.955  0.0166 -0.0611 -0.1333
 6766W        W23614   1.468   4.329   1.923 -0.1180 -0.0566 -0.0140
 6767W        W23615  15.457   5.976   2.946 -0.1744 -0.0640 -0.0456
 6768W        W23616   9.385  13.255   5.448 -0.3731 -0.3060  0.0137
 6769W        W23617  11.970   3.319  12.446  0.2174  0.1782 -0.2793
 6770W        W23618   7.638  10.504   5.475  0.2116 -0.0237  0.0009
 6771W        W23619  13.512  10.396  14.569  0.0035  0.1406 -0.1080
 6772W        W23620   6.926   1.797  15.940 -0.1104 -0.0212 -0.1116
 6773W        W23621  14.947  11.011  17.706  0.3852 -0.0532 -0.1686
 6774W        W23622   2.934  11.016   3.187  0.2449  0.0921  0.0191
 6775W        W23623  16.717   7.279  16.044 -0.0574 -0.1915 -0.3066
 6776W        W23624  15.730  15.148   4.240  0.0731 -0.0501 -0.1392
 6777W        W23625   2.240   7.849   0.598  0.1752  0.0391 -0.3002
 6778W        W23626   0.062   0.478   0.000  0.2634 -0.1871 -0.0728
 6779W        W23627  13.049   4.572   5.291  0.1832 -0.2380  0.1295
 6780W        W23628   5.443   4.399   5.002 -0.0250  0.0450  0.0517
 6781W        W23629   6.087   7.390   1.501  0.3503  0.0848 -0.1741
 6782W        W23630   3.450  12.374  13.266  0.2337 -0.0657 -0.0413
 6783W        W23631   6.175   1.761  15.185 -0.0361 -0.1379 -0.2171
 6784W        W23632   1.050   9.657   0.595 -0.1277 -0.0168 -0.1269
 6785W        W23633  14.933   3.830   4.701 -0.2173  0.1677 -0.0635
 6786W        W23634   9.065  15.192   5.690 -0.0198 -0.0953 -0.0639
 6787W        W23635   1.250   4.903  12.633 -0.1713  0.1586  0.0927
 6788W        W23636   3.161   3.355   4.386 -0.4016 -0.0895 -0.1235
 6789W        W23637   4.959   7.727  14.028 -0.0036 -0.2584 -0.2833
 6790W        W23638   3.043  15.615  15.243  0.1129 -0.2074  0.5131
 6791W        W23639   3.584  11.747   4.776 -0.0841 -0.0693 -0.0935
 6792W        W23640  12.147   1.926  15.858 -0.2085 -0.2027 -0.2365
 6793W        W23641   7.129   6.712  12.496  0.0172  0.1522 -0.1939
 6794W        W23642  10.616   7.162  15.104 -0.1400 -0.0960  0.3353
 6795W        W23643   6.486   8.990  13.710 -0.0026  0.2727 -0.0500
 6796W        W23644   1.354   7.358   2.731  0.1430  0.1305 -0.0331
 6797W        W23645   2.160  12.312  17.286 -0.1310  0.0804  0.4031
 6798W        W23646   3.895   0.633  13.520 -0.0754  0.0476 -0.1678
 6799W        W23647   1.340  15.844   1.582 -0.0401  0.1671  0.2057
 6800W        W23648   2.829  11.570  15.528 -0.0769 -0.1392  0.2511
 6801W        W23649  10.906  10.236  16.516  0.2800 -0.1699 -0.0975
 6802W        W23650   5.633  13.695   3.285 -0.1993  0.0812  0.0569
 6803W        W23651   4.009   3.583  17.542 -0.1313  0.2856 -0.1589
 6804W        W23652   3.539   3.731   5.752  0.0116  0.0250 -0.0478
 6805W        W23653   9.920   5.179  14.196  0.2644 -0.1774  0.2115
 6806W        W23654  14.547  13.729  12.886  0.2799  0.2301  0.0584
 6807W        W23655   5.961  13.475  17.568 -0.0012  0.2207 -0.0900
 6808W        W23656   6.720  15.030  17.341 -0.0409 -0.2046 -0.2253
 6809W        W23657   4.541   7.965  15.378 -0.0203 -0.2450 -0.3211
 6810W        W23658  13.993  10.616   5.283 -0.5865 -0.0361  0.1815
 6811W        W23659  10.196   5.628   0.393  0.2280  0.0728  0.1998
 6812W        W23660  16.499  15.366  14.622 -0.0203  0.0478 -0.0323
 6813W        W23661   9.251  15.106   4.369 -0.0578 -0.2293 -0.1247
 6814W        W23662   5.322   7.572  14.401  0.0929 -0.0754  0.0656
 6815W        W23663   2.993   6.900  15.762  0.1003 -0.1660 -0.1370
 6816W        W23664  11.669  14.144  17.044 -0.4336 -0.1185  0.1500
 6817W        W23665   1.599  11.597  13.289 -0.2775 -0.1810 -0.0689
 6818W        W23666  16.470   2.592  15.882  0.0284  0.2743  0.0735
 6819W        W23667   1.772   0.000   3.943  0.0929  0.1718 -0.3854
 6820W        W23668   6.357   5.043   6.165 -0.1090 -0.0377  0.3780
 6821W        W23669  12.515  16.606   2.133  0.0760 -0.0115 -0.0913
 6822W        W23670   5.478  10.950   4.649 -0.1770 -0.0905 -0.0536
 6823W        W23671  14.435   2.352  16.626  0.0286 -0.2862  0.0810
 6824W        W23672   3.731  11.903   2.731 -0.0232  0.1864  0.1410
 6825W        W23673   1.098   8.841  14.922  0.2445  0.0211 -0.1558
 6826W        W23674   2.555  12.312  14.200 -0.1980  0.0870  0.1846
 6827W        W23675   9.178  12.322  14.253 -0.0235 -0.1560  0.1587
 6828W        W23676   3.111  11.038  12.628 -0.1167 -0.0137 -0.0302
 6829W        W23677  16.096   0.264   1.396 -0.2621 -0.0533  0.1646
 6830W        W23678   4.652   4.919  16.918  0.3775 -0.1064  0.1813
 6831W        W23679  14.534   0.745  12.523 -0.1513  0.0512  0.0691
 6832W        W23680  10.029  14.222   3.131  0.0971  0.2534 -0.1062
 6833W        W23681   9.670   3.843   1.607  0.1188  0.1137  0.1553
 6834W        W23682   6.982  12.648   5.621  0.1424  0.3212  0.0126
 6835W        W23683   5.790  13.178   4.980  0.1065  0.0015 -0.3715
 6836W        W23684  16.935   2.853   3.484  0.0837  0.3333  0.0255
 6837W        W23685  12.940   4.399  16.029 -0.0030  0.2744  0.0093
 6838W        W23686  10.428   9.036   5.247  0.3292  0.1448 -0.1973
 6839W        W23687  16.358   6.409   2.512 -0.1537 -0.1202 -0.0971
 6840W        W23688  11.481   6.907  14.930  0.1656 -0.1892  0.1324
 6841W        W23689   0.119  12.158  14.021  0.1179 -0.1234  0.0826
 6842W        W23690  10.950  12.310  16.133  0.0955 -0.1705 -0.2454
 6843W        W23691  15.431   2.002  13.612  0.0385  0.2115 -0.0735
 6844W        W23692  16.147   5.027  14.922  0.0269 -0.2881  0.0751
 6845W        W23693   1.976  14.539  15.478 -0.0809  0.0311 -0.0298
 6846W        W23694   1.088   9.509   3.865 -0.1889 -0.3011  0.0742
 6847W        W23695  13.997   6.024  15.558  0.0933  0.0539  0.1851
 6848W        W23696   4.280  14.109   0.736  0.0543 -0.1711  0.0826
 6849W        W23697  16.254   7.140   3.355 -0.1482 -0.0155  0.2591
 6850W        W23698   9.803   1.360  16.132 -0.1102  0.1397  0.1142
 6851W        W23699   6.047  14.336  12.171  0.2065 -0.1101  0.3343
 6852W        W23700   1.393   9.735  13.056 -0.0058 -0.2586 -0.0503
 6853W        W23701  14.602   5.627   3.026  0.2241 -0.1735 -0.1242
 6854W        W23702  12.450   7.883  13.174  0.2051  0.1472  0.4166
 6855W        W23703  14.087  12.075   3.060  0.1668 -0.0427  0.0352
 6856W        W23704   3.088   0.242   0.052  0.2625  0.1320 -0.0288
 6857W        W23705   9.691   8.090   1.425  0.0477  0.0064  0.5894
 6858W        W23706   6.429   9.609  17.821 -0.1445 -0.0873 -0.0844
 6859W        W23707   3.724   5.717   4.117  0.1193 -0.1448  0.4087
 6860W        W23708  16.355  16.623   0.138 -0.2514 -0.2103  0.0356
 6861W        W23709   6.845  17.058   5.210  0.0287 -0.2073  0.1429
 6862W        W23710   3.505   9.505  11.043 -0.0816 -0.0354  0.1444
 6863W        W23711   6.218  12.548  15.948 -0.0964  0.1110  0.3815
 6864W        W23712   8.987  11.622  16.664 -0.1002 -0.0869 -0.0617
 6865W        W23713   6.540  14.219  15.800 -0.2457 -0.2362  0.0122
 6866W        W23714  15.881  16.448  17.760 -0.1949  0.2200  0.1122
 6867W        W23715   2.391  14.720  12.996 -0.2318  0.0504  0.3639
 6868W        W23716  10.175  12.538   4.244 -0.1358  0.3451  0.1753
 6869W        W23717  11.757  11.707   5.225 -0.0302 -0.1780  0.0957
 6870W        W23718   2.557   9.669   4.628 -0.1003 -0.0270 -0.0205
 6871W        W23719  12.655  13.348  17.549 -0.2014 -0.0632  0.1115
 6872W        W23720  15.621   6.925   4.977  0.1442 -0.2794 -0.0588
 6873W        W23721   2.561  10.055  15.758 -0.0178 -0.0387  0.1779
 6874W        W23722   2.513   2.272   5.264  0.1489 -0.2610  0.0323
 6875W        W23723   6.701  15.975   3.748  0.1730 -0.2346 -0.2370
 6876W        W23724   1.998   2.150  12.626  0.0319  0.2488 -0.2872
 6877W        W23725  11.633   8.217  13.745 -0.0273  0.0970  0.1482
 6878W        W23726   0.383  15.942   4.457  0.0056 -0.1416 -0.0456
 6879W        W23727  11.981  16.751  17.829 -0.0913 -0.0919 -0.2025
 6880W        W23728   8.747  12.440  13.485  0.0910  0.5005 -0.0062
 6881W        W23729   8.165   8.491   4.934  0.0795  0.0025 -0.0748
 6882W        W23730  13.316  15.897   2.119  0.1396  0.5134  0.1618
 6883W        W23731  13.522  10.004   4.080  0.1797 -0.1968  0.1091
 6884W        W23732  15.685  13.595   0.814  0.1337  0.2614 -0.0033
 6885W        W23733  16.114  15.689  17.502  0.0703  0.2955  0.0465
 6886W        W23734   4.986   4.396   2.035 -0.2717  0.2549 -0.0833
 6887W        W23735  13.981   9.807   4.306  0.0249 -0.0441  0.0179
 6888W        W23736   8.242   5.815   1.546  0.1180 -0.1543 -0.1702
 6889W        W23737   6.219  14.570   3.452  0.0249  0.3972  0.1192
 6890W        W23738   6.412   6.547  13.671  0.1837 -0.1745 -0.0821
 6891W        W23739   8.347  16.307  16.412 -0.0610 -0.0781  0.2622
 6892W        W23740   2.815  10.119  13.508  0.0563  0.1056  0.1578
 6893W        W23741   5.989   3.194   1.714  0.0256  0.0462 -0.0880
 6894W        W23742   3.999   5.059  13.461 -0.3518 -0.2990  0.0899
 6895W        W23743  10.268   8.439   2.064 -0.0842 -0.0965 -0.0569
 6896W        W23744  12.850  13.310  15.913  0.0955 -0.1633  0.2126
 6897W        W23745   2.159  16.567   0.239 -0.3768 -0.1672  0.0216
 6898W        W23746   9.074   1.699  13.321  0.0588  0.2920  0.2663
 6899W        W23747  12.551  12.018   4.847 -0.1175 -0.0343  0.1857
 6900W        W23748  12.533  14.215  12.994 -0.2762  0.1963  0.1471
 6901W        W23749   5.362  10.101   1.695  0.0440  0.3278 -0.1208
 6902W        W23750   2.423  10.498   4.827  0.1584 -0.0669 -0.2366
 6903W        W23751   5.126   4.215   4.228  0.0109  0.0558 -0.0428
 6904W        W23752  15.060   6.689   1.532 -0.1855 -0.0909  0.0868
 6905W        W23753   0.102   8.679   1.354  0.2303 -0.1571  0.1627
 6906W        W23754   1.550  13.425  13.449  0.0070 -0.2239 -0.1640
 6907W        W23755   0.581   8.231   3.017 -0.2119 -0.1087 -0.0080
 6908W        W23756   2.919   5.243  17.313  0.0934  0.3281 -0.2136
 6909W        W23757  16.473   4.015  15.547 -0.0202 -0.1261  0.5270
 6910W        W23758  15.745   1.261  15.056 -0.2049  0.1377 -0.2985
 6911W        W23759   3.616  15.479  12.012 -0.1276 -0.0615  0.1148
 6912W        W23760   1.112   6.815  13.605 -0.1472 -0.1678  0.1482
 6913W        W23761   0.642   2.197  17.571 -0.0320  0.0064  0.0794
 6914W        W23762  16.948   0.059  13.472 -0.3461  0.1020  0.2314
 6915W        W23763   9.083   6.580   5.151  0.0985  0.1868  0.1654
 6916W        W23764   9.841   2.993   4.660  0.0991 -0.2229 -0.2836
 6917W        W23765   6.201   4.453  15.713 -0.2484 -0.2132 -0.0223
 6918W        W23766   4.681   2.627  13.440 -0.2430 -0.0009 -0.0402
 6919W        W23767   2.344  10.769   0.673  0.0233 -0.1383  0.1308
 6920W        W23768  14.118   8.544   4.067 -0.0078  0.4168 -0.2022
 6921W        W23769   5.251   5.037   3.818 -0.2814  0.2159 -0.0849
 6922W        W23770   4.063   3.516   0.311  0.0379 -0.3636 -0.3251
 6923W        W23771   8.570  10.101   4.670  0.1209 -0.2083  0.1035
 6924W        W23772  12.127   1.393   3.476  0.1815  0.1684  0.5128
 6925W        W23773  14.482   1.331  14.673  0.2620  0.1473 -0.0963
 6926W        W23774  15.923   0.891   5.341  0.0279 -0.1271 -0.4420
 6927W        W23775   8.902  13.930  14.143 -0.0089 -0.0129 -0.1403
 6928W        W23776  14.654  13.482   5.137 -0.0424  0.0905  0.0064
 6929W        W23777   9.321   9.694   1.619  0.0081  0.1870  0.2295
 6930W        W23778  11.927  14.384   2.520  0.1424 -0.1265  0.1966
 6931W        W23779   5.027  12.726   1.900  0.1320  0.0452 -0.0955
 6932W        W23780   1.507   8.011  13.749 -0.0297  0.1386 -0.0411
 6933W        W23781  13.125   8.669   3.319  0.0102 -0.0531 -0.2870
 6934W        W23782   6.701   5.195   4.114 -0.1485  0.2173 -0.1145
 6935W        W23783   7.505  11.693  14.024  0.2066 -0.1107 -0.1489
 6936W        W23784   6.107   1.408  13.204  0.0123 -0.1049 -0.1566
 6937W        W23785  16.234  10.297   4.705  0.1647 -0.1725 -0.0132
 6938W        W23786  12.244   0.802  14.199 -0.0910  0.4740  0.0550
 6939W        W23787  16.336   4.588   5.426  0.0073 -0.1474 -0.0963
 6940W        W23788   2.985  15.559   0.645  0.1004  0.4366 -0.1272
 6941W        W23789   8.308   5.261  16.712 -0.1319  0.1131 -0.1161
 6942W        W23790   7.684  16.944   2.208  0.3390  0.2346  0.1554
 6943W        W23791   8.350   7.650  15.676  0.0381  0.0355 -0.0736
 6944W        W23792   8.978  11.947  17.632  0.2206 -0.1583  0.2188
 6945W        W23793   3.607   1.318  14.029 -0.0510 -0.1668  0.1244
 6946W        W23794  15.140  12.838   4.283  0.0078  0.0940  0.2487
 6947W        W23795   4.348   3.533   2.973 -0.0048  0.2106  0.0433
 6948W        W23796  11.063   9.493   3.859 -0.1043  0.1460 -0.1475
 6949W        W23797   1.484   0.519  15.097  0.0188  0.2289 -0.2429
 6950W        W23798  14.674  16.981   3.211 -0.0872 -0.3829  0.1386
 6951W        W23799  15.968   0.517  15.289 -0.0956 -0.1678 -0.0368
 6952W        W23800   6.508  15.647   0.061  0.1221  0.1710  0.1787
 6953W        W23801   1.091   6.274   5.216 -0.2509 -0.1107 -0.2009
 6954W        W23802   9.880  12.449   5.153 -0.1650  0.1927 -0.1103
 6955W        W23803  16.692  16.419  14.153  0.1691  0.1040 -0.2617
 6956W        W23804  12.403  11.993   0.543 -0.0113 -0.2939 -0.1753
 6957W        W23805  12.569  10.268   0.337 -0.1385 -0.0554 -0.0885
 6958W        W23806   4.944   5.238  15.020 -0.1714  0.1721 -0.2694
 6959W        W23807   5.026   0.587   4.599 -0.0557 -0.0765  0.3258
 6960W        W23808   3.069   2.627   0.850 -0.0704  0.0125  0.1669
 6961W        W23809   1.313  13.081   0.793 -0.0421  0.0302 -0.2773
 6962W        W23810  15.995  13.990   2.481  0.4408 -0.0794  0.1239
 6963W        W23811   3.191   1.183  14.984  0.0205  0.0920  0.0949
 6964W        W23812   2.276   2.384   1.103  0.0016 -0.0979 -0.1183
 6965W        W23813   4.880   6.633  16.009 -0.0312  0.1854  0.2265
 6966W        W23814  16.996  11.736   0.876 -0.0087  0.2868 -0.1174
 6967W        W23815  15.613  10.689  16.632  0.0272 -0.1707 -0.0814
 6968W        W23816   8.744   9.611   3.856 -0.1453  0.1960 -0.1202
 6969W        W23817   0.362  13.315  16.724 -0.0432 -0.1127 -0.0897
 6970W        W23818  15.646   6.553   5.788 -0.2850  0.0946  0.1112
 6971W        W23819   7.227  13.330   1.513  0.1978  0.0135 -0.0129
 6972W        W23820   0.548   7.106   4.839  0.0796  0.0618 -0.0089
 6973W        W23821   8.926   9.455   2.540  0.0436 -0.2059  0.3077
 6974W        W23822  10.432   6.542   3.093  0.0094  0.1449 -0.0034
 6975W        W23823   1.693   4.161   4.857  0.2350  0.0479  0.2689
 6976W        W23824  13.876  13.398  17.836  0.1558  0.0172  0.3161
 6977W        W23825   3.433   5.043   4.503  0.2352  0.0984 -0.1606
 6978W        W23826   2.794  10.533   1.005 -0.2026 -0.0565  0.0991
 6979W        W23827   1.177   1.359  14.166  0.3499 -0.2233  0.2094
 6980W        W23828   5.191  16.153   3.730  0.3119  0.0331 -0.2400
 6981W        W23829   7.899   1.555   1.363 -0.1806  0.0422  0.3943
 6982W        W23830   4.435   3.749   1.160 -0.0618 -0.0004  0.2396
 6983W        W23831   9.667   2.487  15.090  0.0586 -0.0151 -0.0446
 6984W        W23832   2.335  13.735  12.895 -0.1060 -0.0268 -0.0386
 6985W        W23833  10.713  14.554   2.104  0.2163 -0.2591  0.0296
 6986W        W23834  12.632  11.149   0.950  0.1435  0.3538  0.1538
 6987W        W23835   1.282  16.232  16.771 -0.2633  0.0261 -0.1675
 6988W        W23836   7.602   4.118  14.545 -0.1466  0.3583  0.0263
 6989W        W23837   6.641  12.153  12.678  0.0781 -0.0186  0.0178
 6990W        W23838   3.628   4.368   0.031 -0.1104  0.0035 -0.0444
 6991W        W23839  10.969   2.381   5.609 -0.1092 -0.1231 -0.3220
 6992W        W23840   5.192   6.410  17.645 -0.0529 -0.1718  0.0716
 6993W        W23841  11.640   0.791  16.335 -0.2139 -0.1702 -0.0361
 6994W        W23842  11.284   8.047  13.305 -0.1637  0.0846  0.0182
 6995W        W23843   7.192   8.637  17.585  0.1524 -0.0854 -0.1179
 6996W        W23844  15.267  15.087   3.607 -0.0520  0.0512  0.3374
 6997W        W23845  10.398  12.502   5.071  0.1317  0.0413 -0.0960
 6998W        W23846  13.591   4.964   4.341  0.1729 -0.0457  0.0330
 6999W        W23847   6.492   8.694  12.682 -0.1858 -0.0965  0.0760
 7000W        W23848  16.817   5.392   4.953  0.1311 -0.1701 -0.0859
 7001W        W23849  11.561   2.992  14.572 -0.0459  0.4373 -0.1340
 7002W        W23850   5.784   8.590   3.077 -0.2416 -0.2448  0.2088
 7003W        W23851  10.966   2.473  17.489 -0.1670 -0.0806 -0.2383
 7004W        W23852   9.150   0.724  17.435 -0.2204 -0.0712 -0.1272
 7005W        W23853  13.121   4.214   2.262 -0.2034 -0.1685  0.4777
 7006W        W23854   0.366  10.208   3.860 -0.2217  0.2041  0.4269
 7007W        W23855  16.419  14.239  16.181 -0.0804  0.0960 -0.0114
 7008W        W23856   7.283   0.529   0.292  0.0982 -0.2414 -0.1316
 7009W        W23857  14.881  13.174  15.542  0.1536  0.1204  0.1199
 7010W        W23858  10.982  15.369  17.541 -0.0857  0.2122 -0.2302
 7011W        W23859   7.155  11.228  16.758 -0.1945 -0.2232  0.2304
 7012W        W23860   0.103   9.707  12.871 -0.0660 -0.0166 -0.1019
 7013W        W23861   3.998   1.697   4.121 -0.1119  0.0991 -0.0160
 7014W        W23862   1.816  13.668   5.540  0.0607 -0.1962 -0.1455
 7015W        W23863   7.175  16.412  16.106  0.2572  0.0622 -0.3168
 7016W        W23864   9.254   5.901   5.755  0.2117 -0.0724 -0.2855
 7017W        W23865   8.604  14.023   4.286  0.0196 -0.0255 -0.0352
 7018W        W23866   9.882   1.774   5.650 -0.1263 -0.0687  0.2175
 7019W        W23867  13.799   4.434  17.325 -0.0344  0.0251  0.0105
 7020W        W23868   6.885  15.694   1.086  0.1861 -0.1939  0.2905
 7021W        W23869  13.943   6.162   0.508 -0.0860 -0.2788  0.1446
 7022W        W23870   2.393   2.259   0.291 -0.1186 -0.0386 -0.0201
 7023W        W23871   3.842   0.584  16.774 -0.2403  0.3056 -0.2633
 7024W        W23872   3.738   5.549  14.147  0.1357  0.0948 -0.1399
 7025W        W23873   3.616  16.196   2.201  0.3698 -0.1731 -0.1029
 7026W        W23874   9.664  14.118   2.787  0.2612  0.1602  0.1465
 7027W        W23875  15.603   9.623   0.137  0.0458 -0.2698 -0.4392
 7028W        W23876   0.605  16.309  14.414  0.0970 -0.1673  0.0125
 7029W        W23877   5.820   9.033   4.518 -0.1705 -0.2785  0.1155
 7030W        W23878  14.464   4.243  12.452 -0.0669 -0.2614 -0.2090
 7031W        W23879  11.792  12.427   3.913  0.0404 -0.1819  0.1548
 7032W        W23880  12.590  13.088  13.407 -0.2766 -0.0534 -0.2033
 7033W        W23881  11.409   1.596   1.034  0.0806 -0.1555 -0.0740
 7034W        W23882   5.266  11.736  13.821  0.0963  0.3040 -0.2832
 7035W        W23883   3.286  12.556  16.193  0.1789 -0.1290  0.1609
 7036W        W23884  16.399   5.764  17.209 -0.0147  0.0969  0.0720
 7037W        W23885   5.594   3.661  14.034 -0.3544 -0.0636 -0.2300
 7038W        W23886  16.741   0.572   0.754  0.0287 -0.0003 -0.0216
 7039W        W23887   7.588   2.540   4.012 -0.4201 -0.0172 -0.1537
 7040W        W23888  13.418  10.578  12.933 -0.3560 -0.1980 -0.2549
 7041W        W23889  15.780  12.924   5.453 -0.0426 -0.1258 -0.3916
 7042W        W23890  12.247  14.529  17.567 -0.1829 -0.1163 -0.0049
 7043W        W23891   3.270   8.987   4.221  0.1791 -0.1291  0.0902
 7044W        W23892   3.377   1.826  14.845 -0.2610  0.3282  0.0331
 7045W        W23893   9.104   3.928  12.264  0.0807 -0.3805  0.1972
 7046W        W23894   4.961  11.631  17.507  0.0201 -0.1905  0.0746
 7047W        W23895  15.356  10.615   0.978 -0.1798 -0.3462  0.0424
 7048W        W23896   2.040   3.386  13.069 -0.1031 -0.0137 -0.2532
 7049W        W23897  14.296   9.247  14.170 -0.0869 -0.0066 -0.1734
 7050W        W23898   7.523   9.463  12.065  0.2034 -0.1941  0.1492
 7051W        W23899   3.168  10.538   4.974 -0.1089 -0.0343  0.0081
 7052W        W23900   6.742   4.541   2.511 -0.1112 -0.1989 -0.0889
 7053W        W23901   2.606   4.173  12.711  0.0962 -0.1960 -0.0672
 7054W        W23902  14.319   8.855  13.844 -0.0016  0.4254  0.2423
 7055W        W23903  12.149   4.867  15.879 -0.1664 -0.4084  0.0803
 7056W        W23904   5.935  10.822   1.850 -0.0674 -0.3707 -0.0051
 7057W        W23905  14.866  15.964  14.073  0.0597  0.3749  0.0601
 7058W        W23906   7.291   1.173   5.729 -0.0985 -0.1971 -0.0394
 7059W        W23907   1.168  11.719   2.856  0.2530  0.1310  0.0157
 7060W        W23908  15.260   6.757   1.084  0.0794  0.2086 -0.1845
 7061W        W23909  10.494   0.639   4.205  0.1341 -0.1089 -0.1171
 7062W        W23910  14.839   7.044   1.159 -0.3471  0.2254 -0.1667
 7063W        W23911  11.767  10.742   3.779  0.0807 -0.2137 -0.2492
 7064W        W23912  15.126   8.496  13.470 -0.2791 -0.0271  0.0898
 7065W        W23913   4.651   9.553   3.139 -0.1623 -0.1663  0.2819
 7066W        W23914  16.642   0.888  16.532  0.1482 -0.0483 -0.0203
 7067W        W23915   4.053   2.762  15.383 -0.2637 -0.2375  0.0357
 7068W        W23916   2.651  12.880  16.733  0.0124 -0.0358  0.1447
 7069W        W23917  10.261  11.887   5.849  0.1957  0.3431 -0.0368
 7070W        W23918   2.105  16.075  15.558 -0.0033 -0.1381  0.0853
 7071W        W23919  13.753   1.646   5.101  0.0295 -0.1709  0.1275
 7072W        W23920  13.810  10.885   2.381  0.0991  0.1312  0.0457
 7073W        W23921  11.762  13.304  15.054  0.3250  0.1478  0.1064
 7074W        W23922   2.873   4.110  16.234 -0.0556  0.1494 -0.2791
 7075W        W23923   9.200  14.860  13.210 -0.0057  0.4578  0.3045
 7076W        W23924  16.406  16.843   4.671  0.0575  0.0209 -0.0008
 7077W        W23925   5.900   1.740   3.211  0.1919  0.2462  0.2094
 7078W        W23926   6.737  10.110   3.566 -0.0280  0.1623  0.1095
 7079W        W23927   5.363   7.983  17.496  0.0082 -0.2333  0.0167
 7080W        W23928   6.735  13.920  13.130  0.1144  0.3014  0.0721
 7081W        W23929   7.001  12.368  12.201 -0.3015  0.3791  0.2478
 7082W        W23930  12.033  12.056   6.604  0.0883 -0.0590  0.3748
 7083W        W23931  10.004   2.859  14.360  0.1057  0.3327 -0.0508
 7084W        W23932   5.083   6.553  14.958 -0.0526 -0.0988 -0.0226
 7085W        W23933   9.034   8.749  14.683 -0.2127  0.1037  0.4491
 7086W        W23934  15.851  11.008  14.609  0.0262  0.1201  0.1038
 7087W        W23935  16.798   2.756  15.473  0.0693 -0.0132  0.0664
 7088W        W23936   1.710   0.502   2.190 -0.0970  0.1356 -0.0813
 7089W        W23937  13.639  11.630   2.326  0.1763  0.0581  0.0463
 7090W        W23938   7.588  15.712   6.731  0.2192  0.1106  0.3003
 7091W        W23939   8.421   7.270   5.514 -0.0036 -0.3391 -0.2213
 7092W        W23940   0.107   8.281  14.091  0.0940 -0.1405 -0.1222
 7093W        W23941  15.892   6.038  13.930 -0.1305  0.0779 -0.2546
 7094W        W23942   3.052  11.301  15.160  0.1546 -0.1340  0.1912
 7095W        W23943   6.374  10.075   5.738  0.0176  0.0710 -0.0227
 7096W        W23944   5.750   8.008   1.553 -0.1855  0.0148 -0.1921
 7097W        W23945   7.530  16.606   4.045 -0.1662  0.0644  0.1690
 7098W        W23946   1.619   6.555  12.024 -0.3234 -0.2018  0.0276
 7099W        W23947   7.788   6.316  13.707  0.3150  0.1084 -0.1612
 7100W        W23948   9.502  14.320  15.894 -0.2024  0.0063 -0.0334
 7101W        W23949  12.368   3.887  12.360  0.0162  0.1549 -0.1047
 7102W        W23950  10.476  13.992  12.539  0.1860 -0.1055 -0.3387
 7103W        W23951   3.236  11.408  12.979 -0.3092 -0.1437  0.1994
 7104W        W23952  16.360  14.616   1.293 -0.0509 -0.4404  0.1262
 7105W        W23953   9.689  14.550   5.495 -0.2286  0.0107 -0.0337
 7106W        W23954  14.668  12.743  17.049 -0.3523 -0.2044 -0.1598
 7107W        W23955   9.673  14.785   2.601  0.0614  0.0832 -0.3537
 7108W        W23956   6.749   5.365   4.905  0.2325 -0.3161 -0.2928
 7109W        W23957  10.551  10.750   4.430  0.3086 -0.3317 -0.0221
 7110W        W23958  14.930   7.166   5.679 -0.2679  0.0711  0.1587
 7111W        W23959   8.851   5.174   0.363  0.0173 -0.0941  0.3266
 7112W        W23960  15.820  13.863   5.853  0.1751  0.1249  0.0332
 7113W        W23961   6.902   2.862  12.488 -0.0757  0.2504 -0.0911
 7114W        W23962   7.179  14.969  17.639 -0.0353 -0.2364  0.1537
 7115W        W23963   2.135   9.195   5.215 -0.0042  0.1039  0.3152
 7116W        W23964   4.336   9.453   4.684  0.2241  0.2223  0.0382
 7117W        W23965  12.961   9.234   5.108 -0.4280  0.1108 -0.1151
 7118W        W23966   9.824   7.483  17.341 -0.3075  0.0325  0.0407
 7119W        W23967  16.046   5.296  16.455  0.2429 -0.0668 -0.1079
 7120W        W23968   5.026  10.792  15.325 -0.0338  0.0721 -0.3678
 7121W        W23969   2.027  11.940  17.542  0.1290 -0.2372 -0.1541
 7122W        W23970  12.044   5.663  17.765  0.2804 -0.1520 -0.0332
 7123W        W23971   1.781   6.862   3.532  0.1697  0.1814 -0.1683
 7124W        W23972  13.749   7.573  15.960  0.1280  0.0485  0.0172
 7125W        W23973  15.447  10.195  15.637  0.0201  0.1707 -0.2759
 7126W        W23974   9.688  10.557   1.263 -0.2535 -0.0369 -0.2258
 7127W        W23975  11.530  10.132  13.168  0.0426  0.1767  0.0879
 7128W        W23976  12.710   6.181   5.589 -0.1307  0.3659 -0.2252
 7129W        W23977   4.584  16.365  16.686  0.6140 -0.2220 -0.2171
 7130W        W23978   8.733  11.330  12.530  0.2892 -0.1393 -0.0227
 7131W        W23979   5.046   3.509   2.531 -0.1898  0.0433 -0.1364
 7132W        W23980   1.939  16.229  14.002 -0.0612  0.2420 -0.1225
 7133W        W23981   8.281  13.550  16.399  0.1162 -0.0189 -0.0570
 7134W        W23982  14.552  14.219   6.415  0.1427  0.0915  0.2071
 7135W        W23983   7.775   1.697  16.567 -0.0574  0.0470 -0.0524
 7136W        W23984  16.067   4.683  12.559 -0.3203 -0.2781 -0.1698
 7137W        W23985   1.923   9.879  15.293 -0.0053 -0.0361 -0.1681
 7138W        W23986  14.114   5.540  15.446  0.1988 -0.1218 -0.1461
 7139W        W23987   0.086   2.437   0.343  0.0435  0.0306 -0.1782
 7140W        W23988   3.290  12.590  14.825 -0.1441  0.0878  0.0857
 7141W        W23989  13.448  13.266  14.879 -0.0272  0.1897  0.1369
 7142W        W23990   2.419  10.300  14.395 -0.0344 -0.1480  0.0952
 7143W        W23991  15.668   6.466   4.726 -0.0335  0.0098  0.0063
 7144W        W23992   1.961   9.842  12.800  0.0809  0.2243 -0.0263
 7145W        W23993   0.565  10.994  12.537 -0.0665  0.0218 -0.2272
 7146W        W23994   3.506   6.398   4.971  0.0162  0.0720 -0.0540
 7147W        W23995   0.862  14.835  17.276  0.2231 -0.0709  0.1441
 7148W        W23996   0.222  13.467  14.597  0.1485 -0.5851  0.2538
 7149W        W23997  12.364   0.534  16.174  0.1878 -0.0993  0.2190
 7150W        W23998   0.967   7.130   5.077 -0.0577  0.0547 -0.1133
 7151W        W23999  14.226  13.888   5.205 -0.0963 -0.2940 -0.0448
 7152W        W24000   0.429   9.721  14.921  0.0940  0.2080  0.1495
 7153W        W24001   5.007   9.186   4.120 -0.0479  0.0840 -0.1582
 7154W        W24002   4.391   3.831  17.373 -0.2982  0.5336  0.0537
 7155W        W24003   5.295   3.972  13.660  0.2440  0.2464  0.1301
 7156W        W24004   0.121  11.351  12.792  0.0331  0.1841  0.0999
 7157W        W24005   8.485   5.412  17.850 -0.1924 -0.0640 -0.4094
 7158W        W24006  13.668  11.591   2.996  0.1811 -0.3921  0.2691
 7159W        W24007   7.442   1.135   4.523  0.1713  0.0401 -0.0480
 7160W        W24008  16.618  12.779  12.568  0.2109  0.0605 -0.1912
 7161W        W24009   8.783  10.690  12.868 -0.0715 -0.4014  0.0659
 7162W        W24010   1.002   5.748  15.921  0.0753  0.1528  0.1347
 7163W        W24011   3.836   8.716  15.228 -0.2495 -0.2139 -0.2934
 7164W        W24012  13.664   2.718  17.707  0.0069 -0.1714  0.1345
 7165W        W24013  15.434  14.361  13.678  0.1878  0.0032 -0.0848
 7166W        W24014   0.677   6.422   0.622 -0.0342  0.0055  0.2565
 7167W        W24015   9.243   8.842  15.608  0.0885 -0.0459 -0.0422
 7168W        W24016   4.362   4.111  15.452  0.0713 -0.1204 -0.4281
 7169W        W24017  16.676   9.732  14.985 -0.2356  0.0727 -0.3747
 7170W        W24018   4.061   4.141  13.290 -0.1680 -0.1162 -0.1678
 7171W        W24019  10.581  15.554   0.100 -0.2388  0.1914 -0.0425
 7172W        W24020  10.122   5.844   4.621 -0.1774 -0.4690  0.1609
 7173W        W24021   4.614  16.160   0.258 -0.2803  0.1724 -0.1153
 7174W        W24022   5.239   6.661   0.255 -0.1039  0.2067 -0.0882
 7175W        W24023   0.177  14.969   0.917  0.0994 -0.0670  0.0848
 7176W        W24024   0.007   4.347   4.177 -0.0160  0.0262  0.2081
 7177W        W24025  15.765   3.131  12.718 -0.1543  0.1863 -0.1287
 7178W        W24026  10.820   1.321   1.222  0.1048 -0.0211  0.1126
 7179W        W24027   7.247   6.146  16.698 -0.1049  0.0766 -0.0839
 7180W        W24028   7.860   1.048  14.656  0.4034  0.0037  0.3477
 7181W        W24029   9.940   7.221  15.003 -0.0878 -0.0921  0.2651
 7182W        W24030   8.416   5.437   4.559 -0.2943  0.0533  0.2389
 7183W        W24031   0.580  15.386   5.435  0.2033 -0.2809 -0.1723
 7184W        W24032   1.853  13.667   1.999 -0.0610 -0.0181 -0.0016
 7185W        W24033  16.384   4.985  15.372  0.0955 -0.0103 -0.0111
 7186W        W24034   2.838   9.766  17.409 -0.0948  0.1356 -0.1783
 7187W        W24035  16.379   2.837  16.381  0.2635  0.1209  0.0780
 7188W        W24036  11.975  14.460  13.414 -0.0220 -0.2019  0.1885
 7189W        W24037  13.967  10.606   1.257  0.1544 -0.2016  0.0998
 7190W        W24038  11.421   0.936   0.120 -0.0763 -0.0376  0.4607
 7191W        W24039  12.560  15.204  17.389 -0.1176 -0.1480  0.3488
 7192W        W24040   7.284  16.200  14.275 -0.1860  0.0086 -0.1255
 7193W        W24041   0.679   0.842   5.009  0.0081 -0.0931 -0.1097
 7194W        W24042   6.375   1.198  14.199 -0.3169 -0.1957 -0.4102
 7195W        W24043  10.493   9.428   2.853 -0.0398  0.4059 -0.1480
 7196W        W24044  15.805   8.733   0.232 -0.0462  0.0739 -0.0207
 7197W        W24045   0.897  10.932   4.257 -0.0434 -0.2834 -0.0123
 7198W        W24046   9.492  16.262  13.512 -0.3284 -0.1438  0.0682
 7199W        W24047  11.858   6.179  15.848 -0.2563 -0.1099  0.0380
 7200W        W24048  16.304   9.408   5.783  0.0593 -0.0435  0.1393
 7201W        W24049  16.108   5.374  14.538  0.0959  0.1762 -0.2435
 7202W        W24050  14.875  12.254  15.359  0.2490 -0.0060 -0.1787
 7203W        W24051   1.066   6.608  14.990  0.1993 -0.1191  0.1379
 7204W        W24052  12.666  15.876  12.068 -0.1372 -0.1068 -0.0524
 7205W        W24053  13.662  10.351   2.178 -0.0112  0.2531 -0.0580
 7206W        W24054   5.325  13.123  11.826  0.0796  0.1900  0.0107
 7207W        W24055  11.321   9.465  13.607 -0.1680  0.1431  0.0750
 7208W        W24056   1.848  12.485  15.872  0.2316  0.0950 -0.1909
 7209W        W24057   8.276   5.891   0.273 -0.2631 -0.1259  0.0525
 7210W        W24058   3.042   0.396   4.675 -0.1798  0.0770  0.0256
 7211W        W24059   9.346   5.116   0.301  0.0181 -0.1307 -0.2597
 7212W        W24060  13.950   1.448  11.977  0.3900  0.0489  0.0660
 7213W        W24061   4.902   9.544  16.587  0.0114  0.1761 -0.0751
 7214W        W24062   5.501   1.191  14.229 -0.0496  0.1891  0.0869
 7215W        W24063   4.817   9.979  16.795 -0.0659  0.2013  0.1233
 7216W        W24064   9.762   0.143   2.240 -0.0565 -0.1777  0.4751
 7217W        W24065  14.529   7.335  15.681  0.0039  0.3091 -0.0545
 7218W        W24066   5.638   6.707   1.271  0.2157  0.3303  0.0992
 7219W        W24067  16.048   7.715   3.369 -0.0438  0.0849 -0.1055
 7220W        W24068   8.190   6.500   4.540 -0.2415 -0.0315 -0.1027
 7221W        W24069   6.872   2.231  13.822  0.0968 -0.0589 -0.1133
 7222W        W24070  11.606   5.912  15.290  0.2959 -0.1005 -0.0882
 7223W        W24071  12.097  15.599   4.667  0.1304 -0.1775 -0.1354
 7224W        W24072   6.914   5.614  12.914  0.0740 -0.1169  0.0391
 7225W        W24073  14.108   2.577  13.820 -0.0380 -0.2734 -0.2760
 7226W        W24074   9.718  12.172   3.627 -0.0820  0.0059  0.3543
 7227W        W24075   1.723   6.516   1.785 -0.0301  0.1782 -0.0408
 7228W        W24076  17.018  11.153   5.199  0.2192  0.0215 -0.3497
 7229W        W24077   8.146   5.748   3.229 -0.0226  0.1442  0.3135
 7230W        W24078   0.357   9.307  12.737  0.1327  0.2067  0.0750
 7231W        W24079   8.485  11.442   5.150  0.2666 -0.0180  0.2543
 7232W        W24080   3.457   4.960   3.638  0.3431 -0.0013 -0.2057
 7233W        W24081  15.034   7.595   5.264 -0.0051  0.2226  0.0865
 7234W        W24082  16.604  15.463   3.483 -0.1454 -0.1874 -0.0323
 7235W        W24083  14.321  14.968   2.572 -0.2271  0.3872 -0.2949
 7236W        W24084   7.609  12.921  14.880 -0.0422 -0.0698  0.0441
 7237W        W24085   5.793  14.749   3.243  0.2908  0.1472  0.0151
 7238W        W24086   3.193   5.580   5.252  0.3823 -0.0294  0.0372
 7239W        W24087   8.442  16.273   3.111 -0.0196 -0.0031  0.3541
 7240W        W24088   0.444   5.617  13.998 -0.0314  0.2834 -0.0755
 7241W        W24089  14.081  12.416  14.688  0.4413 -0.1613 -0.3625
 7242W        W24090   8.751  12.946  17.682 -0.0184 -0.0423  0.1841
 7243W        W24091  12.152   7.404  17.750  0.2223 -0.1695  0.0458
 7244W        W24092  12.750   9.882   1.093 -0.5484  0.2396  0.1485
 7245W        W24093   9.028   4.176   0.578 -0.2892  0.3021 -0.0561
 7246W        W24094   3.537  15.426   1.771 -0.0498 -0.0310 -0.1223
 7247W        W24095   7.755   2.283   3.626  0.2017  0.1215  0.2576
 7248W        W24096  11.074  13.837   0.928  0.0834 -0.1612  0.1511
 7249W        W24097  15.177  10.598  13.382 -0.0573  0.0378 -0.0414
 7250W        W24098   8.802   7.257  16.258 -0.2408 -0.2226 -0.0132
 7251W        W24099  12.453  10.776  16.387  0.1756  0.0958 -0.1284
 7252W        W24100  13.912  15.990  12.589  0.2170 -0.3063 -0.1390
 7253W        W24101  14.001  13.570   4.599  0.0288  0.1438 -0.3996
 7254W        W24102  15.231  15.538   6.483  0.0313 -0.1529 -0.0490
 7255W        W24103  14.741   5.831   0.033  0.0253 -0.0083 -0.0165
 7256W        W24104  11.320  16.873   3.954 -0.0492  0.3650  0.3017
 7257W        W24105   8.529  10.001   1.584 -0.0244 -0.2745 -0.0818
 7258W        W24106  13.569   3.890  14.887  0.1383 -0.1142 -0.0118
 7259W        W24107  11.062  13.217  16.471 -0.1954 -0.1834 -0.3560
 7260W        W24108  14.441  12.734  14.501  0.0696 -0.1063 -0.1380
 7261W        W24109   6.165  12.452   5.302  0.0798 -0.1668 -0.1137
 7262W        W24110   7.424   6.173  15.723  0.2492  0.0207  0.0354
 7263W        W24111   2.163  13.340  12.368 -0.1942  0.2584  0.1284
 7264W        W24112   3.925  10.952  14.751 -0.2338  0.0866  0.0032
 7265W        W24113   4.429  11.110  15.531 -0.0137 -0.0921 -0.3772
 7266W        W24114  15.854   9.395   3.247  0.0571 -0.1637  0.0341
 7267W        W24115   5.250  16.821   4.188 -0.0049  0.0911 -0.3258
 7268W        W24116   5.301   5.818   2.331 -0.0469 -0.0555  0.2446
 7269W        W24117  14.478  11.504   4.335  0.0444 -0.3436  0.2378
 7270W        W24118  14.822   4.628  16.450  0.2106 -0.2931 -0.1137
 7271W        W24119   7.661  16.265  15.920  0.0732  0.0111 -0.0862
 7272W        W24120   8.675  16.904   2.959  0.0054  0.0075 -0.1533
 7273W        W24121   5.562   3.529  16.677  0.1034  0.2431 -0.1198
 7274W        W24122   2.587   2.522   0.681 -0.0679  0.1778 -0.1853
 7275W        W24123   1.477  11.234   5.937  0.1485  0.0621  0.2275
 7276W        W24124   8.958  12.824  15.318  0.0666 -0.0104 -0.2157
 7277W        W24125   0.418   9.470   3.143  0.0445 -0.1380  0.0101
 7278W        W24126   5.221   9.840  12.280 -0.1822  0.2801 -0.2102
 7279W        W24127   0.512  16.439  16.331  0.1690  0.0012  0.0415
 7280W        W24128   5.419   9.549  16.600 -0.1275 -0.1068 -0.1583
 7281W        W24129  11.369   5.606  11.388  0.1830 -0.2215  0.0348
 7282W        W24130   3.266   9.848  13.513 -0.2442  0.0088  0.0977
 7283W        W24131  13.900   8.580   2.904 -0.0562 -0.0926  0.1218
 7284W        W24132   2.250   2.864  13.087  0.0278 -0.1250 -0.1620
 7285W        W24133  14.427   5.409   5.566  0.1940 -0.6117 -0.2290
 7286W        W24134  13.698   1.190  14.006  0.1002  0.0378 -0.0770
 7287W        W24135  12.773   0.224   1.456  0.3807 -0.0634  0.3589
 7288W        W24136   4.926   8.260  13.459  0.0596  0.1651  0.0887
 7289W        W24137   1.815   6.369  17.695 -0.1376 -0.1732  0.0869
 7290W        W24138   0.089  12.033   3.530 -0.3012 -0.1493  0.1962
 7291W        W24139   0.433   9.495   0.760  0.0087  0.0391 -0.0974
 7292W        W24140   3.347   5.420   0.766 -0.0501 -0.0318  0.1212
 7293W        W24141   7.243  15.369   1.288 -0.1371  0.0078  0.0937
 7294W        W24142   7.800  15.543  17.245  0.0134 -0.0854 -0.0613
 7295W        W24143   9.397   3.467   1.871 -0.0324 -0.3035  0.1885
 7296W        W24144  15.415   7.661   3.430 -0.1531  0.0046 -0.0826
 7297W        W24145   9.803   5.768  17.806  0.0655 -0.0253 -0.1966
 7298W        W24146  13.651   9.617  14.738 -0.0687  0.2011  0.1528
 7299W        W24147   5.065  16.906   0.623 -0.0048  0.1715  0.4488
 7300W        W24148  16.752   8.517  13.412  0.1434 -0.3929  0.1422
 7301W        W24149  15.655  15.686   4.249 -0.0219 -0.1224 -0.0186
 7302W        W24150   6.299   8.548  17.792  0.1426 -0.1664 -0.1086
 7303W        W24151  11.366   0.324   3.788 -0.0048  0.0488 -0.2749
 7304W        W24152   2.535  15.868  14.557  0.1797 -0.3871  0.0268
 7305W        W24153   3.080   0.239   1.702  0.1207  0.1662  0.1128
 7306W        W24154   6.396   7.610   5.988  0.0131  0.0746 -0.2247
 7307W        W24155   4.173   7.490  16.874  0.1174  0.2602 -0.0175
 7308W        W24156  11.283  11.279  12.852 -0.0153  0.0455 -0.0517
 7309W        W24157   8.144   0.585   3.413  0.0203 -0.1545  0.2309
 7310W        W24158  13.681   6.362   0.921  0.0966  0.1645 -0.3766
 7311W        W24159   3.091   2.741  12.763 -0.1436 -0.0802 -0.1543
 7312W        W24160   7.352   1.159  17.201  0.2363  0.1041  0.0819
 7313W        W24161  10.950   9.510  12.791 -0.1148 -0.1179  0.3679
 7314W        W24162   8.848  13.335  15.160 -0.0720 -0.3098  0.1791
 7315W        W24163   1.603   9.792   3.654 -0.0802  0.3893  0.2286
 7316W        W24164   6.367   1.212  15.860  0.3087  0.2581 -0.0193
 7317W        W24165   3.966  10.657   4.629  0.2439 -0.0583 -0.0688
 7318W        W24166   3.833   4.230   0.533 -0.1632  0.1984  0.3447
 7319W        W24167   1.169   6.516   4.281  0.1162  0.2441 -0.3482
 7320W        W24168  16.257   8.901   5.541 -0.0044 -0.1714  0.1739
 7321W        W24169  16.334   0.216   0.895 -0.0271  0.1180 -0.0938
 7322W        W24170   1.292   7.793  14.279  0.1073 -0.0864  0.0022
 7323W        W24171   8.594   2.197   0.608  0.2087 -0.1268  0.0063
 7324W        W24172   1.527   5.077   5.645 -0.1894  0.0234  0.3715
 7325W        W24173   4.241   3.347  17.171 -0.0409 -0.0857 -0.2692
 7326W        W24174  16.959   1.666  16.536 -0.3408  0.1353  0.0930
 7327W        W24175  11.004  15.069   1.743  0.0867  0.1531  0.2179
 7328W        W24176   2.370   0.405   0.446 -0.0653  0.0365 -0.1519
 7329W        W24177  13.038  10.367   5.889 -0.1266 -0.2289 -0.1333
 7330W        W24178   6.531   8.018   1.014 -0.0007 -0.0148  0.1311
 7331W        W24179   2.343   8.606   4.564  0.0436 -0.0828 -0.4551
 7332W        W24180  14.122  13.517   3.601 -0.1040 -0.1256  0.0056
 7333W        W24181   5.799   8.440   4.851 -0.6376  0.0238  0.0644
 7334W        W24182  11.461  16.752   4.513  0.3081 -0.0907  0.1829
 7335W        W24183   6.243   8.171   2.397 -0.1997  0.2225  0.0834
 7336W        W24184  15.846  16.470  17.160 -0.0591 -0.1818 -0.4358
 7337W        W24185   8.640  13.137  16.160  0.1327  0.1128  0.2094
 7338W        W24186  16.312  10.488   1.364 -0.0766  0.0024  0.2421
 7339W        W24187  10.206  14.710  15.467  0.0896 -0.2374  0.0092
 7340W        W24188  12.519   6.232  15.630 -0.0243 -0.0938 -0.1768
 7341W        W24189  12.836   4.901   1.457  0.2352 -0.1390 -0.0199
 7342W        W24190   0.024   4.770   4.918  0.2637 -0.0754 -0.0310
 7343W        W24191  13.648   9.125   5.671  0.1580 -0.2185  0.5974
 7344W        W24192  16.124   6.526   4.005  0.1933 -0.1025 -0.2138
 7345W        W24193   5.463   0.837  17.151  0.1216  0.0613 -0.1275
 7346W        W24194   4.799  10.842   5.713  0.0156  0.1709  0.1462
 7347W        W24195  13.885   6.812   5.688  0.0404  0.0440  0.0490
 7348W        W24196   6.748   6.858   2.118  0.4466 -0.2072 -0.0339
 7349W        W24197   3.800  13.351  16.705 -0.0907  0.1678  0.0410
 7350W        W24198  14.656   8.240  13.108  0.2480 -0.2220  0.0180
 7351W        W24199  16.567   8.419   2.841 -0.1193  0.0692 -0.1775
 7352W        W24200  13.246   9.371   5.526 -0.1716  0.0720  0.3395
 7353W        W24201   3.312   1.361   0.893  0.0819 -0.1035 -0.0859
 7354W        W24202   2.295   3.229   5.871  0.0877  0.1826  0.1402
 7355W        W24203  14.805  11.784  16.659  0.0537  0.2594 -0.1267
 7356W        W24204   9.352   5.460  16.526  0.1469 -0.2791  0.1441
 7357W        W24205   3.339   9.541   5.013 -0.2958 -0.1020 -0.0050
 7358W        W24206   0.072   7.661   5.883 -0.2362 -0.3113  0.1934
 7359W        W24207   4.746   5.810   2.365 -0.1007 -0.3068 -0.0364
 7360W        W24208   1.967   3.772   1.127 -0.2333  0.1612  0.0547
 7361W        W24209   8.265  14.329  17.037  0.0089 -0.0809 -0.0964
 7362W        W24210   7.083   2.760   3.861 -0.0828  0.2006 -0.1636
 7363W        W24211   1.974   9.065  14.507 -0.4105  0.0533 -0.3135
 7364W        W24212  15.280  16.569  15.000 -0.0095 -0.0145  0.5564
 7365W        W24213   3.826  16.096   2.686  0.2922  0.0734 -0.0620
 7366W        W24214  13.251  16.389   1.285  0.0543  0.2932  0.2068
 7367W        W24215   1.765   2.542   5.418 -0.0574 -0.1453 -0.0221
 7368W        W24216  10.693   8.578   0.240  0.0398 -0.1523 -0.0005
 7369W        W24217   8.053   5.543  15.867 -0.0728 -0.1863 -0.1720
 7370W        W24218  10.753   7.027   6.000 -0.1475 -0.0390 -0.1011
 7371W        W24219   8.855   1.692  12.805 -0.1583  0.1753  0.1705
 7372W        W24220   2.254   7.571  15.467  0.0373 -0.0729 -0.1923
 7373W        W24221   0.780   9.741  14.499  0.3781 -0.0245  0.1336
 7374W        W24222   6.786   8.955   2.009 -0.1246  0.0851  0.0930
 7375W        W24223   3.498  11.872  14.706 -0.0443  0.0221 -0.0567
 7376W        W24224  13.512  10.922   1.326  0.0831  0.1697 -0.0169
 7377W        W24225  15.752  12.062  15.311  0.2986  0.1840 -0.0721
 7378W        W24226   7.341  15.676  17.397  0.3249 -0.0000 -0.1888
 7379W        W24227   3.039   3.378  17.407  0.2757  0.0547  0.0318
 7380W        W24228   6.186  11.221  15.991 -0.1350  0.0617 -0.1493
 7381W        W24229   7.210  16.356   4.274 -0.0378  0.1518  0.1976
 7382W        W24230  14.107   1.985  16.995  0.0903  0.1735  0.1285
 7383W        W24231   0.605   5.875   1.205  0.2113 -0.0363 -0.4030
 7384W        W24232   8.337   2.498   0.253  0.1849  0.0091 -0.5087
 7385W        W24233   8.954   0.399   3.423  0.2003  0.0346  0.2695
 7386W        W24234  10.212   9.463  14.764  0.2148 -0.0403 -0.1340
 7387W        W24235  12.307   0.944  15.840  0.1214 -0.1049 -0.0110
 7388W        W24236  11.821   7.046   3.974  0.1057  0.2846  0.0480
 7389W        W24237  15.479  10.898   3.353 -0.0376  0.0300  0.0658
 7390W        W24238   5.958  15.486   2.577 -0.2298 -0.0861  0.0079
 7391W        W24239   9.560   2.426  14.609 -0.0038  0.2330  0.0848
 7392W        W24240   8.235   8.344  17.352 -0.2117  0.0857 -0.3411
 7393W        W24241  16.773  14.821   4.650  0.0478 -0.1427  0.0104
 7394W        W24242   8.913  15.101  16.034 -0.0527  0.0024  0.2849
 7395W        W24243  14.264  13.079   3.353 -0.1686 -0.0139  0.5112
 7396W        W24244  16.228  13.706   2.013 -0.2076 -0.1860 -0.2056
 7397W        W24245   0.971  12.314   1.569 -0.2478  0.1414 -0.1183
 7398W        W24246   0.580   2.205   4.583  0.0519 -0.1053  0.0464
 7399W        W24247  13.402  14.605   2.561 -0.0334  0.0660  0.0231
 7400W        W24248  15.578   4.887   4.728  0.0721 -0.1543 -0.0064
 7401W        W24249   1.577  10.056   2.755  0.0679 -0.0056  0.0973
 7402W        W24250  11.395   5.290   4.033  0.1432 -0.0407  0.1636
 7403W        W24251  15.511   2.966  15.236  0.2890  0.0043 -0.3222
 7404W        W24252   7.474   6.681  13.881 -0.0493 -0.1978  0.0315
 7405W        W24253  10.855  16.316   1.216  0.2701  0.1053  0.0267
 7406W        W24254  11.771   6.239   1.913  0.2205 -0.1581  0.1297
 7407W        W24255   6.522  15.574   4.706  0.0693 -0.1013 -0.3441
 7408W        W24256  14.063  16.277  13.576 -0.2649  0.1016  0.2604
 7409W        W24257  12.240  11.998   0.069 -0.2273 -0.1327 -0.1662
 7410W        W24258  16.149   3.757  14.564 -0.0597 -0.0027 -0.1169
 7411W        W24259   2.219  14.150  15.279 -0.0704 -0.2342  0.1096
 7412W        W24260  11.701  13.090   4.169 -0.3359  0.1398  0.1844
 7413W        W24261  11.426   3.170  12.573  0.1450 -0.4550  0.0368
 7414W        W24262  12.093   4.025   4.324 -0.0960  0.0067 -0.0990
 7415W        W24263   4.498   1.967   2.295 -0.2358 -0.2412 -0.0644
 7416W        W24264  10.007  14.018  14.869 -0.1269  0.0836  0.2106
 7417W        W24265  13.171   3.383   2.232 -0.2744  0.0458 -0.1935
 7418W        W24266  11.967  12.192  13.147  0.0640  0.0804 -0.1630
 7419W        W24267   6.756   9.525   2.676  0.1170  0.0242 -0.3565
 7420W        W24268  16.877  16.652   2.419 -0.0753  0.2521 -0.1947
 7421W        W24269   3.184   6.441  17.379  0.0384  0.2059 -0.2403
 7422W        W24270   0.306  15.950   0.086 -0.0261 -0.0561  0.2583
 7423W        W24271   6.387  15.546   1.133 -0.0429  0.0217 -0.0063
 7424W        W24272  14.247   8.057   1.882  0.1668 -0.0527 -0.1791
 7425W        W24273  12.648   3.453   2.394 -0.1757  0.1838 -0.2597
 7426W        W24274   8.356  16.985   5.786  0.0904  0.0827 -0.2292
 7427W        W24275  12.675   9.407  12.710 -0.3731 -0.2620  0.2667
 7428W        W24276  13.977   6.645   4.873  0.3548  0.2621 -0.1924
 7429W        W24277   4.517  13.893  17.496  0.3337  0.3089 -0.3543
 7430W        W24278   4.769   1.488   3.623  0.2240  0.0422  0.2113
 7431W        W24279   4.819  10.796   0.120 -0.1606  0.0212  0.0232
 7432W        W24280   0.780  16.157  16.665  0.0987 -0.1441 -0.0543
 7433W        W24281  11.316  11.129  16.674  0.1497  0.3737 -0.1725
 7434W        W24282  14.305   5.499  14.537 -0.0641  0.0331 -0.2399
 7435W        W24283  15.729   4.267  15.505  0.1212 -0.0041 -0.2915
 7436W        W24284  15.050  16.536   4.108  0.0099 -0.0504  0.2510
 7437W        W24285  15.821   7.315   4.712  0.0293  0.1949 -0.1274
 7438W        W24286   0.267  15.870   0.620 -0.0132  0.1600  0.5345
 7439W        W24287   5.666   8.017  14.158 -0.1793  0.0858  0.0370
 7440W        W24288   7.907   6.977  15.752 -0.0785  0.0428 -0.1104
 7441W        W24289  11.915   0.687  15.865  0.1559 -0.1120 -0.1026
 7442W        W24290  14.755   2.168   4.131  0.2686  0.2652 -0.1268
 7443W        W24291   2.800  11.460   0.201 -0.0586  0.0671  0.0433
 7444W        W24292  15.941   1.826   2.409  0.0354  0.2684 -0.0160
 7445W        W24293  16.760  15.631  14.220  0.0774  0.1000  0.4742
 7446W        W24294   4.194   9.394   0.414  0.3145  0.1460 -0.0986
 7447W        W24295   1.277   9.683   4.903  0.1536  0.1881  0.0726
 7448W        W24296   9.710   7.226  15.956  0.0801 -0.0444  0.0215
 7449W        W24297  15.679  13.624  13.668 -0.0136  0.0961  0.0428
 7450W        W24298  13.661   0.850   3.519 -0.0869 -0.1823  0.1444
 7451W        W24299   0.944  16.755  13.215 -0.0115  0.1175 -0.2673
 7452W        W24300   9.448   6.464  12.821 -0.5490 -0.0898 -0.0023
 7453W        W24301   8.912   7.353   3.690 -0.0342  0.1692  0.0875
 7454W        W24302   3.402   1.079   2.678 -0.1522  0.4461  0.0871
 7455W        W24303  16.567   4.992  12.665  0.2708 -0.1434  0.2241
 7456W        W24304   5.332   3.188   2.302  0.1060 -0.1561 -0.0603
 7457W        W24305   7.975   5.293  12.671  0.2346  0.1614 -0.2566
 7458W        W24306   5.608   9.598  12.341  0.0772 -0.1030 -0.0701
 7459W        W24307  10.240  10.495  12.793 -0.1229  0.1122  0.3799
 7460W        W24308   3.161   2.897  13.206 -0.0713 -0.2181  0.2069
 7461W        W24309   0.833  15.576   0.127  0.2365  0.1534 -0.1020
 7462W        W24310   6.949   1.168   1.899  0.2018  0.1051  0.0487
 7463W        W24311  11.848   8.393  16.351  0.1242  0.1442  0.1397
 7464W        W24312   5.654   4.061   1.513  0.1851  0.1941  0.3186
 7465W        W24313   1.541   6.662  14.899 -0.2257 -0.0235 -0.0154
 7466W        W24314  10.748  13.246   3.584  0.0266 -0.2597 -0.2355
 7467W        W24315   4.666  15.865   1.291 -0.1614 -0.3774  0.0741
 7468W        W24316   0.380  11.115   2.755  0.2070 -0.2595 -0.0749
 7469W        W24317   5.655   0.031  16.756 -0.2091 -0.0913 -0.0820
 7470W        W24318  10.205  13.079   0.538  0.1792  0.1735 -0.1310
 7471W        W24319  11.204  15.180  17.135  0.4112 -0.1515 -0.1491
 7472W        W24320   4.647   1.240   3.134 -0.3226  0.2077 -0.1347
 7473W        W24321   4.228  13.687   3.023  0.4166  0.0298  0.0268
 7474W        W24322   0.234  11.660   3.989  0.0097 -0.1115 -0.0963
 7475W        W24323   2.778   9.762   2.174  0.0070  0.2137  0.1659
 7476W        W24324  15.164   4.676   4.876  0.1953 -0.0690  0.0276
 7477W        W24325   6.034  15.355  12.321  0.0726  0.0400  0.2821
 7478W        W24326   1.469  16.554   4.664 -0.0421  0.2836  0.0667
 7479W        W24327   3.185   3.029   3.943  0.4455  0.1384 -0.1801
 7480W        W24328   6.567   8.231   4.249 -0.0825  0.2718 -0.2678
 7481W        W24329  16.147  15.729  12.780  0.1005 -0.2082  0.1087
 7482W        W24330  13.890  10.051   5.136  0.1656  0.3372  0.2190
 7483W        W24331  15.770   1.047  16.646 -0.0940 -0.0702  0.0500
 7484W        W24332   8.677   4.222  17.169  0.1048  0.3413 -0.1761
 7485W        W24333  10.928  16.108  14.807 -0.0067 -0.0367 -0.1048
 7486W        W24334  13.197   5.722   5.041 -0.0460  0.1145 -0.2367
 7487W        W24335   1.068  14.414  12.419  0.0190  0.0444 -0.2322
 7488W        W24336   4.775   6.402  17.376  0.2607 -0.1116  0.1208
 7489W        W24337   8.725   9.117   5.514 -0.0755  0.1440 -0.1896
 7490W        W24338  15.498   0.047  12.411  0.0910  0.2667  0.1531
 7491W        W24339  11.391   2.220  15.662  0.0775  0.0850  0.0076
 7492W        W24340  10.098   6.072  12.782 -0.0767 -0.1741  0.0548
 7493W        W24341  13.635  12.225   2.257 -0.1041 -0.2766  0.1735
 7494W        W24342  15.350   2.068  15.975 -0.1315 -0.2967  0.1176
 7495W        W24343   3.303  14.171  16.083  0.3855 -0.3755  0.1393
 7496W        W24344  13.506  10.397  14.072  0.1925  0.2302  0.0105
 7497W        W24345   3.550   6.427   0.808 -0.2863  0.0277 -0.0420
 7498W        W24346  10.841   6.129  12.111  0.1947  0.1206  0.0841
 7499W        W24347  12.229  13.680  17.794  0.1188  0.2097 -0.0549
 7500W        W24348   1.683   9.259   4.519  0.2262 -0.1861  0.2487
 7501W        W24349   9.908   4.779   5.401  0.0173  0.1710 -0.0464
 7502W        W24350  16.994   4.738  17.255 -0.0556  0.2105 -0.0506
 7503W        W24351  14.336  11.944   4.975  0.4045 -0.1444  0.1862
 7504W        W24352   5.990   0.020  13.904  0.0420  0.2764 -0.3401
 7505W        W24353   2.771   7.448  15.894  0.2063  0.1304  0.0691
 7506W        W24354   5.454  12.518   1.564  0.0964  0.1779  0.1700
 7507W        W24355   5.674   0.575  16.806  0.0811  0.0755  0.1921
 7508W        W24356  16.897   5.973  17.314  0.0262 -0.0898  0.4237
 7509W        W24357  15.203   0.181   2.403 -0.1016  0.3033 -0.0131
 7510W        W24358  12.619  13.913  17.414 -0.1487  0.1754  0.0268
 7511W        W24359  16.841   4.120  16.844  0.1376  0.0967 -0.2957
 7512W        W24360   5.448   2.382   0.823  0.0460 -0.0256  0.0220
 7513W        W24361   0.061   4.901   4.001  0.1052 -0.0576  0.0932
 7514W        W24362   1.177  11.418  15.244  0.2881  0.2281 -0.1215
 7515W        W24363   7.335   2.865  16.732  0.1475  0.0144  0.0107
 7516W        W24364   5.873  16.512  15.628 -0.2680 -0.0755 -0.0749
 7517W        W24365   4.867   6.890  17.066 -0.2167 -0.1104  0.0892
 7518W        W24366   3.665   5.282  16.617 -0.3060 -0.0932 -0.1421
 7519W        W24367  12.149   1.178   1.447  0.0980 -0.1094  0.4920
 7520W        W24368   9.925  11.860   3.326 -0.2698 -0.0884  0.1685
 7521W        W24369   1.784   5.231   1.792 -0.1468 -0.0480 -0.0070
 7522W        W24370  10.350  11.646   0.944  0.2199 -0.0971 -0.0466
 7523W        W24371  12.812   0.987  13.935  0.1280  0.0279  0.0802
 7524W        W24372   6.054   9.260   3.761  0.1071 -0.0178 -0.2329
 7525W        W24373   3.950  16.397   5.269  0.0207 -0.1237 -0.0385
 7526W        W24374   6.385  11.962  11.719 -0.0558 -0.1209 -0.0379
 7527W        W24375  10.557   9.446  15.102  0.1065  0.2246  0.1488
 7528W        W24376  13.506   2.836   3.891  0.1556 -0.1098  0.4050
 7529W        W24377  15.361  11.411   4.121  0.0220 -0.1308  0.2118
 7530W        W24378  15.458   9.911  13.919 -0.1103  0.2138 -0.1710
 7531W        W24379  16.702   8.040  13.246  0.1222  0.2096  0.1218
 7532W        W24380   0.805  12.725   4.452  0.3429  0.2159  0.0155
 7533W        W24381   4.770   3.399  17.312 -0.2677 -0.2242 -0.0012
 7534W        W24382   5.461  10.692   3.179 -0.1729  0.2621 -0.0220
 7535W        W24383   0.407   7.277   2.457 -0.4403 -0.2730  0.1622
 7536W        W24384   6.553  13.225  13.837  0.1093 -0.2334 -0.3946
 7537W        W24385   6.252   8.917   5.321  0.1473  0.2798  0.2931
 7538W        W24386   4.639   4.479  16.716 -0.3767 -0.1895  0.0600
 7539W        W24387   6.079   1.539  16.706  0.2978  0.0027 -0.1009
 7540W        W24388  15.037   4.942   5.308 -0.2451 -0.2377  0.2184
 7541W        W24389   3.382  15.555   1.036 -0.1673  0.2768  0.1229
 7542W        W24390   7.835  14.056   1.239 -0.0176 -0.0544  0.0747
 7543W        W24391  12.993   4.485   2.640 -0.0778  0.1103 -0.1038
 7544W        W24392   6.142   2.077  16.534  0.2085 -0.0390 -0.5251
 7545W        W24393  15.821  10.503  15.114  0.2278  0.1565  0.0126
 7546W        W24394   7.679   2.848   2.380  0.1055  0.0757  0.0967
 7547W        W24395   1.700   1.356  12.574  0.2022 -0.1952 -0.1825
 7548W        W24396   2.384   8.826  15.916 -0.0905  0.0144  0.0549
 7549W        W24397   2.945   5.447   0.505 -0.2865 -0.1819  0.2771
 7550W        W24398  10.770   6.242   3.498  0.2046  0.1038 -0.0442
 7551W        W24399  10.458   9.158  15.637 -0.0186  0.4651 -0.2567
 7552W        W24400  12.873  15.144  16.994 -0.1686  0.0880  0.1421
 7553W        W24401  15.367   3.499  15.995 -0.1280 -0.0087 -0.1979
 7554W        W24402   5.936   6.030  12.922 -0.0808  0.0195  0.0037
 7555W        W24403   0.700  16.090   4.075 -0.2762 -0.1451  0.1044
 7556W        W24404   2.747   9.585  16.550 -0.0025 -0.2082  0.0816
 7557W        W24405   7.121   7.159   1.081 -0.1513  0.1751 -0.1365
 7558W        W24406   5.952   7.797   0.299  0.2963 -0.0802 -0.0307
 7559W        W24407   7.124   3.118  12.870  0.1491 -0.1426  0.0811
 7560W        W24408  16.640   8.719   2.139 -0.1447  0.2566 -0.0611
 7561W        W24409   7.641  15.745  12.118 -0.3130 -0.1422 -0.1051
 7562W        W24410  14.817   8.794   0.605 -0.1479 -0.2137  0.1781
 7563W        W24411  12.708   7.904   0.481 -0.1170 -0.0168 -0.0079
 7564W        W24412   8.311  14.780  15.394 -0.0436 -0.0364 -0.1527
 7565W        W24413  10.003  11.767   0.535  0.0884 -0.1163 -0.1698
 7566W        W24414   1.004   7.675  12.942  0.1336 -0.1936  0.2028
 7567W        W24415   7.959  16.972   0.738 -0.3466 -0.0735 -0.2627
 7568W        W24416   0.489   9.691   3.596  0.1862  0.0398 -0.0132
 7569W        W24417   8.934   3.327   4.287  0.2640 -0.5279 -0.2404
 7570W        W24418   9.220   6.787  16.690 -0.0459 -0.2130 -0.0909
 7571W        W24419  12.913   3.627   3.765 -0.0275 -0.0659 -0.0068
 7572W        W24420   9.713  11.234   4.088  0.0766  0.1196  0.1928
 7573W        W24421  11.570  15.446   3.473  0.2366  0.2169  0.1885
 7574W        W24422   3.372  14.664  12.400 -0.0860 -0.0940  0.1420
 7575W        W24423  13.589  16.931   3.044  0.0455  0.1998  0.0184
 7576W        W24424  12.474  13.676   3.574 -0.2971  0.1373 -0.3204
 7577W        W24425   3.082   0.768   0.122 -0.0198 -0.0441  0.3342
 7578W        W24426   7.723   5.526   5.067  0.0415 -0.0552 -0.3829
 7579W        W24427   8.912   5.941  12.165  0.0822 -0.1261  0.3864
 7580W        W24428  16.624  13.463   2.846 -0.1365 -0.0595  0.0114
 7581W        W24429  10.007   4.394  17.270  0.0146 -0.0891  0.1099
 7582W        W24430  11.535   7.019  14.122 -0.0416 -0.0534 -0.2385
 7583W        W24431   4.977  12.534   4.125 -0.2202 -0.1251 -0.3596
 7584W        W24432  12.290  13.633  17.134  0.0792  0.1307 -0.0108
 7585W        W24433   9.065  13.088   5.097 -0.0171 -0.0078  0.3260
 7586W        W24434  12.049   8.417   0.125  0.0696  0.1066  0.0693
 7587W        W24435  12.964   8.687  14.158 -0.1173 -0.0533 -0.0899
 7588W        W24436   8.288   4.203   0.631 -0.1758  0.0039 -0.0514
 7589W        W24437  14.907   3.297   2.127  0.0726  0.0381  0.1561
 7590W        W24438   7.561  14.960   1.329 -0.0649  0.0141  0.1031
 7591W        W24439   8.367   7.807   5.447 -0.1213  0.0908  0.0441
 7592W        W24440  12.917   7.134   3.244 -0.2258 -0.0072 -0.1542
 7593W        W24441  13.872   1.996   2.598  0.2947  0.2819  0.1969
 7594W        W24442   0.556   8.326   5.041  0.0814  0.0168 -0.0126
 7595W        W24443  14.954  11.579   2.996  0.0906 -0.0186 -0.0411
 7596W        W24444   1.945  14.925   3.102 -0.0991  0.0644 -0.0069
 7597W        W24445  14.714   3.694  17.632 -0.2051  0.3314 -0.2499
 7598W        W24446   7.491  15.628   4.899  0.0022  0.1137  0.1784
 7599W        W24447   8.796   8.823   4.251 -0.3392  0.1355 -0.0542
 7600W        W24448  16.414  13.157   3.730 -0.0563  0.0708 -0.4008
 7601W        W24449  15.498   4.685  14.954  0.1374 -0.1497 -0.1705
 7602W        W24450   9.610  11.544   3.105 -0.0724 -0.0836  0.1681
 7603W        W24451   6.636   7.519  13.318  0.0807 -0.0466  0.0696
 7604W        W24452   4.874   1.053   1.567  0.0821  0.2610  0.0614
 7605W        W24453  16.302  15.148   4.866  0.0391 -0.0549  0.1222
 7606W        W24454   3.473   2.846  15.468 -0.0118 -0.4940 -0.1292
 7607W        W24455   7.127  16.107  12.755 -0.4383  0.0965 -0.2549
 7608W        W24456   8.415  14.144   3.804 -0.3103 -0.2006 -0.1942
 7609W        W24457  11.621   8.284  13.079 -0.1077 -0.0759 -0.0774
 7610W        W24458   2.178   5.895   2.088 -0.2154  0.1531 -0.2418
 7611W        W24459   8.346   7.769   2.505 -0.0674  0.0098 -0.2317
 7612W        W24460  14.924   6.118  15.516 -0.0374  0.0354  0.2805
 7613W        W24461   5.972  12.508   2.433  0.0598  0.0652  0.0389
 7614W        W24462  11.184   7.708  12.914 -0.0452 -0.1626 -0.1282
 7615W        W24463  10.136   9.940   1.493  0.1893  0.0305 -0.1547
 7616W        W24464   2.547  13.068  11.436 -0.0030 -0.1779 -0.0195
 7617W        W24465  12.573   5.556   0.739  0.2824 -0.0940 -0.1984
 7618W        W24466  13.118  10.703   3.421  0.2409  0.0121  0.1740
 7619W        W24467  12.447   0.465   4.112 -0.4986  0.1467  0.2015
 7620W        W24468   8.990   4.632  15.917  0.1110  0.2505 -0.2217
 7621W        W24469   4.513   5.841   6.109 -0.0224  0.0971 -0.1926
 7622W        W24470   0.068   8.716  13.217 -0.2464 -0.2686 -0.0273
 7623W        W24471   4.236   4.747   4.027 -0.2426 -0.0304 -0.2270
 7624W        W24472   7.253   0.662   3.734 -0.1123  0.2135  0.1152
 7625W        W24473  14.153   0.321  14.590 -0.0541 -0.1495  0.0221
 7626W        W24474   8.453  15.405   3.562  0.0400  0.1286  0.3903
 7627W        W24475   4.566   1.148   0.925  0.0783 -0.2207 -0.2336
 7628W        W24476   0.933  10.028   4.994  0.0842  0.0194  0.0544
 7629W        W24477   3.582  10.607   1.907 -0.2462 -0.1162 -0.0880
 7630W        W24478   9.338   7.471  15.683  0.0421 -0.1628  0.1838
 7631W        W24479  15.701   7.272   3.208 -0.0298 -0.1176  0.2200
 7632W        W24480   8.367   9.659  17.206 -0.0967 -0.3940 -0.2824
 7633W        W24481  15.798   8.924  16.407 -0.4123 -0.1762 -0.0109
 7634W        W24482   5.304   1.715  17.727 -0.0766  0.0793 -0.0207
 7635W        W24483  16.122   7.340  12.572  0.0711  0.1355 -0.0050
 7636W        W24484   6.900  10.318   4.276 -0.0985 -0.1045  0.1243
 7637W        W24485   4.467  12.435   4.016  0.0467  0.1156 -0.0519
 7638W        W24486   0.291  17.066   1.410 -0.2848  0.1301  0.1559
 7639W        W24487   4.262   6.822   4.674 -0.0108  0.0491 -0.1410
 7640W        W24488   6.667   1.485  17.134  0.0256 -0.2691 -0.2960
 7641W        W24489  12.524   1.556   3.200  0.0704  0.1557  0.0494
 7642W        W24490   7.221   6.671   0.976 -0.2017  0.1158 -0.0586
 7643W        W24491  13.971   9.985  16.050  0.0154 -0.0489  0.0183
 7644W        W24492  14.711  14.988  13.454 -0.0049 -0.0869  0.2131
 7645W        W24493  15.177   6.727   4.005 -0.0482 -0.3310 -0.0570
 7646W        W24494  11.812  10.289  16.592  0.0225  0.2103 -0.1845
 7647W        W24495  12.898  12.000  13.275  0.1348  0.2107 -0.1737
 7648W        W24496  11.352  10.906  15.426 -0.0106  0.2669 -0.3240
 7649W        W24497   7.629  14.071  11.997 -0.3729  0.1794 -0.0192
 7650W        W24498   7.024  14.334   2.566 -0.1829 -0.2759 -0.1398
 7651W        W24499   6.229   7.491  16.748 -0.0726  0.0338 -0.1368
 7652W        W24500   7.265  10.769   4.623  0.0116 -0.1667 -0.3291
 7653W        W24501   8.710  14.866  16.504 -0.0489 -0.0920 -0.0481
 7654W        W24502   2.409  11.603   5.332 -0.3422  0.2613 -0.0861
 7655W        W24503  15.458   3.706   3.570  0.1982  0.1950  0.0137
 7656W        W24504   1.692  12.982   6.324  0.4220 -0.0622  0.1264
 7657W        W24505   0.350   5.189   2.231 -0.0849  0.0875  0.0395
 7658W        W24506   0.705  13.121  14.866  0.1186 -0.1623 -0.3084
 7659W        W24507  16.462   2.413  17.744 -0.1543  0.0015 -0.0104
 7660W        W24508  11.405   8.614  16.495 -0.2440 -0.3691 -0.0230
 7661W        W24509   6.582  14.530  14.902  0.1018 -0.0335  0.1388
 7662W        W24510   6.759   2.791   5.830 -0.4208 -0.0691 -0.0424
 7663W        W24511   1.854   6.736  11.599 -0.0705  0.4459  0.1905
 7664W        W24512  12.705  16.576  15.263  0.2034  0.0165 -0.2613
 7665W        W24513  15.337   6.113   3.952 -0.2287  0.0373 -0.1709
 7666W        W24514  13.912   9.689  16.496  0.1938  0.1232 -0.2185
 7667W        W24515   4.095  12.758  15.474 -0.0291 -0.0875  0.0305
 7668W        W24516  10.097   1.215   4.550  0.1937 -0.0863 -0.3978
 7669W        W24517  13.746   8.913  12.316 -0.0090 -0.0324  0.0597
 7670W        W24518  12.318  10.426  13.632 -0.0131 -0.1474  0.2033
 7671W        W24519   3.211   0.337   0.900  0.0441 -0.1498 -0.1938
 7672W        W24520  11.409   3.794  16.613 -0.0606 -0.1221 -0.0496
 7673W        W24521  12.025   2.452  17.520  0.2910  0.1281 -0.1342
 7674W        W24522   3.092  15.453  17.040  0.0414  0.1909  0.1413
 7675W        W24523   5.873  16.342   0.861  0.1138 -0.1999 -0.0827
 7676W        W24524  15.919   8.585  15.951 -0.1955 -0.1266 -0.2741
 7677W        W24525   1.195   1.051   3.469  0.3340  0.0884  0.2004
 7678W        W24526   5.741  10.743  17.638 -0.1843  0.2382  0.2321
 7679W        W24527   3.537  10.197  15.876  0.1310  0.0169  0.0836
 7680W        W24528   8.353   6.007   5.853 -0.0045  0.1547  0.1057
 7681W        W24529   2.295  10.340  17.128 -0.0221 -0.0189  0.0297
 7682W        W24530  16.748   3.118   5.507 -0.5084  0.0506  0.0059
 7683W        W24531  12.205   8.609   2.285 -0.1380 -0.3200  0.3538
 7684W        W24532   3.554  15.675  15.898 -0.2335 -0.3944 -0.1694
 7685W        W24533   9.555   6.988  17.113  0.2205  0.3340 -0.0716
 7686W        W24534   5.736   6.320  17.014 -0.0313 -0.1347  0.1151
 7687W        W24535  12.426   8.058  16.932  0.0838  0.3437  0.0145
 7688W        W24536   3.899   5.146  12.850  0.3488  0.2386 -0.1015
 7689W        W24537  12.800   6.681  16.096 -0.0096 -0.0954  0.0945
 7690W        W24538   3.669   5.646  16.145 -0.2810 -0.1049 -0.2645
 7691W        W24539  12.221  13.329   3.851  0.2854 -0.3846  0.0296
 7692W        W24540  12.303   5.360  15.858 -0.1169 -0.2823  0.0787
 7693W        W24541   4.281   6.327   0.349  0.0068 -0.0134  0.1467
 7694W        W24542   1.011  16.468  12.342  0.1614 -0.1163 -0.1087
 7695W        W24543  11.136   6.669  13.929 -0.2566  0.1105 -0.0301
 7696W        W24544  14.709   3.529  12.016  0.1825 -0.0554 -0.5307
 7697W        W24545  17.025   1.595  17.581 -0.1680 -0.1093  0.0724
 7698W        W24546   9.231  11.223  12.530  0.1174 -0.2781  0.2050
 7699W        W24547   6.678  11.518   3.104 -0.0947  0.0212  0.3643
 7700W        W24548  15.154   4.211  11.996  0.1507 -0.1864 -0.2571
 7701W        W24549   1.305   4.298  16.106  0.1892 -0.0748  0.1047
 7702W        W24550  13.965   4.602   5.316  0.3015 -0.3363 -0.3730
 7703W        W24551   6.956   5.905  16.967  0.0468 -0.1341  0.0403
 7704W        W24552   6.249   5.701  12.718 -0.0119 -0.2245  0.0021
 7705W        W24553   0.375   5.253  13.512  0.0265 -0.1322  0.0732
 7706W        W24554  12.519   8.342   0.232  0.0676 -0.1236 -0.1404
 7707W        W24555   8.372  11.026  17.588  0.0188  0.0722  0.2097
 7708W        W24556   0.326   9.781  14.312  0.1253 -0.1272  0.2072
 7709W        W24557  14.463  14.808   4.625  0.0264 -0.1225  0.0220
 7710W        W24558  10.677  15.131  17.188  0.1353  0.0349 -0.1406
 7711W        W24559   5.383   2.332   1.803 -0.0091  0.2854  0.1363
 7712W        W24560  14.404   1.031   0.972  0.2965  0.1392  0.1674
 7713W        W24561   2.465   2.797   2.456  0.0847 -0.1184  0.2111
 7714W        W24562  12.659   3.673  13.727 -0.1251 -0.2117  0.4468
 7715W        W24563  11.581  13.795  14.823  0.1641  0.1790 -0.2640
 7716W        W24564   4.528   1.616   6.141  0.0042  0.0128 -0.2484
 7717W        W24565  10.093   8.808  14.075  0.1664 -0.2077 -0.1060
 7718W        W24566   2.949  15.415  12.134 -0.1986 -0.3372 -0.1603
 7719W        W24567   1.346   7.842   2.513  0.0645 -0.0575  0.1955
 7720W        W24568  12.780  11.995  17.834 -0.0182  0.1454 -0.0616
 7721W        W24569   5.163   3.598  11.842  0.3301  0.2431 -0.0703
 7722W        W24570   8.592   9.899  16.326 -0.0658  0.0967  0.1077
 7723W        W24571  13.413  12.927  15.273  0.2128  0.0029  0.3346
 7724W        W24572   2.219  15.412   6.542  0.1770  0.0612  0.0662
 7725W        W24573  15.866  14.424   1.506  0.3151 -0.2560  0.0590
 7726W        W24574  10.235  13.680  15.627  0.0599  0.0411 -0.0556
 7727W        W24575  15.951  14.115  15.431 -0.0033 -0.0807  0.1232
 7728W        W24576   2.863   5.921  15.766 -0.2903 -0.0617  0.0767
 7729W        W24577  13.181   1.930   3.804  0.2424 -0.1236 -0.0848
 7730W        W24578   9.987  15.568   1.152  0.0245  0.1015  0.0045
 7731W        W24579   7.442   8.353  16.293 -0.0359 -0.0412 -0.0775
 7732W        W24580  13.925   5.683  13.091  0.2321  0.1699  0.3257
 7733W        W24581   8.829  17.000   3.683 -0.1482  0.0199  0.0011
 7734W        W24582   5.281  16.111  12.303 -0.2599  0.0020 -0.0652
 7735W        W24583   9.500   4.877   1.187 -0.4336 -0.1236  0.1485
 7736W        W24584   0.891   3.867  14.939 -0.1463 -0.1369 -0.0684
 7737W        W24585   5.443   1.354   0.822 -0.1046 -0.1085  0.0508
 7738W        W24586  14.844   6.100  13.590 -0.1018 -0.0438 -0.2931
 7739W        W24587  13.604   4.326  14.086  0.0159  0.0952  0.0387
 7740W        W24588   8.313   5.814   4.256  0.0515 -0.1968  0.3190
 7741W        W24589   5.732   9.344   6.052  0.1054  0.0732 -0.0090
 7742W        W24590   4.620   6.780  14.894  0.2037  0.1062  0.0220
 7743W        W24591   3.025   1.051   2.258 -0.2512 -0.2065  0.0971
 7744W        W24592  15.156   4.200   4.938 -0.1217  0.2627  0.0288
 7745W        W24593   9.454   8.926  16.609  0.0684 -0.1206 -0.0601
 7746W        W24594   7.212  10.128   1.661  0.1349  0.3031  0.1083
 7747W        W24595   1.840   1.249   0.100 -0.0048  0.1338  0.1769
 7748W        W24596   8.416  13.955  12.461 -0.0581  0.2745  0.2452
 7749W        W24597  16.161  11.046   5.235  0.1280 -0.0229  0.0635
 7750W        W24598   0.601  11.716   3.551  0.0934  0.3688 -0.1784
 7751W        W24599   8.839  11.087   5.042  0.2228 -0.0372  0.1469
 7752W        W24600   0.182  10.501   1.710  0.0761  0.1453  0.1435
 7753W        W24601   2.194  15.737   1.838  0.0704 -0.1001  0.1286
 7754W        W24602  14.986  12.756  15.311  0.2598 -0.4448 -0.1220
 7755W        W24603  13.730   6.548   1.752  0.2365 -0.2247  0.2500
 7756W        W24604   0.930   4.831  17.524 -0.0249 -0.0534 -0.1830
 7757W        W24605  10.001   6.204   0.342 -0.1009  0.0286  0.1623
 7758W        W24606   9.824   2.766  13.400  0.2925 -0.2101 -0.0145
 7759W        W24607  14.939   3.216  14.333  0.1457 -0.2520  0.1182
 7760W        W24608  16.441   9.497   1.899 -0.0629 -0.2204 -0.0170
 7761W        W24609   3.669  15.567   3.592  0.2697  0.0166  0.1872
 7762W        W24610  14.041  14.998  16.299 -0.2542 -0.2389 -0.1932
 7763W        W24611   1.130  15.677   0.914 -0.2665 -0.1379  0.1669
 7764W        W24612  16.534   9.130  17.193 -0.2691  0.2293 -0.0734
 7765W        W24613   9.089   3.307   2.235 -0.2387  0.2315  0.2887
 7766W        W24614  10.541   5.157  12.428  0.0019 -0.1263 -0.3148
 7767W        W24615   0.400  14.193   5.135 -0.2567  0.0419  0.0899
 7768W        W24616   6.836   1.273  16.024 -0.1624  0.0536 -0.0167
 7769W        W24617  11.563  16.848   2.308 -0.0528 -0.0482  0.1626
 7770W        W24618   2.161   8.492  15.623 -0.0912 -0.1664  0.1658
 7771W        W24619   8.386   5.566   0.723 -0.2890  0.2232  0.0113
 7772W        W24620  11.842  10.491  17.578 -0.3594  0.2559  0.1445
 7773W        W24621  10.558   7.518   1.102 -0.2567 -0.0036  0.0344
 7774W        W24622  13.174  10.606   1.175  0.1263  0.0863 -0.2340
 7775W        W24623  10.311  16.291  17.347  0.2417 -0.0379  0.3929
 7776W        W24624  12.768  16.701  15.756 -0.0136  0.4406 -0.0763
 7777W        W24625   8.370  15.952  13.281 -0.1630 -0.1279 -0.2099
 7778W        W24626  15.027   5.906  17.409  0.1412 -0.0977  0.0561
 7779W        W24627  14.195  10.183  12.477 -0.0913  0.1282 -0.0278
 7780W        W24628   9.684  12.654  16.711  0.2603  0.1351 -0.1261
 7781W        W24629  10.095   4.327  13.931  0.1126 -0.3516 -0.1274
 7782W        W24630   9.155   8.791   2.739 -0.0486  0.3417 -0.4163
 7783W        W24631  14.365   7.643  13.926  0.1144 -0.0229 -0.0968
 7784W        W24632   0.670   3.283   0.128 -0.0612 -0.5313 -0.2247
 7785W        W24633  16.476  10.679   1.824 -0.1746 -0.2489  0.0943
 7786W        W24634   6.413  10.325  15.480  0.2368 -0.0138 -0.2197
 7787W        W24635   7.450  14.677   2.616  0.0678 -0.1654  0.2401
 7788W        W24636  14.216   3.728   1.319 -0.0112  0.1833 -0.2168
 7789W        W24637   8.649  16.646  17.848  0.2361  0.0612  0.1622
 7790W        W24638   7.062   2.394  16.509 -0.2888  0.2123 -0.3325
 7791W        W24639  14.153   3.776  16.833 -0.0004 -0.1305  0.1189
 7792W        W24640  12.823  13.725  16.243 -0.4634 -0.0656  0.2632
 7793W        W24641   4.307   8.683   4.871  0.0412  0.1412 -0.0079
 7794W        W24642   1.718  14.718  15.852  0.1477 -0.0905 -0.0754
 7795W        W24643   0.480   4.780  14.619  0.1875  0.1502  0.1080
 7796W        W24644  13.587   2.088   2.173  0.0297 -0.1430 -0.0888
 7797W        W24645   3.027   6.708   4.124  0.2762  0.2808  0.0332
 7798W        W24646   8.716   2.660  15.009  0.1605  0.1742 -0.0249
 7799W        W24647   6.195  14.907  11.299  0.2325 -0.1384 -0.1004
 7800W        W24648   5.046  10.906   3.317 -0.1499  0.1426  0.1187
 7801W        W24649  16.612   1.201  16.145 -0.1099  0.0202 -0.0069
 7802W        W24650   3.092   4.394   5.910 -0.0363  0.2764 -0.0223
 7803W        W24651  12.353   0.578  17.068 -0.3294  0.2045 -0.2650
 7804W        W24652   0.020   3.401   5.063  0.0218 -0.0307 -0.2505
 7805W        W24653  13.105   8.867  15.041 -0.1454  0.0419  0.1789
 7806W        W24654  10.982  11.825  15.616  0.0298  0.3695 -0.2481
 7807W        W24655   7.379  11.732  15.346  0.2007 -0.0789 -0.1348
 7808W        W24656   1.014   2.866   5.632 -0.0470 -0.1238 -0.0255
 7809W        W24657   6.176  11.670   5.712  0.0204  0.0491 -0.1552
 7810W        W24658   3.143   8.735   5.238 -0.0123 -0.0632 -0.3272
 7811W        W24659  14.114  10.510   0.784 -0.2670 -0.0147  0.1102
 7812W        W24660  10.397  13.165  17.008 -0.0467 -0.4232 -0.0697
 7813W        W24661   7.570   2.517   2.739  0.3637 -0.2046  0.0366
 7814W        W24662  15.790   7.108   0.321  0.1161  0.0463  0.1983
 7815W        W24663   2.125   6.170   2.528 -0.0565  0.1739  0.0726
 7816W        W24664   5.282   6.966  15.758 -0.3033  0.1535 -0.1415
 7817W        W24665   8.145   6.250  16.896  0.0462  0.1451 -0.1935
 7818W        W24666   1.233   3.070  13.256 -0.0623 -0.0347 -0.0595
 7819W        W24667   7.983  10.410  12.699 -0.0441  0.2070 -0.2229
 7820W        W24668  13.146   8.880   2.250 -0.0596 -0.2128 -0.0214
 7821W        W24669   8.661   3.699  17.097  0.1381 -0.0914 -0.3206
 7822W        W24670  14.493  14.050  13.267 -0.0806  0.1475 -0.0482
 7823W        W24671   7.008   7.701   1.217  0.2916 -0.0033  0.0408
 7824W        W24672   7.539  15.703  12.903 -0.1203  0.0818  0.0598
 7825W        W24673   7.152   2.638  12.052 -0.2603 -0.0713  0.1485
 7826W        W24674  12.947   7.842   3.973 -0.0837  0.0813  0.3479
 7827W        W24675  13.625  16.050   1.037  0.0608 -0.1090  0.0403
 7828W        W24676  11.442   3.105   3.174 -0.0693  0.0496  0.2549
 7829W        W24677   1.468   2.825   0.086 -0.0889  0.1375  0.0056
 7830W        W24678   7.409   4.963  13.586 -0.0273 -0.2179  0.2508
 7831W        W24679  10.543   2.281   0.315 -0.1805 -0.0845 -0.0167
 7832W        W24680  15.019   1.873  13.887  0.0986  0.0080 -0.0070
 7833W        W24681   9.360  17.007  12.230  0.0631 -0.0554  0.2113
 7834W        W24682   2.560   1.351   3.327  0.3516  0.1906 -0.0312
 7835W        W24683  11.855   5.257  15.354  0.1091  0.1515  0.0707
 7836W        W24684  14.451   0.879  13.061  0.3187 -0.0875  0.2068
 7837W        W24685  14.367  13.265  14.757  0.3685 -0.0423 -0.1205
 7838W        W24686  12.750   3.910   0.614  0.1577  0.1321 -0.0965
 7839W        W24687   0.403  12.111  17.366  0.1370  0.0626 -0.0068
 7840W        W24688   8.867   5.288  14.875 -0.1037  0.3142  0.0373
 7841W        W24689  14.902   5.483  14.128 -0.0393  0.2535  0.4455
 7842W        W24690   7.277  13.342   4.589  0.1904 -0.1888 -0.0372
 7843W        W24691  10.381   4.469   2.915  0.0945  0.3180  0.1783
 7844W        W24692  10.798   0.195  12.361 -0.1755 -0.3775 -0.0219
 7845W        W24693  14.635   0.658   4.557 -0.0309  0.4788  0.1921
 7846W        W24694  11.166   4.729  13.058 -0.0543 -0.0660 -0.1024
 7847W        W24695  16.581   9.872   0.751 -0.0485 -0.1501  0.0330
 7848W        W24696   7.523   0.804   4.915 -0.2438 -0.3351  0.0259
 7849W        W24697   2.763   4.709  14.328  0.0486 -0.1593  0.0959
 7850W        W24698  16.457   1.917  15.794 -0.1062  0.0108  0.0930
 7851W        W24699   3.387  10.362   3.635  0.2241  0.1928  0.2170
 7852W        W24700  15.359   2.833  16.687  0.0130 -0.1507 -0.1547
 7853W        W24701   8.852  15.477  14.184 -0.3991 -0.2321 -0.1766
 7854W        W24702   2.220   0.052  12.110  0.0034  0.0010 -0.0054
 7855W        W24703  16.718  16.768  16.785  0.0139  0.0493  0.0816
 7856W        W24704  16.429  12.044  16.689  0.0448  0.0900  0.1885
 7857W        W24705  15.131  14.677  13.958  0.0029 -0.0021  0.1093
 7858W        W24706  10.207   0.313   0.732  0.2738  0.0577  0.1234
 7859W        W24707  15.260   6.399   3.339 -0.1441 -0.1325  0.2621
 7860W        W24708   4.676  11.795   0.618  0.3394  0.0315 -0.1471
 7861W        W24709   6.873   5.769  13.825  0.2315  0.2103  0.0943
 7862W        W24710  15.666   3.522  13.571 -0.2917 -0.1244 -0.3594
 7863W        W24711   8.859   8.454  15.785 -0.0894 -0.1737 -0.2998
 7864W        W24712   0.673   8.982  15.819 -0.1104  0.2447  0.1388
 7865W        W24713  14.607  15.578  16.023 -0.1918 -0.2702  0.0905
 7866W        W24714  14.934   6.616  15.300 -0.0675  0.0103  0.0422
 7867W        W24715   4.130  12.678  14.629 -0.1231 -0.0519  0.0401
 7868W        W24716   3.668  10.247  13.431  0.0973  0.0426 -0.2784
 7869W        W24717  12.332   1.753  11.860  0.3096 -0.1295  0.0542
 7870W        W24718   0.151  16.352  15.198 -0.0538  0.1281 -0.2310
 7871W        W24719   4.734  16.154  13.268  0.1926  0.0057 -0.2070
 7872W        W24720   6.339   9.665   1.734  0.0230 -0.0798 -0.2061
 7873W        W24721  12.682   2.644  12.005 -0.0289 -0.1043  0.0603
 7874W        W24722  11.424  12.433  15.365  0.0309 -0.2343  0.1679
 7875W        W24723   8.886  13.776  15.507  0.1300 -0.1200  0.0705
 7876W        W24724   1.458   4.167  13.774 -0.1322  0.0190 -0.3179
 7877W        W24725   6.861  14.184  16.322  0.2301 -0.2497  0.2646
 7878W        W24726   4.111   6.262  15.342  0.4199 -0.3202 -0.0106
 7879W        W24727  11.118  15.492  12.911  0.0550  0.1255  0.1837
 7880W        W24728   8.665   1.374  17.013 -0.1102 -0.1891  0.3297
 7881W        W24729   8.546  16.579  12.498 -0.1761  0.0121 -0.0587
 7882W        W24730  10.498  16.575  16.574 -0.2281 -0.0647  0.0753
 7883W        W24731  12.580  16.723   4.740  0.2446  0.1645  0.0540
 7884W        W24732   8.257  11.894  16.916 -0.0501  0.0491 -0.0177
 7885W        W24733   9.559  10.588  14.304  0.0789 -0.0769  0.2133
 7886W        W24734   6.521  14.802   2.382  0.0006 -0.3243 -0.0365
 7887W        W24735  14.133   1.506   2.063 -0.5195 -0.0553  0.1685
 7888W        W24736  10.851   1.407  15.616  0.2843  0.0449  0.3991
 7889W        W24737   4.065   5.692   6.725  0.1872 -0.1202 -0.0099
 7890W        W24738  11.071   5.175   4.532  0.2040  0.2307 -0.1163
 7891W        W24739   1.027   0.294  12.976  0.2553 -0.0062  0.2942
 7892W        W24740   4.509   1.513   0.423  0.1244 -0.1907  0.2730
 7893W        W24741  10.516   2.295   5.931 -0.0394 -0.1131  0.0050
 7894W        W24742  11.183  13.300   2.400 -0.2162  0.3008  0.1117
 7895W        W24743   3.817  16.541   3.581  0.0772  0.0946 -0.3159
 7896W        W24744   3.516  10.608  17.786  0.2746  0.0455  0.0186
 7897W        W24745  10.109  13.230  16.608  0.4770 -0.2769  0.1366
 7898W        W24746   3.423  14.606   4.589 -0.2010  0.0049  0.2511
 7899W        W24747   5.509   7.155  17.088  0.1710  0.1007 -0.0775
 7900W        W24748   9.983   3.652   0.647  0.2341 -0.2135 -0.0500
 7901W        W24749   2.031   0.896   2.291  0.4537 -0.0448  0.1788
 7902W        W24750   3.629   3.391  17.838  0.0136 -0.0724  0.0450
 7903W        W24751   4.165  14.301  16.433  0.1385 -0.0195 -0.2165
 7904W        W24752   4.807   5.135   5.419 -0.1084  0.0214 -0.1075
 7905W        W24753   9.632  12.435   2.664 -0.0697 -0.1196 -0.1803
 7906W        W24754   6.968  14.797  16.507 -0.2449 -0.1645  0.2150
 7907W        W24755   5.000   7.427   5.926 -0.0655  0.3323 -0.0085
 7908W        W24756  12.044   9.772  14.273 -0.1847 -0.0021 -0.0524
 7909W        W24757   8.963   5.366  17.778  0.1607 -0.0497 -0.1643
 7910W        W24758   5.492   0.619   4.496 -0.1999 -0.0948 -0.2424
 7911W        W24759   0.994   0.442   4.907  0.1345 -0.2716 -0.1863
 7912W        W24760  15.995   0.783   1.340 -0.1852 -0.2007 -0.3636
 7913W        W24761  15.402  10.861  12.980 -0.1179 -0.3212 -0.0266
 7914W        W24762   7.490  17.002  15.600 -0.0260 -0.1961  0.0357
 7915W        W24763   4.597  11.464   6.491 -0.0305 -0.0453 -0.0402
 7916W        W24764  13.604  15.363   0.930 -0.1245 -0.0034  0.0781
 7917W        W24765  11.800   2.242  12.477 -0.0200  0.3140 -0.2293
 7918W        W24766  15.185  13.470   0.769 -0.1427  0.1913 -0.3008
 7919W        W24767   7.844  10.521  15.068  0.1909  0.1496  0.3556
 7920W        W24768  13.770   6.173  12.211  0.1132  0.0754  0.0465
 7921W        W24769   2.960  14.491   1.741 -0.1523 -0.0758  0.1735
 7922W        W24770   0.822  11.440   2.570 -0.1317  0.2810 -0.1277
 7923W        W24771   1.865   0.168  13.988  0.1683 -0.0072 -0.2493
 7924W        W24772   7.541   7.404   0.370 -0.0189 -0.0871  0.1636
 7925W        W24773   4.811   0.297   5.352  0.3075 -0.1065  0.1864
 7926W        W24774  14.219   6.635  16.796  0.1079 -0.0149  0.1358
 7927W        W24775   2.140   5.325  12.361 -0.1791  0.2746  0.2782
 7928W        W24776  10.767   3.753  16.277  0.0803  0.0159  0.1326
 7929W        W24777   9.776   7.478   5.427 -0.0867  0.0640 -0.1015
 7930W        W24778   6.382  15.064   1.344  0.0679 -0.0152  0.1994
 7931W        W24779   6.994   6.182  15.278 -0.2146  0.2827 -0.2093
 7932W        W24780  12.806   3.814   4.664 -0.2631  0.0458 -0.0486
 7933W        W24781   4.333   6.528  12.724  0.2307  0.2480  0.4196
 7934W        W24782   8.022  10.209   0.318  0.3680 -0.2826  0.0915
 7935W        W24783   7.154  10.202  14.407 -0.1840 -0.0535  0.2602
 7936W        W24784  14.452   2.309   1.957  0.0037 -0.1078  0.1364
 7937W        W24785  16.163  11.864   4.603  0.1859 -0.0845  0.2559
 7938W        W24786   4.968  12.391  17.275  0.1163 -0.1729 -0.2196
 7939W        W24787  10.102   8.462   3.958 -0.3682 -0.1922 -0.0948
 7940W        W24788  13.495  12.330  13.639  0.0332  0.1249 -0.5586
 7941W        W24789   4.772  10.788  14.913 -0.0265 -0.0706  0.0197
 7942W        W24790   9.019   4.565   0.973 -0.2019 -0.0631  0.0139
 7943W        W24791   2.160  17.014   0.010 -0.0311 -0.1989  0.2583
 7944W        W24792  14.517   4.083   4.505  0.0396 -0.1940  0.1824
 7945W        W24793  16.896   6.555   4.695 -0.1843 -0.1563 -0.0206
 7946W        W24794   4.527  11.039  12.608 -0.1032  0.2361  0.2449
 7947W        W24795   7.287   2.834   3.054  0.1217  0.0205  0.1965
 7948W        W24796  15.953   2.748   4.464  0.0631 -0.0559 -0.0782
 7949W        W24797   6.891   3.188  13.290 -0.3032  0.1622 -0.0216
 7950W        W24798  14.805   1.235  15.659 -0.0247  0.2621  0.0521
 7951W        W24799   0.029  12.523   1.177  0.4717 -0.0574  0.0439
 7952W        W24800   7.283   5.513   2.388 -0.0997  0.0459 -0.2277
 7953W        W24801   7.312  14.410  15.483 -0.0653  0.1704  0.1193
 7954W        W24802   5.309  10.415  13.326 -0.0036  0.0997 -0.2561
 7955W        W24803  11.345   8.521   4.914 -0.0733 -0.1884 -0.1269
 7956W        W24804   6.366   7.619   0.208  0.2384  0.1528 -0.0761
 7957W        W24805   0.016  12.761   5.224  0.0031 -0.0755  0.0789
 7958W        W24806   8.949   6.143  14.405  0.1446  0.1618  0.0577
 7959W        W24807   7.991   3.182  17.538  0.1752  0.2423  0.2768
 7960W        W24808   9.982  16.287  13.946  0.1889 -0.0023 -0.0534
 7961W        W24809  16.691  16.013  13.723  0.0562  0.0213 -0.2307
 7962W        W24810   1.021   7.125  12.291 -0.0364 -0.1859  0.0698
 7963W        W24811  16.007   2.494   5.414 -0.4825 -0.0338  0.2242
 7964W        W24812   1.171   0.480  16.959  0.4275  0.1797 -0.0380
 7965W        W24813  13.957   8.046   3.623  0.1750 -0.1160 -0.1054
 7966W        W24814   9.337   1.815  15.234 -0.0271  0.1350  0.0830
 7967W        W24815  11.837  11.691  12.302 -0.0338 -0.3013  0.0588
 7968W        W24816   4.748  12.378  13.684  0.2335  0.0792 -0.2647
 7969W        W24817  10.458   1.135   4.108  0.2923 -0.3515 -0.0875
 7970W        W24818  12.597  13.943   1.066  0.2660 -0.0630  0.1145
 7971W        W24819  15.572  16.808   2.885  0.2159 -0.0283 -0.1112
 7972W        W24820   2.081   8.066  12.728 -0.0181  0.1862 -0.2118
 7973W        W24821  12.380   9.122  13.039  0.0455  0.0825 -0.3123
 7974W        W24822  15.305   8.129   3.206  0.0998 -0.0333 -0.1732
 7975W        W24823  12.251  13.191  17.808 -0.1928  0.1716 -0.2106
 7976W        W24824   5.432   2.613  16.296 -0.0792  0.0851  0.0365
 7977W        W24825   2.680   7.393  15.218 -0.0623  0.4041  0.0842
 7978W        W24826  13.519  10.288   2.730  0.2499 -0.1294  0.1834
 7979W        W24827   9.898  15.794   2.939  0.0622 -0.2051 -0.1317
 7980W        W24828   5.621  14.184   3.130  0.0314 -0.1884  0.3929
 7981W        W24829  11.736  13.830  14.040  0.3332 -0.0447  0.0332
 7982W        W24830  15.187  15.272   1.816  0.0290  0.0414  0.0484
 7983W        W24831  15.836   7.876  15.287 -0.0588 -0.0656 -0.4467
 7984W        W24832   8.311  14.322  15.204  0.1405 -0.3754  0.2247
 7985W        W24833   8.670  14.568  16.952 -0.0746 -0.1420 -0.0691
 7986W        W24834  12.337  14.380   4.971 -0.0182 -0.1247 -0.1099
 7987W        W24835  11.142   7.312  16.528  0.0834  0.4275 -0.1965
 7988W        W24836   1.274  12.912   3.898 -0.1529 -0.0139 -0.0726
 7989W        W24837  14.019  15.577  14.121 -0.1432  0.0792  0.2605
 7990W        W24838   8.408   3.995   4.704  0.1136  0.0792 -0.0202
 7991W        W24839  12.659   1.495   6.560 -0.1720  0.1615 -0.2632
 7992W        W24840  13.912  13.095  14.685  0.1848  0.1103  0.1184
 7993W        W24841   8.668   5.444  14.111 -0.4968 -0.2551  0.2695
 7994W        W24842  11.724   7.114  17.276  0.0903 -0.0064  0.2980
 7995W        W24843   3.600  12.818  15.635 -0.1958 -0.1431  0.2120
 7996W        W24844   3.877   1.478  15.457  0.3156  0.1802  0.5179
 7997W        W24845  13.929  12.473   5.511  0.0477  0.0648  0.0362
 7998W        W24846  10.774  14.527   0.021 -0.0834  0.0559 -0.0327
 7999W        W24847   7.246   3.145   3.538 -0.2089  0.1167 -0.1781
 8000W        W24848   4.978   4.204   2.824 -0.0070  0.0952  0.0831
 8001W        W24849   1.437   8.578   1.820  0.0125  0.3527  0.2960
 8002W        W24850  13.798   4.895   1.830 -0.0148 -0.0779 -0.0710
 8003W        W24851   1.910  16.663   4.174 -0.2344 -0.2328  0.1809
 8004W        W24852   6.741  14.717  17.734  0.0544 -0.2272 -0.0273
 8005W        W24853  15.063   8.533  16.686  0.0559 -0.0221  0.1007
 8006W        W24854   9.384  12.795  16.228  0.1163  0.2452 -0.2956
 8007W        W24855  13.938  17.012   0.137 -0.1648 -0.2045 -0.0636
 8008W        W24856   3.850   3.011   0.998  0.0084  0.0988 -0.1635
 8009W        W24857   1.777   1.125  16.657  0.2153  0.2294 -0.0420
 8010W        W24858   0.021  16.737   1.970  0.0720 -0.3264  0.0445
 8011W        W24859  14.638  12.603   4.099 -0.0498 -0.1401 -0.0348
 8012W        W24860   9.735  14.908   1.236  0.3392  0.0080 -0.1274
 8013W        W24861   7.039  11.965  14.334 -0.2426  0.2779  0.2260
 8014W        W24862  12.910  12.781   0.532 -0.2430 -0.0466 -0.2079
 8015W        W24863   4.906   8.554  12.154 -0.3630  0.0911 -0.4422
 8016W        W24864  15.054   1.692   4.221  0.1420  0.1837  0.3071
 8017W        W24865   1.200   4.929   2.607  0.1467  0.1491  0.0171
 8018W        W24866  15.063   2.357  12.609  0.0380  0.2316 -0.3804
 8019W        W24867   5.203   4.530  13.729  0.1382  0.2091 -0.1726
 8020W        W24868   9.639   7.744  16.033  0.0379  0.1667  0.2420
 8021W        W24869   1.793   1.590   4.026 -0.0420  0.3410  0.0530
 8022W        W24870   9.739   0.042  13.964  0.1337  0.1041 -0.1506
 8023W        W24871  11.652  14.679   0.076  0.0329  0.1412  0.2016
 8024W        W24872   3.190  15.626   5.738 -0.1068 -0.0426  0.1302
 8025W        W24873  17.034   6.709  17.798 -0.0405 -0.2896 -0.0702
 8026W        W24874  16.820  16.685   4.127 -0.0987  0.1620 -0.2550
 8027W        W24875   1.011  14.119  15.552  0.3273 -0.1886 -0.1589
 8028W        W24876   4.876  16.869   5.525  0.1372  0.1833 -0.1358
 8029W        W24877   2.024   9.944  16.110  0.1843 -0.2061  0.0041
 8030W        W24878  14.569   3.214  13.862  0.1368  0.0727  0.1280
 8031W        W24879  16.297   8.224  12.472 -0.0342 -0.1949  0.0361
 8032W        W24880   2.854   3.397   0.645  0.3013  0.2979  0.3202
 8033W        W24881  10.991   2.149   5.134  0.0743 -0.2298  0.0200
 8034W        W24882   8.859  17.045  16.137 -0.0613  0.0642 -0.1932
 8035W        W24883   4.456  12.503   3.518 -0.0249 -0.2685  0.2028
 8036W        W24884  15.311   3.654   3.066  0.1209  0.3130  0.2147
 8037W        W24885   2.632  11.516  12.280 -0.0410  0.1283 -0.0252
 8038W        W24886  10.157  14.445   0.364 -0.0425  0.3588 -0.0317
 8039W        W24887   0.786  14.511   4.358  0.0184 -0.1763  0.1347
 8040W        W24888   9.506  12.470  15.780  0.1822  0.2436 -0.1295
 8041W        W24889  10.142   2.493   5.029  0.1342  0.1507  0.0212
 8042W        W24890   9.632   2.939   2.583 -0.0665  0.2898 -0.1763
 8043W        W24891  13.149  16.528  13.135 -0.1891  0.0017  0.2010
 8044W        W24892   8.137   1.737   0.871 -0.0738  0.2088  0.1648
 8045W        W24893   4.952  12.541   5.674 -0.1716  0.0417 -0.0009
 8046W        W24894  10.061   8.768   2.403  0.2283  0.1141 -0.1697
 8047W        W24895   0.287  10.240   2.424  0.4445 -0.1077  0.2253
 8048W        W24896  15.026  15.876  16.103 -0.0424 -0.0318 -0.3565
 8049W        W24897   5.775   8.040  15.719  0.1746  0.2336  0.1586
 8050W        W24898  14.003  14.857  15.178  0.1348 -0.0457  0.1459
 8051W        W24899   3.256  12.814   5.222  0.0810  0.1058  0.1611
 8052W        W24900  14.452   8.536   1.914  0.1072  0.2526  0.2550
 8053W        W24901  16.370  12.686   0.064  0.0012  0.3400  0.0801
 8054W        W24902   3.225   9.625  16.355 -0.0587  0.1386 -0.0250
 8055W        W24903   0.686  12.061   5.544 -0.1955  0.0575 -0.0077
 8056W        W24904   3.324   2.693  16.211  0.3314 -0.0431 -0.2760
 8057W        W24905   8.400   9.413   1.712  0.1243  0.1406 -0.0513
 8058W        W24906  10.945   7.908   3.657  0.2269  0.1545 -0.1642
 8059W        W24907  12.901   5.566   2.173 -0.1664 -0.1636 -0.2770
 8060W        W24908  15.511   4.399   6.508 -0.2378 -0.1352 -0.0707
 8061W        W24909   8.136  15.476  17.672  0.2447 -0.0764 -0.1025
 8062W        W24910  16.373   9.727   2.336 -0.2223  0.2056  0.1467
 8063W        W24911   5.788  12.344  16.822  0.1828 -0.0353  0.2409
 8064W        W24912   7.040   4.201   5.326 -0.0673 -0.0746 -0.1607
 8065W        W24913  12.895  10.642   0.341 -0.2401  0.0647  0.1132
 8066W        W24914   5.709  11.883   3.174 -0.0263 -0.1214  0.0345
 8067W        W24915   5.261   3.833  15.937 -0.2389  0.0849 -0.0139
 8068W        W24916  10.298  10.999  13.051 -0.0751  0.1146  0.0661
 8069W        W24917   8.296   2.723  13.511 -0.1827 -0.2798 -0.1785
 8070W        W24918   9.639   0.720  16.315  0.0241  0.1829  0.3935
 8071W        W24919  11.437  12.235  17.136  0.0543 -0.2273  0.1122
 8072W        W24920  11.499  10.781  16.146 -0.0252 -0.0851 -0.1656
 8073W        W24921   9.093   5.461  17.138 -0.1902 -0.2742  0.0607
 8074W        W24922  10.416   9.318   3.325 -0.4352 -0.2429 -0.2089
 8075W        W24923   4.717  16.682  14.965  0.0585  0.0077 -0.1886
 8076W        W24924  13.466  11.450   1.509 -0.2164 -0.1711 -0.0378
 8077W        W24925   2.935  14.137   4.228 -0.0197 -0.0584 -0.3082
 8078W        W24926   7.519  14.936   4.493 -0.1431  0.0313  0.1357
 8079W        W24927   7.936  10.392  13.214  0.0098 -0.0157  0.1490
 8080W        W24928   7.347   0.905  16.714 -0.0645 -0.2482 -0.0447
 8081W        W24929   8.838  12.341   3.310 -0.0965  0.2528 -0.1791
 8082W        W24930   4.447   3.307   5.310  0.2141  0.0692  0.2287
 8083W        W24931   4.868  13.286   5.816  0.2007 -0.2755  0.2681
 8084W        W24932  13.562   3.721   3.172 -0.2403  0.1438 -0.0480
 8085W        W24933   4.156   4.475   2.726  0.3097  0.0265  0.1265
 8086W        W24934   6.896  10.963   3.860  0.4771 -0.1481  0.0291
 8087W        W24935   1.663   7.622   3.898  0.2677  0.0721 -0.2302
 8088W        W24936   3.951  13.125  16.241  0.0431  0.0828 -0.0653
 8089W        W24937  10.148  12.847   4.742 -0.0666 -0.1412 -0.0063
 8090W        W24938   1.011  12.751   0.595  0.0812 -0.2321  0.1545
 8091W        W24939   0.809  14.834  16.250  0.1784 -0.2023 -0.0502
 8092W        W24940  12.805  10.155   2.305  0.2478  0.0792  0.0892
 8093W        W24941   8.621   1.791   0.974 -0.1115 -0.2683  0.2825
 8094W        W24942   5.035   9.130   1.230  0.0384 -0.1073 -0.1960
 8095W        W24943   5.243  15.822   1.484 -0.2802 -0.0333 -0.1158
 8096W        W24944   3.435   4.581   3.930  0.1438  0.0370  0.2247
 8097W        W24945   4.737  11.548  12.036  0.1350  0.0520  0.1389
 8098W        W24946   8.821   9.772   1.947  0.2305 -0.0731  0.3123
 8099W        W24947  11.008   2.336  15.289 -0.2946 -0.1343 -0.3261
 8100W        W24948   6.938  10.179   2.529 -0.0130 -0.0648 -0.0045
 8101W        W24949  14.600  12.843   0.925 -0.1327  0.2719  0.0223
 8102W        W24950   8.452  10.003  12.107 -0.4100  0.1428 -0.0118
 8103W        W24951  16.743   0.973  17.119  0.0657  0.2532 -0.0503
 8104W        W24952   2.301   1.177   5.036 -0.2568 -0.0726  0.3005
 8105W        W24953   6.847   2.300   1.448 -0.0603 -0.0143  0.2769
 8106W        W24954   9.016  12.014  15.155 -0.0124  0.4231 -0.1598
 8107W        W24955   3.963  15.070   5.539 -0.2177 -0.2930  0.0933
 8108W        W24956  10.015  13.845   1.076 -0.2515 -0.0158 -0.1470
 8109W        W24957   8.915   1.656   1.763 -0.0238  0.1183  0.1662
 8110W        W24958   1.401  11.896  16.617 -0.0461  0.0556  0.0397
 8111W        W24959  16.397   4.143  14.423  0.2639  0.2047  0.2259
 8112W        W24960  13.958  16.487  14.463 -0.0060  0.0572  0.0344
 8113W        W24961  16.185   1.321   1.891  0.1637 -0.0386  0.3766
 8114W        W24962   5.655   3.733   0.248  0.0195 -0.2956 -0.2111
 8115W        W24963   9.602  16.506   0.838 -0.1950 -0.2531 -0.2179
 8116W        W24964  11.000   8.966   2.903 -0.0213  0.0528 -0.0162
 8117W        W24965   1.834  14.705   1.051  0.5680 -0.1136 -0.0257
 8118W        W24966   3.943   3.896  13.677  0.0563  0.1208  0.2005
 8119W        W24967  16.399  10.815   4.245  0.0024 -0.1643  0.2472
 8120W        W24968  15.589   4.010   5.205  0.0523  0.1590 -0.0738
 8121W        W24969   6.495   8.283   3.720  0.0793 -0.1242  0.0382
 8122W        W24970  14.023   4.029  12.953 -0.1736  0.0607 -0.2521
 8123W        W24971   2.097  16.632  12.396  0.2868 -0.0379 -0.1232
 8124W        W24972   4.728   4.615   2.787  0.0909 -0.1922 -0.2496
 8125W        W24973   0.263  12.268   0.513  0.1859 -0.0309  0.0136
 8126W        W24974  11.420   8.825   1.790  0.1864 -0.0487  0.2584
 8127W        W24975   8.705   5.043   6.355 -0.0622 -0.0590  0.1356
 8128W        W24976  13.121  14.609  17.836  0.0912 -0.1504 -0.2662
 8129W        W24977  15.628   1.490   0.632  0.1199  0.2789  0.0010
 8130W        W24978  14.930   3.473  12.950 -0.3300 -0.2669  0.1385
 8131W        W24979   7.896  11.827   2.349 -0.0729 -0.3051  0.0416
 8132W        W24980  16.653  11.312   4.102  0.2831 -0.0499  0.0358
 8133W        W24981  13.638   0.144  17.527  0.1905  0.0631  0.0488
 8134W        W24982   2.838   0.915   3.275  0.0797  0.0655  0.0049
 8135W        W24983   5.806  16.033  13.766 -0.0373  0.0748  0.2277
 8136W        W24984   8.645   3.905   5.863  0.0750 -0.1634  0.0469
 8137W        W24985  16.649   0.083   4.347 -0.0929 -0.0511  0.0176
 8138W        W24986   4.734  14.554   5.448 -0.4551  0.1321  0.1175
 8139W        W24987  13.108  13.125   0.846  0.0325 -0.5007 -0.1335
 8140W        W24988  13.118   2.847  11.825 -0.4646  0.2096  0.0972
 8141W        W24989   9.385  14.917   3.232  0.1670  0.0936 -0.0034
 8142W        W24990   4.715  14.547  16.763  0.2339  0.1207 -0.0029
 8143W        W24991  15.827   0.807   3.328 -0.0748  0.0483  0.2742
 8144W        W24992  13.519  12.321  17.433 -0.1251 -0.2662  0.2071
 8145W        W24993   2.361   6.786   6.287 -0.4275 -0.2409  0.0556
 8146W        W24994   0.757  13.629  14.477  0.0114  0.0591 -0.0583
 8147W        W24995   3.617  17.052  12.488  0.2381  0.2842  0.3289
 8148W        W24996   9.111   0.312   4.437  0.0704  0.2696  0.1176
 8149W        W24997  10.171  12.175   3.888  0.1309 -0.1749 -0.3232
 8150W        W24998   5.082  14.464   4.306 -0.0556 -0.1378  0.0717
 8151W        W24999   9.060  15.744   3.330  0.2302 -0.2846 -0.0753
 8152W        W25000   9.625  16.063  14.330  0.0874 -0.1851  0.1484
 8153W        W25001  10.601  14.070   1.025 -0.1170 -0.3753 -0.0007
 8154W        W25002   3.145   0.894   5.286  0.0586  0.2261 -0.5124
 8155W        W25003   8.343  14.175  12.945  0.0632  0.1079  0.0900
 8156W        W25004   8.996   3.796   0.147 -0.3350  0.0191 -0.0458
 8157W        W25005   0.613  15.365   6.434 -0.1323 -0.1010  0.1505
 8158W        W25006  12.027   7.701   4.858 -0.3063  0.1457 -0.0035
 8159W        W25007   8.401   0.574  14.745  0.1395  0.2672 -0.0645
 8160W        W25008  16.058   9.999   4.353 -0.1493  0.3474 -0.3256
 8161W        W25009   4.404   5.839   0.592 -0.1624  0.1042  0.3113
 8162W        W25010  15.955  11.077  12.400  0.1838  0.0056  0.1118
 8163W        W25011   9.296   2.763  14.926  0.0351 -0.2470 -0.0334
 8164W        W25012   8.700   0.804   3.294 -0.2244  0.1621 -0.1473
 8165W        W25013   5.202   1.772   3.499 -0.3550 -0.0734  0.1414
 8166W        W25014   3.445   2.218   1.557 -0.1409  0.1414 -0.0747
 8167W        W25015   2.507  15.667   0.824 -0.0126 -0.1252  0.2257
 8168W        W25016   5.813   7.804   5.728 -0.0038  0.2374  0.0270
 8169W        W25017   4.361  11.178  16.068  0.0700  0.0712  0.0567
 8170W        W25018  13.238  13.184   2.069 -0.1071 -0.3434 -0.2497
 8171W        W25019  12.556  14.941  15.979  0.0852  0.1153 -0.1616
 8172W        W25020   9.699  16.339   3.561 -0.1482 -0.1224 -0.0285
 8173W        W25021   2.065   8.956   2.137  0.0877  0.0450  0.0054
 8174W        W25022  11.645   9.709  13.944  0.0725  0.0816  0.0037
 8175W        W25023   7.076   7.788   3.455  0.0325 -0.0137  0.0590
 8176W        W25024   6.723  12.742  14.772 -0.0050  0.0228 -0.1682
 8177W        W25025  11.175   8.287   2.583  0.1718  0.1630  0.1247
 8178W        W25026  14.540   0.856  15.504  0.0484  0.1146  0.3185
 8179W        W25027   4.573  10.187   5.370 -0.0013 -0.1888  0.0269
 8180W        W25028   2.849  11.907  17.849  0.0238  0.0486  0.0601
 8181W        W25029   4.816   7.612   1.635  0.0230 -0.1005 -0.1923
 8182W        W25030   4.792   2.962   2.324  0.0106  0.0234  0.0931
 8183W        W25031  11.633  12.392  16.345  0.0718 -0.1204  0.1461
 8184W        W25032   7.292   4.973   2.350 -0.2825 -0.1817 -0.1250
 8185W        W25033   6.114   6.821   4.183 -0.1210  0.3120  0.0348
 8186W        W25034   3.150   3.813  15.228  0.0626  0.0321 -0.0153
 8187W        W25035  16.420  16.571  14.620  0.2985  0.1126 -0.0913
 8188W        W25036   5.026  11.646   5.186 -0.0699 -0.3646 -0.1569
 8189W        W25037   6.589   0.875  15.174  0.0286 -0.1163 -0.0194
 8190W        W25038   4.788  14.892   4.512 -0.0839  0.2690 -0.0077
 8191W        W25039  17.047   3.232   5.887 -0.0596  0.0239 -0.2533
 8192W        W25040  15.300  15.320  15.183  0.0944  0.1857  0.1168
 8193W        W25041   8.039   1.606   0.378 -0.0165  0.1571 -0.3030
 8194W        W25042  15.783  12.616   2.321  0.0150  0.2491 -0.1604
 8195W        W25043   4.855  12.951   5.382 -0.2286 -0.1794 -0.2115
 8196W        W25044  13.696  16.380   0.697  0.1634  0.0100 -0.1867
 8197W        W25045   7.202   8.571   1.171  0.0175 -0.0801 -0.1927
 8198W        W25046  12.412  12.856  17.456  0.0083 -0.0259 -0.0301
 8199W        W25047  10.863   7.517   2.007 -0.0213  0.1748 -0.2150
 8200W        W25048  11.461  14.294   4.731 -0.1931  0.0546  0.1543
 8201W        W25049   2.157   4.141   0.219  0.2499 -0.1396  0.0150
 8202W        W25050  16.574  10.798  13.207 -0.3195 -0.1240 -0.0411
 8203W        W25051   4.973   0.908  17.084 -0.0813  0.1050  0.0585
 8204W        W25052  16.601  16.016  12.893 -0.1637  0.1949  0.1817
 8205W        W25053   7.862   9.777   3.750 -0.1757  0.4124  0.0084
 8206W        W25054  14.121  15.325  15.180 -0.1485  0.0070  0.4252
 8207W        W25055   0.574  15.615   4.030 -0.2396  0.1157 -0.0077
 8208W        W25056   6.664  10.728  17.062  0.2126 -0.3116 -0.3001
 8209W        W25057   6.053   3.794  17.547 -0.0576  0.1139  0.0876
 8210W        W25058   6.073  16.848   0.775 -0.1063  0.3117  0.1197
 8211W        W25059  13.680   1.977   3.111  0.0215  0.2352  0.0536
 8212W        W25060   7.868   7.557   1.630 -0.0964  0.3484 -0.1441
 8213W        W25061  14.150   2.643   2.268 -0.0392 -0.0097 -0.0541
 8214W        W25062   2.250  17.005   4.804 -0.0516  0.2065  0.0641
 8215W        W25063  15.100   0.723  17.021 -0.1840  0.0550  0.2338
 8216W        W25064   1.925   2.858   0.319  0.1649  0.0494  0.4268
 8217W        W25065  16.613  12.729   0.540 -0.0099  0.2109  0.0925
 8218W        W25066  16.877   3.476  13.393 -0.2219 -0.0649  0.2405
 8219W        W25067  15.630  12.675  12.340  0.1042 -0.0927 -0.0116
 8220W        W25068   7.698   8.664  17.731  0.1722  0.0097 -0.0407
 8221W        W25069   0.843   3.454  15.349  0.0668 -0.0338 -0.1371
 8222W        W25070   9.965  14.207  12.536 -0.0319 -0.1860 -0.0662
 8223W        W25071   1.761   2.398  14.317  0.2079 -0.2581  0.3075
 8224W        W25072  12.222  10.037   1.714  0.0113  0.0978  0.0207
 8225W        W25073   5.318  15.920   1.995  0.1489  0.3617 -0.1346
 8226W        W25074  12.346   2.649   0.881  0.0308  0.3725 -0.1932
 8227W        W25075   9.876  14.095   0.615  0.0260  0.2792  0.1721
 8228W        W25076  16.594   4.279   5.096 -0.0316  0.0060 -0.0662
 8229W        W25077   5.577   6.413  10.938 -0.2738  0.3165  0.0809
 8230W        W25078  16.185  15.418   1.612 -0.1420  0.0358 -0.0966
 8231W        W25079  13.319   1.045  16.466 -0.4017  0.1624 -0.2380
 8232W        W25080  11.127   4.640  14.528 -0.0494  0.0153 -0.2347
 8233W        W25081   6.095   5.423  15.493  0.2790  0.0992 -0.2690
 8234W        W25082   3.969  12.216   1.691 -0.0607  0.4313  0.1251
 8235W        W25083   5.065   2.164   3.185  0.0886  0.1187 -0.0710
 8236W        W25084  15.237   3.903  13.254  0.1270 -0.0920  0.0955
 8237W        W25085  16.674   0.231  12.496 -0.1293  0.1329  0.0922
 8238W        W25086  14.569  14.544  16.904  0.2629  0.0891  0.1356
 8239W        W25087   2.372  11.167   3.792 -0.0587 -0.0708  0.1924
 8240W        W25088  13.563   0.446  15.631  0.1801 -0.2859 -0.1898
 8241W        W25089  11.542   5.727   3.821 -0.0363 -0.0355  0.0367
 8242W        W25090  13.349  14.313  15.766  0.0385  0.0050  0.1120
 8243W        W25091  10.404   9.556  13.093 -0.0222  0.0865 -0.1507
 8244W        W25092  16.969  15.201  14.803 -0.0958 -0.1552 -0.2522
 8245W        W25093  10.914   5.438   4.954  0.1703  0.2738 -0.2362
 8246W        W25094   8.089   2.498  16.345 -0.0625  0.2171 -0.0901
 8247W        W25095  10.680   4.747   0.053 -0.1092 -0.1390  0.4237
 8248W        W25096   4.998  13.264  16.276  0.2333  0.0965  0.2861
 8249W        W25097  11.133  11.097  17.173 -0.1182 -0.3261  0.0562
 8250W        W25098   5.736   1.621  12.257 -0.2170 -0.1887  0.1671
 8251W        W25099  11.013   5.990  12.957 -0.1031  0.0617 -0.1353
 8252W        W25100   6.048  15.915   1.049 -0.2399 -0.1472  0.2783
 8253W        W25101   3.332  15.065  12.110  0.2376 -0.1282 -0.2331
 8254W        W25102  11.449   3.376  17.529 -0.2964 -0.0936 -0.2392
 8255W        W25103   5.568  11.911  12.794  0.2188 -0.0810 -0.0082
 8256W        W25104   9.841   7.796  11.926  0.0897 -0.4635  0.0125
 8257W        W25105   9.425   0.874   1.644 -0.0986 -0.0962  0.1823
 8258W        W25106  13.199  10.932  13.406 -0.1449 -0.1969 -0.0023
 8259W        W25107   8.408   1.539  15.922 -0.3297 -0.3003  0.0673
 8260W        W25108   1.633  14.048  12.870 -0.0086 -0.2499  0.2840
 8261W        W25109  14.971  10.397  12.957  0.1250  0.0357 -0.1678
 8262W        W25110   1.098   1.653   6.179 -0.2830 -0.1702  0.0580
 8263W        W25111   0.962   3.742   2.021 -0.2534 -0.4105  0.4430
 8264W        W25112   0.080   4.494  14.813  0.1553  0.0025  0.4759
 8265W        W25113   9.494  15.556   4.616  0.3493 -0.0819  0.1495
 8266W        W25114  15.595  15.530  14.476 -0.1269 -0.0723  0.0097
 8267W        W25115  15.343   6.863   3.210 -0.1124 -0.0534 -0.0446
 8268W        W25116  14.689  10.547  16.467  0.1901  0.0338  0.1505
 8269W        W25117   6.963   1.798  16.856 -0.2321  0.2280 -0.0733
 8270W        W25118  15.240   4.781  13.216 -0.3170  0.2004 -0.0319
 8271W        W25119   5.030  11.188   6.073  0.1856  0.1226 -0.1452
 8272W        W25120   8.817  16.668  11.876 -0.2981  0.0041 -0.2067
 8273W        W25121  16.445  10.212   2.193 -0.1168 -0.1033  0.2581
 8274W        W25122  10.668  14.489  13.349  0.2245 -0.1334 -0.1841
 8275W        W25123  15.189  12.125   0.147  0.3393  0.1107  0.1928
 8276W        W25124   8.719   1.271   3.377  0.0039  0.2053  0.0366
 8277W        W25125  10.958   9.038   0.266  0.0559 -0.3943 -0.1046
 8278W        W25126   5.827  16.169  12.485  0.2974 -0.1743 -0.0144
 8279W        W25127   8.353   7.851   4.390  0.0594 -0.2396  0.0774
 8280W        W25128   2.620  11.088  15.622  0.0476 -0.0185  0.0799
 8281W        W25129  15.070   4.983  15.246  0.1499 -0.2297 -0.0798
 8282W        W25130  12.546  11.758  16.561  0.0933 -0.1412  0.0088
 8283W        W25131   1.738   5.723   0.109  0.0229 -0.1120 -0.2387
 8284W        W25132  10.101   6.681   1.443  0.0198 -0.0998  0.1332
 8285W        W25133  11.274   9.970   3.619 -0.0788  0.1222 -0.0533
 8286W        W25134  14.985  14.495  15.661  0.0595  0.0677 -0.2701
 8287W        W25135   1.265  10.201   3.705 -0.1407 -0.0458 -0.1110
 8288W        W25136  13.547   2.953  14.804  0.3356 -0.0850 -0.0679
 8289W        W25137  13.431   1.969  14.218  0.0790  0.1459  0.1417
 8290W        W25138   5.928   7.983  12.599 -0.0506 -0.0240 -0.0283
 8291W        W25139   4.207  11.395   1.786  0.0293  0.0335 -0.2879
 8292W        W25140  12.057   1.799   3.929  0.1989  0.0820 -0.1774
 8293W        W25141   5.325  14.154  15.018 -0.1425  0.0534  0.1939
 8294W        W25142  15.975  13.083   0.083 -0.0267  0.2725 -0.0907
 8295W        W25143   4.984   6.148   2.078 -0.0798 -0.0405  0.2108
 8296W        W25144  15.044  16.240  15.740 -0.0848 -0.0894 -0.0172
 8297W        W25145  11.757  15.024   5.311 -0.2682  0.0506 -0.3664
 8298W        W25146  14.540  12.337   4.780 -0.1025 -0.3120  0.0354
 8299W        W25147   3.360  16.164  12.710 -0.3127  0.1239  0.0094
 8300W        W25148   4.602   5.084  17.472  0.3470  0.3495 -0.1973
 8301W        W25149   9.498  11.662  15.169  0.4062  0.0367 -0.1091
 8302W        W25150   4.595  14.942   2.513  0.1549 -0.1463 -0.0955
 8303W        W25151   3.608   2.671  17.088  0.1783  0.2112 -0.2322
 8304W        W25152   6.130   8.431  15.650  0.0339  0.0001  0.4297
 8305W        W25153  17.060  16.549   5.111  0.0508 -0.0477  0.1209
 8306W        W25154  10.856   9.102   5.102 -0.3128  0.2088 -0.1822
 8307W        W25155  15.678  11.485  16.875  0.2191  0.0521 -0.2234
 8308W        W25156   5.651  11.863  12.300 -0.1657  0.1601 -0.1594
 8309W        W25157   5.620   6.201  14.253  0.0057  0.0455 -0.3596
 8310W        W25158   1.580   0.230  16.141  0.1139 -0.4241  0.0906
 8311W        W25159  14.157   1.525   3.881 -0.0247 -0.2377 -0.0806
 8312W        W25160  10.511   9.759  13.980 -0.3718 -0.1648 -0.0395
 8313W        W25161  14.360   4.585   3.627  0.0489 -0.0503 -0.2763
 8314W        W25162   3.440   4.200   5.579 -0.0161 -0.1123  0.2079
 8315W        W25163   3.528   7.920   1.818 -0.0182 -0.0690 -0.2184
 8316W        W25164   7.837   0.531   1.338 -0.0561 -0.0713 -0.1770
 8317W        W25165   3.373  15.107   1.433  0.0670  0.0673  0.0404
 8318W        W25166  12.427  16.300   5.064 -0.1337  0.1890 -0.1301
 8319W        W25167   0.948   2.400  13.260 -0.0599 -0.0454  0.0091
 8320W        W25168   5.657  10.256  15.439  0.2207  0.1821 -0.0442
 8321W        W25169  16.869   5.313   1.942  0.4707  0.2177  0.2269
 8322W        W25170   6.390  13.360  16.415 -0.1873  0.1251 -0.3256
 8323W        W25171   9.418  15.585   3.008 -0.1395  0.0527 -0.0053
 8324W        W25172   2.176  13.639   5.211 -0.0591  0.0781 -0.2025
 8325W        W25173   7.045   4.214  16.032  0.1524  0.0249  0.0546
 8326W        W25174   3.767   8.663   4.852  0.2037  0.1207  0.0453
 8327W        W25175   6.847   3.466  14.348 -0.0386 -0.3791 -0.0339
 8328W        W25176  10.962  15.862   3.376 -0.2576  0.0413 -0.1436
 8329W        W25177   8.240  10.754  14.785 -0.2096 -0.1500 -0.1142
 8330W        W25178  10.253   7.514   0.258 -0.0057  0.4906 -0.3616
 8331W        W25179  14.559   9.225   0.683  0.0831  0.1188 -0.0077
 8332W        W25180  11.877  12.806  16.651  0.1160 -0.2651 -0.5262
 8333W        W25181  15.828   3.671   3.158 -0.1079 -0.1148 -0.1025
 8334W        W25182   2.066   6.317  16.159 -0.0125  0.0031  0.4032
 8335W        W25183  11.870   6.943   3.030 -0.2004 -0.0751  0.1502
 8336W        W25184   2.810   2.104  12.732 -0.0295  0.1702  0.1765
 8337W        W25185  14.881  11.332   4.082 -0.0951  0.1147  0.0643
 8338W        W25186   9.285   0.225  17.437 -0.0629  0.2041  0.0167
 8339W        W25187   3.212   9.773   5.458 -0.1890  0.4285 -0.1390
 8340W        W25188  16.310   5.377   4.900  0.1072 -0.0984 -0.2809
 8341W        W25189   7.250   7.913   2.614  0.0194  0.0374  0.0511
 8342W        W25190   3.138  11.704   1.468 -0.0502 -0.1785  0.0492
 8343W        W25191  13.551   8.342   3.376 -0.0244  0.0660 -0.1793
 8344W        W25192  14.267  12.538   4.450 -0.1035 -0.0237  0.1161
 8345W        W25193  14.029   2.692   1.490  0.1728 -0.0419  0.0139
 8346W        W25194   0.966  16.058   5.074  0.0265  0.2190 -0.0722
 8347W        W25195   4.938   1.492  16.439  0.2064  0.0113  0.2309
 8348W        W25196  12.000   3.045  16.921  0.1177 -0.3790 -0.2012
 8349W        W25197   3.575   8.128   0.942 -0.2463  0.0212  0.0804
 8350W        W25198   1.542  12.147  14.966 -0.0908  0.1743 -0.0013
 8351W        W25199   6.007   5.721   4.208 -0.1772 -0.1017 -0.0098
 8352W        W25200   5.082  14.986   1.641 -0.2781 -0.1896 -0.1551
 8353W        W25201  13.857   5.331  15.796  0.0661  0.1305 -0.0221
 8354W        W25202   8.365   8.367   0.773 -0.0264 -0.0410 -0.4872
 8355W        W25203  13.919  10.514  14.302 -0.3623  0.0554  0.2717
 8356W        W25204   7.725   6.730  14.748 -0.0498 -0.1438 -0.3232
 8357W        W25205   7.664  13.626  16.383 -0.1640 -0.1531  0.1265
 8358W        W25206   1.530   4.802   5.231 -0.3188 -0.2132 -0.2110
 8359W        W25207   9.274   7.673   2.286 -0.2145  0.1674 -0.0733
 8360W        W25208   6.485   0.283  12.282 -0.0795 -0.0676  0.1529
 8361W        W25209  16.936  10.626  17.588 -0.0320  0.2168  0.0748
 8362W        W25210   3.290  16.430  12.026  0.0141 -0.0558 -0.2643
 8363W        W25211   1.898   3.382  11.485  0.1272  0.1191  0.0590
 8364W        W25212   3.254   3.810   1.815 -0.0899  0.1519  0.1489
 8365W        W25213  15.367   5.322  15.083 -0.2662  0.1449  0.1295
 8366W        W25214  15.727   4.263  12.571  0.1199  0.0829  0.1415
 8367W        W25215   6.962   1.034  12.685 -0.0613  0.1600  0.0792
 8368W        W25216   6.047  10.602  15.201 -0.1576  0.2304  0.0373
 8369W        W25217   4.619  12.396   0.716 -0.2773 -0.2366 -0.2327
 8370W        W25218   1.141   8.221  15.775 -0.1431 -0.0097  0.2721
 8371W        W25219   2.042   5.661   4.316 -0.1046  0.0741 -0.0548
 8372W        W25220  12.692  15.787  14.766 -0.1249  0.0652  0.0295
 8373W        W25221   9.556  13.330  14.120 -0.0094 -0.0920 -0.1707
 8374W        W25222   0.744  14.581   2.122  0.2466  0.2080 -0.1609
 8375W        W25223   4.399  13.189  13.688  0.1750  0.1353  0.2493
 8376W        W25224   9.416   9.929  12.634 -0.1356  0.0935 -0.0330
 8377W        W25225  15.962   4.290   6.212 -0.0495 -0.3174  0.0390
 8378W        W25226   2.299   4.596  14.611  0.0971 -0.0121 -0.0084
 8379W        W25227   9.158   5.881  15.312  0.0585 -0.4187 -0.0423
 8380W        W25228  14.534   4.844   5.418  0.1979 -0.0875  0.3668
 8381W        W25229   1.045  10.134   3.049  0.0120 -0.1105 -0.0747
 8382W        W25230  15.151   9.320   1.813  0.1283 -0.2013 -0.1245
 8383W        W25231  14.276   3.149   3.552 -0.1364 -0.2480  0.1796
 8384W        W25232   6.910  10.744  15.648 -0.0121  0.1666 -0.2883
 8385W        W25233  10.121  14.787  12.818  0.0880 -0.0738 -0.0999
 8386W        W25234   3.548  15.047   0.964 -0.0060  0.1128  0.1018
 8387W        W25235  11.548  11.377   5.550  0.3384 -0.0275  0.1172
 8388W        W25236   9.198  12.472  16.538  0.1240  0.2810 -0.0910
 8389W        W25237  15.810   2.290   3.338 -0.0682 -0.1521  0.0627
 8390W        W25238  13.399   1.356   4.312  0.0690  0.0696  0.0739
 8391W        W25239   7.988  13.109   5.665 -0.1214  0.1072 -0.3193
 8392W        W25240   4.032   2.890   3.314  0.3410  0.0997  0.1467
 8393W        W25241   2.589   1.121  17.200 -0.0970 -0.4234  0.0831
 8394W        W25242   0.567  13.441   1.034 -0.0196  0.1455 -0.0295
 8395W        W25243   7.320   1.146  16.114 -0.0145  0.1422  0.1733
 8396W        W25244   5.931  16.445   3.202 -0.1194  0.0435  0.0846
 8397W        W25245  15.958  11.388   4.954  0.0053  0.2780  0.0317
 8398W        W25246  14.962   2.473   3.046  0.0458  0.0359 -0.0838
 8399W        W25247  16.331   9.489   3.380 -0.0030  0.0848 -0.0024
 8400W        W25248  10.896   8.427   3.540 -0.1642 -0.1483 -0.0255
 8401W        W25249   2.499   5.003   2.668  0.0614 -0.3811 -0.0959
 8402W        W25250   1.834  15.753  11.928  0.2528  0.0762  0.2794
 8403W        W25251   2.037   8.847   3.697  0.3413  0.3936 -0.1512
 8404W        W25252   2.454   6.069   5.165 -0.0464 -0.0671 -0.4890
 8405W        W25253   7.068   4.820   3.442  0.0294 -0.1505  0.2523
 8406W        W25254   6.960  11.378  12.600 -0.0826 -0.1124  0.0232
 8407W        W25255  15.717   1.327  11.034  0.0014 -0.1121  0.1542
 8408W        W25256  10.274   3.561   2.382 -0.3210  0.0724 -0.1912
 8409W        W25257  15.815  13.731  16.750 -0.1882 -0.0397 -0.2155
 8410W        W25258  11.149  12.005   5.419 -0.0897  0.1062  0.2455
 8411W        W25259   8.258   7.031   1.180  0.2438 -0.1296  0.2402
 8412W        W25260   2.144   8.675   5.092  0.1859  0.0318  0.3112
 8413W        W25261   1.006  11.956  15.738 -0.1707  0.1119 -0.0191
 8414W        W25262   5.350  14.967  15.691  0.2004  0.1741 -0.1822
 8415W        W25263  13.126  14.996   0.361  0.2697 -0.2482 -0.0208
 8416W        W25264  14.666   1.320   2.309  0.0882  0.4270  0.0197
 8417W        W25265   3.984  16.582  13.329 -0.2619  0.1150 -0.1554
 8418W        W25266   6.991  11.486  16.349  0.1844  0.0566  0.0065
 8419W        W25267   5.781   4.281  17.244 -0.4325  0.1259 -0.3373
 8420W        W25268   0.082  17.066   2.450 -0.0634 -0.0085 -0.0038
 8421W        W25269   1.933   3.192  16.249 -0.0115 -0.1954 -0.0707
 8422W        W25270   6.699   3.678  15.564 -0.1040 -0.2668  0.0067
 8423W        W25271  15.915  13.343  16.361 -0.0935 -0.1126  0.1262
 8424W        W25272  13.885   8.710   0.748 -0.0361 -0.0892  0.1635
 8425W        W25273   1.929   3.487   0.707 -0.1539 -0.1405 -0.0164
 8426W        W25274   5.945  15.172   1.061  0.0800 -0.0459 -0.0483
 8427W        W25275   2.312  12.747  17.676  0.2302  0.1973 -0.3114
 8428W        W25276   2.621  10.422  16.151  0.0972  0.1575 -0.4132
 8429W        W25277   8.403   3.886  12.067  0.2522 -0.1951 -0.3299
 8430W        W25278   5.742   2.642   3.378  0.2225 -0.0172 -0.0185
 8431W        W25279  10.532   0.172   4.312 -0.0682  0.0012  0.0152
 8432W        W25280   0.232  15.757   5.637 -0.0450  0.0480  0.0976
 8433W        W25281  13.189  12.288   3.367  0.1083 -0.1266 -0.0326
 8434W        W25282   7.950  14.764   0.353  0.0249 -0.4308 -0.0457
 8435W        W25283   8.412  11.674   3.937 -0.2288  0.1234  0.0173
 8436W        W25284  13.961  12.075  17.301 -0.4240  0.0946 -0.0027
 8437W        W25285  15.768  11.638  14.930  0.2971  0.1369  0.2458
 8438W        W25286  15.327   7.191   3.603  0.2115 -0.0111 -0.2023
 8439W        W25287   8.875   4.152   3.199 -0.2972 -0.2014 -0.0393
 8440W        W25288  12.490  13.379  16.262 -0.2084 -0.0524 -0.0153
 8441W        W25289   2.067  10.967  17.682 -0.0330 -0.0522 -0.3068
 8442W        W25290   9.543   5.876  17.390 -0.0711  0.0773 -0.2070
 8443W        W25291   8.788  11.398  15.823 -0.1379 -0.2474  0.4448
 8444W        W25292  12.183   9.450  13.899  0.0623  0.0575  0.1711
 8445W        W25293   3.279  12.723   1.703  0.1381  0.1691  0.2480
 8446W        W25294   1.912  12.848  14.860 -0.0222 -0.1880 -0.2135
 8447W        W25295  15.948   1.616  14.521  0.2030  0.1613 -0.0766
 8448W        W25296  11.782   0.115  14.337 -0.1331  0.1650 -0.2651
 8449W        W25297  12.937   3.716  17.477 -0.0011  0.2588  0.3761
 8450W        W25298  12.814   8.155  17.658  0.0437 -0.1756  0.1397
 8451W        W25299  11.118   8.004   1.812 -0.3009 -0.1769 -0.1322
 8452W        W25300   6.098   8.102   1.927 -0.1348 -0.0752 -0.0057
 8453W        W25301   5.514  10.361  13.999  0.2815  0.0097  0.0236
 8454W        W25302   5.963   1.553  14.290 -0.1302  0.1191 -0.0896
 8455W        W25303   3.005  14.777   1.304  0.1200 -0.0620 -0.0398
 8456W        W25304   6.515  14.287   5.263  0.2352  0.3314  0.0628
 8457W        W25305   2.213  13.255  16.717 -0.0417  0.0857 -0.1371
 8458W        W25306   0.026  11.022  14.956  0.0090 -0.1429  0.3838
 8459W        W25307   7.524   0.929  15.160 -0.0171 -0.2782 -0.0921
 8460W        W25308   3.781   8.330  13.461 -0.0802  0.1224 -0.0631
 8461W        W25309  16.558   4.965  16.480  0.0037  0.0332  0.0051
 8462W        W25310  13.414   2.183  16.580  0.1196  0.2372 -0.0105
 8463W        W25311  13.711   8.426  14.237 -0.1686  0.1256 -0.0066
 8464W        W25312   5.227   1.434  13.418  0.0070  0.0290 -0.3714
 8465W        W25313   1.450   9.423  17.115 -0.5093  0.0389  0.2216
 8466W        W25314  11.947   6.109   0.424 -0.2534  0.2275 -0.2839
 8467W        W25315   7.514  12.264  16.709  0.0433 -0.0109 -0.0799
 8468W        W25316  11.210  10.131   1.186  0.3759 -0.0497  0.2409
 8469W        W25317   0.797  14.742  12.795  0.3182  0.1058  0.2581
 8470W        W25318   3.924  15.874  16.857  0.0232  0.0613  0.1784
 8471W        W25319   6.875   6.662  14.608  0.0229 -0.1380 -0.1980
 8472W        W25320   7.593  14.538  13.159  0.0666  0.0844 -0.1061
 8473W        W25321   3.076   7.197  13.910  0.0238  0.0907 -0.0242
 8474W        W25322   5.489  13.741   4.569 -0.4308 -0.2249  0.0478
 8475W        W25323  12.270  15.792  12.342  0.1103  0.0231 -0.2044
 8476W        W25324  16.862   5.052  16.870  0.1688 -0.1095 -0.0038
 8477W        W25325   7.408  13.870   2.002 -0.1347  0.1202  0.0454
 8478W        W25326   7.344  10.208  13.954  0.0159 -0.4630  0.0941
 8479W        W25327   3.107  15.554   3.183 -0.0287 -0.0665  0.1021
 8480W        W25328  10.951   7.847   2.375 -0.0747  0.3164 -0.0738
 8481W        W25329   6.477   1.653  14.437  0.0440  0.1027  0.1803
 8482W        W25330   2.758   1.842  14.229  0.0983 -0.2950  0.0640
 8483W        W25331   7.283  15.210   5.631 -0.0366  0.1542  0.0883
 8484W        W25332  17.061  13.356   4.495  0.2703  0.0636  0.0535
 8485W        W25333   8.719  10.760  14.759 -0.0392 -0.1536 -0.0245
 8486W        W25334   5.629   4.812  14.711  0.0752  0.2577 -0.1978
 8487W        W25335   6.461  16.454  14.936 -0.0142  0.1765  0.0845
 8488W        W25336   2.483   9.553   4.012  0.0633 -0.1648 -0.2005
 8489W        W25337  14.723   7.814   3.873  0.0955 -0.0605  0.2421
 8490W        W25338   3.498  13.849   1.218  0.1404  0.0056  0.0747
 8491W        W25339  13.211  10.418   4.591  0.0221  0.1200 -0.2410
 8492W        W25340   7.064  14.526   5.454  0.2061  0.1179 -0.1001
 8493W        W25341  13.621   6.255   0.030 -0.1085  0.2118  0.1395
 8494W        W25342  15.218   8.921   2.905  0.1306 -0.0196  0.3437
 8495W        W25343   3.184  16.803   2.768 -0.0658 -0.1948 -0.1024
 8496W        W25344   4.261   0.530  12.341 -0.1958 -0.1074 -0.3304
 8497W        W25345  12.270  16.615  16.498 -0.0947  0.2749  0.2985
 8498W        W25346   1.841   5.875   3.332 -0.3631 -0.4367 -0.1064
 8499W        W25347  12.101  13.504  15.761 -0.1253  0.2684 -0.2885
 8500W        W25348  16.710   0.340  13.894 -0.0988  0.0246  0.0553
 8501W        W25349   5.397   6.045  17.262  0.0199 -0.0606  0.3770
 8502W        W25350  14.335   9.068  16.997 -0.0038  0.2488  0.0228
 8503W        W25351  16.854   9.436   4.056  0.1855  0.0153  0.1442
 8504W        W25352   2.581   2.046   4.714  0.2259  0.0894 -0.1387
 8505W        W25353  14.222   2.511   0.593 -0.0548  0.1766  0.2195
 8506W        W25354  15.457   6.777  15.380 -0.0798 -0.1489  0.1950
 8507W        W25355   0.043   0.139   4.963  0.2571 -0.2036 -0.2265
 8508W        W25356  12.131   5.901  13.637 -0.3801  0.0608  0.1362
 8509W        W25357  12.839  12.551   4.287 -0.1653 -0.0479 -0.2151
 8510W        W25358   4.295  14.819  14.358  0.3297 -0.2391 -0.1250
 8511W        W25359   6.090  10.020   5.240 -0.1857  0.0501 -0.2615
 8512W        W25360  11.338  12.004  17.647 -0.2450  0.0280 -0.0361
 8513W        W25361   5.490   1.182  12.173  0.1162  0.2668  0.0485
 8514W        W25362   2.287  13.388   1.947 -0.2977 -0.1280 -0.0971
 8515W        W25363   9.135   0.851   3.560  0.1277 -0.2085  0.0836
 8516W        W25364   5.883   9.759  16.570  0.1321  0.0070  0.1558
 8517W        W25365   8.120   4.119   1.125 -0.2010 -0.0644 -0.1991
 8518W        W25366  13.746   7.904   3.111  0.0315 -0.0434  0.0670
 8519W        W25367  16.536   8.807  15.966 -0.1620 -0.0419 -0.1437
 8520W        W25368   4.398  13.954  16.746 -0.1392 -0.0618  0.0873
 8521W        W25369   8.577  12.636  14.466  0.2870 -0.1122 -0.0461
 8522W        W25370   3.352   1.216  16.246 -0.0607 -0.0286  0.0597
 8523W        W25371   3.819   5.405  15.658 -0.0848  0.1261  0.0151
 8524W        W25372   5.227   7.613  12.201 -0.1972 -0.0101  0.1214
 8525W        W25373   9.302   8.430   5.444  0.0379  0.0948 -0.2415
 8526W        W25374   2.648   8.221   2.601  0.1639 -0.0582 -0.1186
 8527W        W25375  14.672  15.541   1.942 -0.0925  0.0851 -0.1162
 8528W        W25376   8.816  15.318   4.727  0.0203  0.0911 -0.0286
 8529W        W25377   2.277   7.097   1.097  0.0762 -0.0130 -0.0588
 8530W        W25378  13.507  14.725  15.899  0.3065 -0.2840  0.2543
 8531W        W25379  10.936  13.744   1.553  0.0366 -0.0177 -0.0808
 8532W        W25380  14.487   9.101  13.416 -0.2871  0.2610  0.0496
 8533W        W25381   6.973   1.457   5.399  0.0644  0.0722 -0.0655
 8534W        W25382  10.056   0.815  13.735 -0.2751  0.2130  0.1369
 8535W        W25383  10.683  11.898  17.018  0.3123 -0.1580 -0.0248
 8536W        W25384   1.760  16.884  12.996 -0.3604  0.1203  0.0868
 8537W        W25385   0.142   7.967   5.029 -0.2199 -0.2566 -0.1482
 8538W        W25386   0.955   3.981  16.033 -0.3742 -0.0254  0.2737
 8539W        W25387   5.201   4.954  13.516  0.1309  0.1244 -0.0258
 8540W        W25388  15.182   9.445   4.846 -0.0312 -0.1522  0.3760
 8541W        W25389   6.931   4.666  16.161 -0.0051 -0.1423 -0.1348
 8542W        W25390  12.021   2.368   1.212 -0.1411 -0.0227 -0.0596
 8543W        W25391   6.515   1.463   4.125 -0.2097  0.2939  0.0125
 8544W        W25392   3.894   2.718  12.343 -0.0599 -0.1127  0.3918
 8545W        W25393  12.401   7.001  16.181  0.0667  0.2624  0.0919
 8546W        W25394   1.807   5.577  17.160 -0.0993  0.3566 -0.0885
 8547W        W25395   6.957  15.058  13.543 -0.0263  0.1110  0.1726
 8548W        W25396   1.987  12.103   2.859 -0.1036  0.1149  0.0372
 8549W        W25397  13.268   1.838   1.927 -0.1982 -0.0612 -0.0202
 8550W        W25398  13.892   2.415   1.874 -0.2603  0.1956  0.0781
 8551W        W25399  15.140   3.676  12.200 -0.1814 -0.1590 -0.1578
 8552W        W25400   2.626   0.297   0.919 -0.1639 -0.2332  0.0346
 8553W        W25401   9.001  15.192  12.363 -0.1251  0.0626  0.2190
 8554W        W25402   8.109   0.053   2.946  0.5117  0.1636 -0.0127
 8555W        W25403  14.040   0.203  15.709  0.0506  0.1387 -0.2054
 8556W        W25404   4.388   5.931  13.461 -0.1606 -0.1448  0.0344
 8557W        W25405  11.849   8.185   5.368 -0.3441  0.0605  0.0169
 8558W        W25406   0.413  16.341   2.089 -0.1810 -0.0466  0.0982
 8559W        W25407  10.970  13.759  13.916 -0.1212  0.1272  0.2013
 8560W        W25408   3.205  15.013   4.426 -0.0198 -0.0257 -0.0160
 8561W        W25409   1.651  13.341   5.941  0.0827 -0.0503 -0.0322
 8562W        W25410   0.506  16.918  14.584  0.2602 -0.0581  0.1603
 8563W        W25411   8.142   3.969   0.170 -0.3404  0.3279  0.0779
 8564W        W25412  13.170  13.720  12.509 -0.2110 -0.2215 -0.2514
 8565W        W25413   5.880   9.881  17.721 -0.1775  0.0444 -0.0026
 8566W        W25414   8.181  10.191  16.230 -0.2283 -0.1874  0.3351
 8567W        W25415   3.060   3.001   1.307 -0.0797  0.0532  0.1781
 8568W        W25416  15.019   6.964  15.672 -0.0165 -0.0891  0.0467
 8569W        W25417   2.642   0.750   5.078  0.0884  0.0836 -0.1590
 8570W        W25418  14.555  13.716   5.569  0.1073 -0.1736 -0.1885
 8571W        W25419   1.052   5.345   2.356  0.1537 -0.2335 -0.0562
 8572W        W25420   6.412  13.553  14.189  0.3579  0.0502  0.0174
 8573W        W25421  13.218  11.344  11.500  0.1350 -0.2851  0.0972
 8574W        W25422  15.489  16.485   1.742 -0.1617 -0.1606  0.2146
 8575W        W25423   5.734   8.865   5.140  0.0117  0.2987  0.1629
 8576W        W25424   2.720  14.968  12.323  0.4195  0.1684 -0.2894
 8577W        W25425   3.939  13.486   5.556  0.0038 -0.1126  0.0399
 8578W        W25426   3.909  14.744  16.221 -0.2590 -0.1747  0.0307
 8579W        W25427   3.006   4.774   4.563  0.1925  0.1150 -0.0389
 8580W        W25428   8.276  15.711  17.188 -0.0562  0.1937 -0.1453
 8581W        W25429  12.139  15.222   3.676  0.0923  0.0787 -0.1111
 8582W        W25430   8.772   6.521  13.743  0.1965 -0.1120 -0.0283
 8583W        W25431  14.757   2.016  12.405  0.0928  0.0466  0.0309
 8584W        W25432  13.568   5.465   1.172  0.1090 -0.0931  0.1901
 8585W        W25433   1.510   6.225  14.114  0.1525  0.1687 -0.0927
 8586W        W25434   7.139  16.525   5.008  0.0606 -0.4702  0.1617
 8587W        W25435   6.142   6.222   4.829 -0.0120  0.1045  0.1772
 8588W        W25436  10.269   7.472  14.084 -0.1448  0.0428 -0.1523
 8589W        W25437  16.407   1.539   3.238 -0.2218 -0.1103  0.0047
 8590W        W25438  10.330  11.228   1.253 -0.0682  0.1514  0.3083
 8591W        W25439   3.990   3.871  15.684 -0.2775  0.2032  0.2873
 8592W        W25440   9.921   5.116  15.877 -0.0556 -0.4499 -0.0484
 8593W        W25441   8.614  13.423   2.240  0.1434  0.1206  0.3134
 8594W        W25442  13.362   2.912   4.351 -0.1457  0.0325 -0.0065
 8595W        W25443   7.455  14.701  15.075  0.3107  0.1520 -0.0401
 8596W        W25444   5.150   4.396  15.853 -0.1073  0.0522 -0.0010
 8597W        W25445   6.543   0.256   1.536 -0.1241  0.2355 -0.1431
 8598W        W25446   8.121   4.003  14.433  0.0821 -0.0354 -0.0541
 8599W        W25447   6.397   3.548  13.012  0.1216  0.0098  0.2410
 8600W        W25448  10.134   1.596  13.116  0.0042  0.2169 -0.0289
 8601W        W25449  13.784   2.557   1.054  0.3630  0.3209  0.0922
 8602W        W25450   5.878  14.856  15.418 -0.1887  0.3123  0.1474
 8603W        W25451   8.757   0.785  14.455  0.0982 -0.0301  0.1618
 8604W        W25452   8.708   4.994   2.206 -0.2493  0.0112 -0.0568
 8605W        W25453   2.161  14.016   4.819  0.0364  0.0996  0.1916
 8606W        W25454   7.447  15.112  13.863  0.0654  0.1281 -0.0532
 8607W        W25455   8.660  11.339   5.646 -0.2189  0.0312  0.1074
 8608W        W25456   8.673  14.328  14.859  0.1624 -0.0916  0.0157
 8609W        W25457  13.818  14.019  17.150  0.4297 -0.1139 -0.0709
 8610W        W25458  11.731  15.235  13.972 -0.0304  0.2208 -0.1110
 8611W        W25459   9.346  11.696   2.736  0.0943  0.0555  0.0716
 8612W        W25460  16.343   8.010  14.075 -0.2442 -0.3189 -0.0986
 8613W        W25461  16.733   9.104  16.643  0.0311 -0.1320 -0.0304
 8614W        W25462  11.947   7.709   3.442  0.3652  0.1170  0.0676
 8615W        W25463   6.949  13.854  15.899 -0.1183 -0.2140 -0.0625
 8616W        W25464   6.537   0.933  17.270 -0.3287 -0.1790  0.0840
 8617W        W25465   8.165  11.251  16.259 -0.1790 -0.3430 -0.0154
 8618W        W25466   2.312   1.508  14.973 -0.2049  0.2793  0.0861
 8619W        W25467   8.371   3.695  12.675 -0.2097  0.0172 -0.1150
 8620W        W25468  15.763  11.701  13.121 -0.1641  0.2173 -0.0667
 8621W        W25469   4.704  13.814  14.179 -0.0860 -0.1508  0.1401
 8622W        W25470  16.609  14.943   1.693 -0.1738  0.4620 -0.0959
 8623W        W25471   8.184   4.761  16.615 -0.2417 -0.2530 -0.5129
 8624W        W25472  13.553  11.857   4.374 -0.2965 -0.1210  0.0900
 8625W        W25473   7.759   9.031  16.828  0.0231 -0.0180  0.0852
 8626W        W25474  14.223  12.945  16.260 -0.0210 -0.0469  0.1046
 8627W        W25475  12.278   1.575  14.574 -0.1278  0.0424  0.1776
 8628W        W25476   7.124  16.074  12.026  0.0588 -0.1249  0.1682
 8629W        W25477   6.406  16.275   5.447  0.2069 -0.0164  0.0160
 8630W        W25478   4.652   3.026   1.466  0.1000  0.1546  0.0259
 8631W        W25479   3.559  15.240  17.848  0.0525  0.1262  0.1404
 8632W        W25480  16.378  14.218  17.291 -0.2788 -0.1788 -0.2200
 8633W        W25481   8.643  14.162  16.592 -0.3475 -0.0265  0.0236
 8634W        W25482  11.871  13.078   5.057  0.1450  0.0313 -0.0236
 8635W        W25483  16.175   9.521  11.371 -0.0564  0.1069  0.0317
 8636W        W25484  10.786  16.211   2.990 -0.1231 -0.3602 -0.0233
 8637W        W25485   0.891  13.630  15.650 -0.2511 -0.1540  0.0136
 8638W        W25486  11.105   1.110   5.544  0.1012  0.1647  0.0090
 8639W        W25487  15.434   9.627  13.492  0.1320  0.2576  0.0621
 8640W        W25488   8.090  12.177   4.167  0.0344  0.0974  0.0414
 8641W        W25489   4.967   1.255  14.401  0.0581  0.0300 -0.1131
 8642W        W25490   0.632  14.632  16.769 -0.1875 -0.3994 -0.0393
 8643W        W25491   7.624   2.964  16.325 -0.3156 -0.0179  0.0807
 8644W        W25492  11.621   6.438  15.304 -0.0655 -0.1774 -0.2072
 8645W        W25493  16.042   7.694  17.568  0.2397  0.0581  0.0079
 8646W        W25494   9.772   3.075   3.160  0.0004  0.2304  0.1838
 8647W        W25495   1.048  12.867  17.261  0.0852 -0.0586 -0.1106
 8648W        W25496   1.389  10.663   2.110 -0.0851  0.0658  0.0772
 8649W        W25497   7.470  14.949  13.405  0.2997 -0.0823 -0.0288
 8650W        W25498   5.920  12.380  16.321  0.3552  0.0152  0.2997
 8651W        W25499  12.551  12.322   1.833  0.2079  0.2278  0.1738
 8652W        W25500  10.972  12.322   0.003  0.1544  0.1475 -0.1421
 8653W        W25501  11.745  14.752  16.195 -0.0715  0.1275  0.4409
 8654W        W25502  13.523   0.650   5.515  0.0366 -0.0261  0.1044
 8655W        W25503  15.441   4.339  12.992 -0.3186 -0.1762  0.0812
 8656W        W25504  16.509  10.322  12.917 -0.0139  0.0347  0.0507
 8657W        W25505   1.794  12.369   3.239 -0.4137  0.1524  0.0328
 8658W        W25506   8.037   1.950  16.175  0.1594  0.1848 -0.4287
 8659W        W25507   7.127   1.194  15.151 -0.1453  0.0513  0.2472
 8660W        W25508  11.145  13.065   4.366  0.2227 -0.0418  0.0562
 8661W        W25509   2.314  13.299  14.093 -0.1030 -0.0032  0.3342
 8662W        W25510   5.379  16.100   4.570 -0.1820  0.4058  0.5118
 8663W        W25511  13.809   1.837   0.154  0.3564  0.1310  0.0928
 8664W        W25512   0.020   8.762   1.867 -0.0326 -0.1038 -0.0330
 8665W        W25513  16.026  10.136   1.211 -0.2192  0.2342 -0.0734
 8666W        W25514  14.829   5.548  12.778 -0.0076 -0.2261  0.1739
 8667W        W25515  15.985  13.174   1.132  0.0160  0.0557 -0.1506
 8668W        W25516  11.746   5.300  16.604 -0.1772  0.0808 -0.0662
 8669W        W25517   0.244  15.497   0.262  0.4575  0.1328  0.1042
 8670W        W25518  13.697   9.987   4.633  0.0445  0.1443 -0.1957
 8671W        W25519   0.462  13.777  16.590  0.0432 -0.0445  0.1037
 8672W        W25520  16.216   7.951   0.522  0.0727 -0.0999 -0.1014
 8673W        W25521   2.894  15.086  16.240 -0.0964 -0.0452  0.1598
 8674W        W25522   3.839   1.485   4.550 -0.1113 -0.0936 -0.0623
 8675W        W25523   3.203   1.214   3.134 -0.3033  0.2928  0.0952
 8676W        W25524   6.367  16.210   0.147  0.0879 -0.3083  0.2198
 8677W        W25525   9.074   5.212   2.419  0.0988  0.0103  0.2457
 8678W        W25526   2.798  15.077  11.776 -0.0101 -0.0250 -0.0987
 8679W        W25527   5.595  12.790   2.520 -0.0718  0.0989 -0.0805
 8680W        W25528   4.462  13.628  12.901  0.1670 -0.1397 -0.0777
 8681W        W25529  11.048  11.135   5.708 -0.0647  0.1255 -0.1943
 8682W        W25530  11.082   8.922  12.865  0.2017  0.1391 -0.0197
 8683W        W25531   2.145   2.160   1.902 -0.1904  0.0264 -0.0467
 8684W        W25532  14.877  13.646  13.267 -0.3962 -0.2075  0.2186
 8685W        W25533   9.768  16.189   2.553  0.1798 -0.0661  0.0229
 8686W        W25534   0.005   1.395  17.026 -0.0760 -0.5897 -0.1824
 8687W        W25535  12.271   7.110  13.383 -0.1693  0.0257  0.1506
 8688W        W25536  10.936   3.087   1.362  0.1716  0.3053  0.0440
 8689W        W25537  15.315  13.945   4.989 -0.2385 -0.0585 -0.0615
 8690W        W25538  11.375   0.207  15.360  0.2524 -0.1795 -0.0782
 8691W        W25539  13.045   0.791   2.739 -0.1477  0.0258  0.1574
 8692W        W25540   6.379   4.612   1.443 -0.0795  0.0434 -0.0679
 8693W        W25541  13.780   1.392  13.036  0.1853 -0.1517  0.0214
 8694W        W25542  10.977   1.804  13.103  0.1263 -0.2025 -0.2483
 8695W        W25543   4.820  13.173  16.745  0.4595  0.0893  0.1862
 8696W        W25544   0.373   1.823   3.546  0.0626 -0.1737  0.0028
 8697W        W25545  14.405   0.874  14.119  0.1507 -0.0406  0.0428
 8698W        W25546   8.819   1.914   3.934  0.1889  0.1944 -0.1259
 8699W        W25547  14.832  14.186   3.929  0.3547 -0.0105  0.2185
 8700W        W25548   9.030   7.612  15.339 -0.0221 -0.1678  0.1540
 8701W        W25549   4.660  17.011  12.651 -0.3747  0.0802  0.1953
 8702W        W25550   3.918   2.622   4.307 -0.0364 -0.2703  0.0325
 8703W        W25551   4.334   1.933   3.618  0.1377 -0.2132  0.0581
 8704W        W25552   4.284  16.867   1.437 -0.0262 -0.0780 -0.2848
 8705W        W25553   2.233  11.625   1.160 -0.1203 -0.0529 -0.1331
 8706W        W25554   9.916   8.344  12.133 -0.0002 -0.0693  0.0336
 8707W        W25555   7.042   3.038   4.817  0.1890 -0.0162  0.1184
 8708W        W25556  14.594   5.586  13.682  0.1694 -0.0049  0.0035
 8709W        W25557  11.791  12.225   2.023  0.0578 -0.2125  0.0200
 8710W        W25558  13.909  16.362   0.087  0.0715  0.0766  0.0873
 8711W        W25559  11.467  14.216  14.583 -0.0595 -0.1714 -0.0716
 8712W        W25560   2.318  12.971  16.320  0.1340  0.0861 -0.0330
 8713W        W25561  13.501   9.383  11.312  0.0328 -0.0713  0.0486
 8714W        W25562  10.341   8.728  14.497  0.0788 -0.2796  0.0774
 8715W        W25563   0.548   8.144  13.280  0.1955  0.0644  0.1306
 8716W        W25564  13.311   9.948   5.999  0.2955 -0.2705  0.0063
 8717W        W25565  12.050  15.526  16.650 -0.0202  0.1794  0.3927
 8718W        W25566   1.267  11.391  13.033  0.1460  0.0728  0.1743
 8719W        W25567   1.902  14.686   1.603  0.2579 -0.3954  0.0338
 8720W        W25568   5.295  11.966  15.112 -0.1459  0.0598 -0.3816
 8721W        W25569  14.100   0.081   3.175  0.2801  0.1888  0.0928
 8722W        W25570   7.522   9.427  17.098 -0.0224  0.0243  0.0950
 8723W        W25571   5.283   2.948  14.704 -0.2822  0.3458  0.1095
 8724W        W25572  10.848   5.007   1.439  0.0488  0.0871 -0.3701
 8725W        W25573  13.081  15.417  17.355  0.3288 -0.1010  0.0662
 8726W        W25574   6.928   3.872  11.592  0.1557  0.0400 -0.0255
 8727W        W25575   2.926   5.797  12.303 -0.2584 -0.0798 -0.2740
 8728W        W25576   7.632  13.824   0.284  0.2360  0.1534  0.2058
 8729W        W25577   4.249   1.827  12.020  0.1683 -0.0027  0.0332
 8730W        W25578   5.672  11.410  12.973 -0.1142 -0.0099  0.0646
 8731W        W25579   0.563   9.241   2.302  0.2586 -0.2073  0.1606
 8732W        W25580   2.185   3.815  17.153 -0.1350  0.3202  0.0876
 8733W        W25581  10.214   0.709   4.665  0.2473  0.2292 -0.0065
 8734W        W25582   8.576   1.319  16.454 -0.1631  0.2335  0.1051
 8735W        W25583   6.885  10.014   5.956 -0.0066  0.1791  0.1525
 8736W        W25584   9.804   4.388  16.028 -0.4289 -0.1851  0.1736
 8737W        W25585   7.866  13.319  15.181  0.3625  0.2422 -0.0078
 8738W        W25586   3.266  14.164  17.740  0.1707  0.0620 -0.1713
 8739W        W25587  10.983   3.434  13.344 -0.2486 -0.3214  0.0347
 8740W        W25588   8.668   7.836   4.992 -0.3935  0.0115 -0.0255
 8741W        W25589   3.936  11.607   2.336  0.0290  0.0514  0.0083
 8742W        W25590  12.835   4.492   4.760  0.1327 -0.3871  0.0104
 8743W        W25591   8.781   9.791   4.302  0.3460 -0.1185  0.1129
 8744W        W25592   5.310  11.230  13.712 -0.1285 -0.0702  0.2555
 8745W        W25593   1.004  12.745   2.126 -0.2371 -0.4089  0.1398
 8746W        W25594   2.986  12.753  13.397 -0.1942 -0.0842  0.0611
 8747W        W25595  11.164  10.032   2.967  0.1141  0.2246  0.1001
 8748W        W25596  15.928  12.101   0.408  0.0452  0.2699 -0.0784
 8749W        W25597   7.457   7.445   5.336 -0.2542 -0.0006 -0.1040
 8750W        W25598   8.494   2.576   4.436 -0.0544 -0.2322  0.1834
 8751W        W25599  10.147   4.219   5.366  0.0178 -0.2651 -0.2929
 8752W        W25600   5.908  17.017  15.874 -0.0182  0.1105  0.0577
 8753W        W25601  10.199  15.929  14.906 -0.1454  0.0407  0.0627
 8754W        W25602   3.421   8.979   0.640  0.0296  0.1315  0.2416
 8755W        W25603  11.249   5.265  14.688  0.0726  0.1381 -0.1665
 8756W        W25604  14.903  16.152  17.643  0.2890  0.0444 -0.0921
 8757W        W25605  13.447   2.070  13.292 -0.0798 -0.1483 -0.1309
 8758W        W25606  11.405  12.853  16.296  0.1881  0.0050  0.2149
 8759W        W25607  11.117   5.545  15.093 -0.1770  0.2347  0.0040
 8760W        W25608   2.641  15.999  13.261 -0.2211 -0.0263 -0.0804
 8761W        W25609   9.241   3.708  13.999  0.0710 -0.3298 -0.3287
 8762W        W25610  14.704  15.150   3.361  0.0006  0.0428  0.0698
 8763W        W25611   8.782  10.867   2.133 -0.0338  0.3659  0.1811
 8764W        W25612  12.589   3.457   0.684 -0.0156 -0.0764 -0.1457
 8765W        W25613  10.824   3.459   2.297  0.0517 -0.0856 -0.0333
 8766W        W25614   1.981  14.496  16.880  0.2426 -0.1160  0.1824
 8767W        W25615   0.965  15.063   1.582  0.1489  0.0113  0.0300
 8768W        W25616   2.655   0.119  17.732 -0.1702  0.1903  0.2606
 8769W        W25617  12.135   9.527  15.955 -0.1656 -0.2241  0.1993
 8770W        W25618   4.939  11.395  11.539  0.1443 -0.0839  0.1459
 8771W        W25619  11.560   8.825  12.989  0.1218  0.1067 -0.1494
 8772W        W25620  11.661  11.742  13.998  0.0258  0.1141  0.1359
 8773W        W25621   0.000   9.871  13.874 -0.2272  0.1498 -0.1303
 8774W        W25622   2.008   0.518  15.423  0.0023 -0.1819  0.2108
 8775W        W25623  12.347  15.507   3.256 -0.1800 -0.0843  0.0792
 8776W        W25624  11.669   3.598  13.867 -0.0695  0.0094 -0.3093
 8777W        W25625  12.315   9.217   0.743 -0.1207 -0.1272  0.0304
 8778W        W25626   1.198   1.944   5.785 -0.0451  0.0314 -0.0838
 8779W        W25627   0.128   1.464   2.002 -0.0893 -0.0128 -0.1415
 8780W        W25628   4.989  10.459  14.169  0.0715  0.3091  0.1680
 8781W        W25629  16.865   3.704  15.133 -0.1027  0.0194  0.2104
 8782W        W25630   4.733  17.025   1.894  0.2535  0.0832 -0.1918
 8783W        W25631  16.270   6.737  17.300  0.2875  0.0528  0.0515
 8784W        W25632  14.454   4.359   5.473  0.1904  0.0281  0.1781
 8785W        W25633  15.713   0.074  16.725  0.0715 -0.0917 -0.3305
 8786W        W25634   7.007   5.891  14.313  0.0975  0.2429 -0.1304
 8787W        W25635  11.344   3.296  16.573 -0.3682  0.0756  0.0450
 8788W        W25636   9.617  12.540   1.051 -0.1785 -0.0562  0.0502
 8789W        W25637   5.549   6.194  13.360  0.0188 -0.3787  0.1359
 8790W        W25638   0.836  12.073   0.007  0.0147 -0.0451  0.2647
 8791W        W25639  17.065  10.939  12.394  0.2425 -0.0041  0.0458
 8792W        W25640   0.348   2.423   1.651 -0.3902 -0.0827  0.0593
 8793W        W25641   6.770   0.640  12.884  0.1892  0.0123 -0.0632
 8794W        W25642   1.383  12.975  15.112  0.0598  0.2114  0.1856
 8795W        W25643   9.704   6.188  12.517 -0.0698 -0.1418  0.0461
 8796W        W25644   4.856  15.696  12.344 -0.1078  0.3692  0.2328
 8797W        W25645   4.369  10.111  14.876  0.1543 -0.0286 -0.0555
 8798W        W25646  13.642  14.187   2.341  0.1611 -0.0654 -0.0899
 8799W        W25647   9.410   7.496  12.651 -0.0196 -0.2627 -0.1582
 8800W        W25648   4.965   1.672   1.603 -0.0181  0.2704 -0.1883
 8801W        W25649   6.577   7.413  17.660  0.1220 -0.0507 -0.0697
 8802W        W25650   1.614  10.237  15.446 -0.1705 -0.0593  0.2850
 8803W        W25651   6.821  16.523  15.418 -0.3184  0.0955  0.1979
 8804W        W25652   2.235   2.407  13.004 -0.1294 -0.0877 -0.1574
 8805W        W25653  11.044  16.208  12.187  0.1152 -0.2999  0.1359
 8806W        W25654  14.888   3.262   4.575  0.1089 -0.1811  0.0541
 8807W        W25655   5.781  11.732   2.635 -0.0853 -0.1582  0.0672
 8808W        W25656   2.989   7.734  17.210  0.2496  0.0986  0.1278
 8809W        W25657  12.487   4.658  13.424 -0.0661  0.1745 -0.2932
 8810W        W25658  16.992  12.311   5.428  0.0169 -0.2673 -0.0420
 8811W        W25659   0.905   3.341  16.412  0.5076  0.2704 -0.0986
 8812W        W25660   9.165   7.773   2.796  0.2235 -0.2131  0.0821
 8813W        W25661   9.164   6.143  14.873  0.0950  0.1475 -0.3279
 8814W        W25662  13.147  17.065   2.785  0.1713  0.2944  0.2799
 8815W        W25663   2.780   3.326   4.688  0.2383 -0.0478  0.1600
 8816W        W25664   5.510   7.478   2.380 -0.0843 -0.2300  0.2650
 8817W        W25665   2.588   7.425  16.418 -0.2114  0.2486 -0.2116
 8818W        W25666   3.577   1.042  13.622  0.1328  0.3847  0.1727
 8819W        W25667   8.613   1.000   0.899 -0.1835 -0.2149 -0.0751
 8820W        W25668   1.243   0.072   4.668 -0.1606 -0.1118 -0.0991
 8821W        W25669  12.769   5.065  15.134  0.1333  0.0352  0.1583
 8822W        W25670  15.824   7.815  15.761  0.4062  0.1519 -0.0497
 8823W        W25671   9.790  15.399   5.364  0.1139 -0.0126  0.1013
 8824W        W25672  11.929   9.699   3.655 -0.3999  0.2277  0.0650
 8825W        W25673   5.784  11.305  13.941  0.0153 -0.2489 -0.2783
 8826W        W25674   3.742  15.213  13.829 -0.0406  0.1592  0.4183
 8827W        W25675   6.110   9.550   0.623 -0.1335 -0.0738  0.1132
 8828W        W25676   4.902   9.484   6.302 -0.1690 -0.0085 -0.0360
 8829W        W25677   7.595  12.117   6.818 -0.1055  0.0971 -0.0793
 8830W        W25678   7.911   2.571  14.496 -0.1059 -0.2846  0.0397
 8831W        W25679   5.835  13.822   5.577  0.0428 -0.1468  0.4725
 8832W        W25680   7.838  12.211   1.684  0.1820  0.2117  0.4780
 8833W        W25681  13.136  10.142  15.412  0.3550  0.1244 -0.0392
 8834W        W25682  14.770   6.107  12.817  0.1565  0.0079 -0.0963
 8835W        W25683  14.593   1.582  13.639  0.1101  0.0306 -0.0515
 8836W        W25684  15.129  16.268  17.040  0.0331 -0.0455  0.1398
 8837W        W25685   5.050  12.089   0.604  0.2179 -0.3000  0.1389
 8838W        W25686  15.039  13.111   3.734  0.0991  0.0285  0.3185
 8839W        W25687  11.040  14.318   0.882 -0.1599 -0.2434 -0.0450
 8840W        W25688  16.314  16.472  11.670 -0.1432 -0.3364 -0.0687
 8841W        W25689   3.288  14.837  11.672 -0.1794  0.2929  0.2381
 8842W        W25690   3.705   9.271  14.518  0.1310  0.1793  0.0958
 8843W        W25691   2.083   4.971  12.708 -0.1409 -0.2801 -0.2470
 8844W        W25692   0.555  11.980  16.767  0.1045  0.2776 -0.3445
 8845W        W25693  13.486  14.819   4.910  0.0158  0.0051 -0.0936
 8846W        W25694  12.206   0.145  14.729 -0.0068  0.0847 -0.0501
 8847W        W25695   0.191   8.557   0.869  0.0549  0.1295 -0.1160
 8848W        W25696   3.653  14.514  17.222 -0.3965 -0.0813  0.1344
 8849W        W25697   2.144   5.905  12.879 -0.2259  0.1134 -0.1555
 8850W        W25698   6.818   2.950   3.439  0.0675  0.1216 -0.3176
 8851W        W25699   1.693   6.607   0.664 -0.3201 -0.0107  0.1735
 8852W        W25700   2.411  12.621  15.113  0.1070  0.0028 -0.0391
 8853W        W25701  12.225  12.611  12.970  0.0934  0.0637 -0.0518
 8854W        W25702  10.369  13.750  16.785  0.0961 -0.0908  0.0792
 8855W        W25703   3.063   7.444  16.264 -0.2336 -0.2274 -0.0016
 8856W        W25704   1.539  11.356  16.057 -0.2908  0.0897 -0.1290
 8857W        W25705   2.340  15.843  15.897  0.1567  0.0745 -0.0293
 8858W        W25706   4.621  11.761  14.488  0.1602  0.1197  0.0372
 8859W        W25707   6.480  14.024   3.155 -0.0788  0.1983 -0.0142
 8860W        W25708   9.670  14.609   2.007 -0.0679  0.0361  0.0942
 8861W        W25709   0.053   9.788  15.274  0.0019 -0.1072 -0.1810
 8862W        W25710   3.559   4.832  13.687  0.1922  0.2048  0.0342
 8863W        W25711  14.199  12.458  13.608  0.0575 -0.0160 -0.0830
 8864W        W25712   4.542  12.227   3.091  0.0394  0.0337  0.0560
 8865W        W25713   9.505  13.686   3.027  0.0107 -0.1628 -0.1066
 8866W        W25714   0.819  11.554   1.378  0.1492 -0.0373 -0.0436
 8867W        W25715   3.556   9.949   1.130  0.0153  0.1132 -0.1090
 8868W        W25716   8.083   6.955  13.188  0.0434 -0.0953  0.0394
 8869W        W25717  15.841   8.777   4.906  0.2788 -0.2553 -0.1138
 8870W        W25718  14.876  16.371  13.286  0.1200  0.2337 -0.0304
 8871W        W25719  16.232   0.310  14.088  0.1534  0.2822 -0.1786
 8872W        W25720  11.350   2.190   2.213  0.0542 -0.4202  0.0382
 8873W        W25721   1.852   7.440   5.434 -0.1023  0.1513 -0.0233
 8874W        W25722  11.145   7.913  15.210 -0.2962  0.1481  0.0440
 8875W        W25723   5.194   2.097   2.223 -0.2607 -0.0309 -0.0244
 8876W        W25724   6.049  14.583  15.060 -0.3276  0.0971 -0.1274
 8877W        W25725   3.711   8.739   0.247  0.2901  0.1932 -0.0218
 8878W        W25726   0.881  15.397  16.225  0.0398 -0.0469  0.0013
 8879W        W25727   3.684  12.313  13.857 -0.2523 -0.0262  0.1167
 8880W        W25728  13.828  10.402   0.398 -0.1317  0.1137  0.0939
 8881W        W25729   6.062   2.805   0.298  0.2684  0.0640 -0.0241
 8882W        W25730   5.767  15.904  17.422 -0.1608  0.0472  0.1396
 8883W        W25731   7.921  16.017  16.416  0.1083 -0.2282  0.1464
 8884W        W25732   0.223   6.596  15.502 -0.0705 -0.2557  0.0988
 8885W        W25733   3.470  12.056  14.245 -0.2089  0.2094 -0.3379
 8886W        W25734  11.205   6.701  14.411 -0.0991  0.2460 -0.0483
 8887W        W25735  10.319   8.506   4.644  0.2982 -0.1405 -0.2578
 8888W        W25736  16.998  13.862   5.229  0.1706  0.0321  0.0603
 8889W        W25737  10.219  16.257   6.467  0.0675  0.1058  0.1336
 8890W        W25738   4.516  12.198   1.247  0.0727 -0.0901 -0.0978
 8891W        W25739  12.216  15.733   1.593  0.1436 -0.0056 -0.2962
 8892W        W25740  14.439  15.273  17.816 -0.0759  0.2629 -0.2631
 8893W        W25741   6.760   1.121   2.827  0.0293  0.0310 -0.1552
 8894W        W25742   8.825   6.105  13.406  0.1019 -0.0850  0.0065
 8895W        W25743   2.171  12.056  14.414 -0.0695 -0.0932 -0.0725
 8896W        W25744   1.952   5.292   5.839  0.1750  0.1701  0.1103
 8897W        W25745   8.004   4.241  16.444 -0.0911  0.1780  0.0264
 8898W        W25746   8.859   8.379   1.884  0.0942 -0.2487 -0.0649
 8899W        W25747  16.963   2.252  15.307 -0.3237 -0.2026  0.0226
 8900W        W25748  12.701  16.825   0.482  0.2209 -0.0697  0.0787
 8901W        W25749   2.900   9.129   2.944 -0.1710 -0.0491  0.4348
 8902W        W25750   1.608  11.173  15.165 -0.1778  0.0850 -0.0692
 8903W        W25751  13.591  16.385  13.468 -0.1196 -0.1019  0.1794
 8904W        W25752  11.273  14.163   3.018  0.0386 -0.1826 -0.3099
 8905W        W25753   2.143   4.926   2.237  0.2065 -0.3684 -0.3095
 8906W        W25754   1.272  12.171   1.199 -0.1809 -0.0048 -0.3528
 8907W        W25755   3.440  15.796   2.492 -0.0439 -0.2566 -0.2570
 8908W        W25756   6.607  11.268   1.124  0.1656 -0.0502  0.2606
 8909W        W25757   1.817  11.443  12.820 -0.1351  0.3247  0.1920
 8910W        W25758   5.516   2.588  17.596  0.2161 -0.2298 -0.0638
 8911W        W25759  15.889   2.078  14.329 -0.1315 -0.0494 -0.2575
 8912W        W25760   4.009   1.535  16.974  0.0927 -0.3616 -0.0444
 8913W        W25761  15.249   8.984   1.441  0.3444 -0.2382 -0.2255
 8914W        W25762  13.753   5.850   0.817  0.0202 -0.0233 -0.1718
 8915W        W25763   9.418   9.921  13.138  0.0724 -0.0009 -0.1147
 8916W        W25764   4.588  10.087  13.874  0.0198  0.1697  0.1346
 8917W        W25765   1.433  16.064   4.942  0.1397 -0.2712 -0.0338
 8918W        W25766   0.555  13.067  13.231  0.0671  0.1049  0.0916
 8919W        W25767  12.954   2.051  16.831  0.0741 -0.0588 -0.0417
 8920W        W25768   7.162   5.220  15.726  0.1119 -0.1286 -0.0228
 8921W        W25769  13.617  13.638  13.942  0.1399 -0.2062  0.2111
 8922W        W25770  13.407   7.550   0.214 -0.1148  0.1282  0.0753
 8923W        W25771  10.301  12.976  16.046 -0.0707  0.2645  0.1098
 8924W        W25772  12.169  13.362   2.976 -0.0625  0.2608  0.3709
 8925W        W25773   3.058   7.871  12.616  0.0081  0.0478  0.1007
 8926W        W25774  10.713  15.310   2.441 -0.1067 -0.2681 -0.0231
 8927W        W25775   1.634   2.781   1.925 -0.0689 -0.1671 -0.1136
 8928W        W25776   5.946   1.312   2.228 -0.1666 -0.0825 -0.0356
 8929W        W25777  13.891  11.879   1.916  0.1327 -0.0138  0.0104
 8930W        W25778   6.137   1.548  11.945 -0.1712 -0.0421 -0.0665
 8931W        W25779   2.461   9.822   0.482 -0.0769 -0.0233 -0.1679
 8932W        W25780  11.327   1.190   5.083 -0.1712 -0.0571 -0.1573
 8933W        W25781  13.169  10.616   5.069  0.0301  0.0140 -0.1840
 8934W        W25782  12.993   7.508   0.545 -0.1413  0.1515 -0.0735
 8935W        W25783   2.908  14.591   4.548 -0.0866  0.1859  0.2469
 8936W        W25784   5.039   7.758  13.517  0.0035  0.2367  0.2523
 8937W        W25785   3.726   8.503  13.024  0.0748 -0.2875  0.2521
 8938W        W25786  15.084  14.223  11.359 -0.0336  0.2964  0.3026
 8939W        W25787   7.597   8.770  12.674  0.0361  0.1870 -0.1819
 8940W        W25788   7.232   0.393  15.524  0.0972 -0.0525 -0.6212
 8941W        W25789  15.777   5.428   5.518 -0.2635 -0.1397 -0.0026
 8942W        W25790  12.912   7.621   3.057 -0.0298 -0.1664  0.1016
 8943W        W25791   6.160  15.785  15.731 -0.3547 -0.1416 -0.3734
 8944W        W25792   4.039   3.405  12.641  0.1986 -0.1265  0.2727
 8945W        W25793   3.585   5.702   6.481  0.2844  0.1451 -0.2259
 8946W        W25794   2.491   9.637  14.841  0.1735  0.1885  0.0258
 8947W        W25795   9.483  10.241   1.624 -0.1650  0.1284  0.0860
 8948W        W25796   5.307  14.645  13.450 -0.0158  0.0528  0.0312
 8949W        W25797   2.327   0.942   2.737  0.0072  0.1103  0.0865
 8950W        W25798   7.362   8.308  17.190 -0.3091 -0.0483  0.3877
 8951W        W25799   8.435   5.853  14.287  0.0404  0.2599 -0.0097
 8952W        W25800   3.809   4.649   5.649 -0.0558 -0.0021 -0.0372
 8953W        W25801  11.121  14.550  15.477  0.0064  0.1712 -0.1847
 8954W        W25802  13.322   7.317   5.012  0.1488 -0.0920  0.2058
 8955W        W25803  11.687   5.461   1.163 -0.2523 -0.1756  0.1367
 8956W        W25804   5.025  14.922   5.740  0.1260  0.0543 -0.0715
 8957W        W25805  13.414   9.759  15.248  0.0647  0.1750  0.2346
 8958W        W25806  15.760   6.531  16.639 -0.3272 -0.2643  0.0275
 8959W        W25807  12.734  12.605  12.074  0.1038 -0.4440  0.0027
 8960W        W25808   3.451   6.835   2.004 -0.4563 -0.3745  0.0402
 8961W        W25809  10.862  16.981  14.517  0.1322  0.1281  0.0277
 8962W        W25810  14.817   8.225   3.435  0.3426 -0.1517 -0.0575
 8963W        W25811  16.127   2.626  15.059  0.0094  0.3474 -0.0149
 8964W        W25812  11.096   2.619   4.679 -0.0901 -0.0106 -0.2022
 8965W        W25813   8.375  15.297  12.711  0.0264  0.0146  0.3478
 8966W        W25814   4.559   3.486  14.816 -0.1470 -0.0785  0.0215
 8967W        W25815   9.237  16.823  13.987 -0.3426 -0.1676  0.0756
 8968W        W25816   5.541   7.960   1.067  0.1655 -0.0956  0.0687
 8969W        W25817   1.889  10.269  13.536  0.2517 -0.2299  0.1450
 8970W        W25818  11.673   4.042   1.547 -0.2659 -0.1741 -0.0296
 8971W        W25819   1.247  12.330  12.242  0.0385  0.2149 -0.1644
 8972W        W25820  11.312  14.008   2.527  0.0838  0.0307 -0.1077
 8973W        W25821   4.465  15.647   2.141  0.1479  0.3458 -0.0391
 8974W        W25822   1.181   8.963   5.329 -0.3479 -0.3091 -0.0323
 8975W        W25823   0.651   4.607   1.815  0.0798 -0.0043 -0.0196
 8976W        W25824  10.708   6.523   5.798 -0.2148 -0.2591 -0.1734
 8977W        W25825  10.305   9.956   3.919 -0.1815  0.1931 -0.1252
 8978W        W25826  12.855  15.163   1.641  0.1158  0.0815 -0.1951
 8979W        W25827  15.749   3.040  17.491  0.1693  0.2437 -0.0877
 8980W        W25828   4.643   4.577   4.798  0.1738 -0.2611  0.1360
 8981W        W25829   6.343  14.125  14.852  0.2575 -0.1744  0.0120
 8982W        W25830   0.367  14.301   4.494 -0.1827 -0.0888 -0.1908
 8983W        W25831   3.178  10.711   1.239 -0.2210  0.3760 -0.3026
 8984W        W25832   1.776   6.722   5.051  0.1236 -0.2596 -0.2613
 8985W        W25833   2.146   6.702   2.699  0.2195  0.0082 -0.0344
 8986W        W25834   9.978   6.243   1.284  0.0823  0.2861  0.1936
 8987W        W25835   8.291  16.519   6.361 -0.3836 -0.0228 -0.0720
 8988W        W25836   9.256   4.544   4.028 -0.1641  0.2740  0.2143
 8989W        W25837   7.478  12.557   0.377 -0.1059  0.0398  0.2078
 8990W        W25838  11.961  11.413   2.425 -0.0539 -0.0634  0.0556
 8991W        W25839  10.445   1.151  15.432  0.2622  0.1734 -0.1166
 8992W        W25840  15.221   3.383  13.431 -0.0770  0.0470  0.1752
 8993W        W25841   7.771   7.071  14.132 -0.2419  0.1375  0.3259
 8994W        W25842   6.837   1.386  11.161  0.2483 -0.2229  0.1252
 8995W        W25843   7.883   8.090   2.304  0.0943  0.1425 -0.0964
 8996W        W25844  15.895  14.944   5.195  0.1123 -0.1130  0.2108
 8997W        W25845   9.562  13.296   1.285 -0.1110 -0.0568  0.0927
 8998W        W25846   9.611  12.466  14.544 -0.0741 -0.0357  0.0258
 8999W        W25847   2.962  14.416   0.426 -0.1225  0.0055 -0.2633
 9000W        W25848   8.106   8.349  13.861 -0.0401  0.1254  0.0165
 9001W        W25849  13.113  16.573   2.767 -0.0627 -0.0284 -0.1816
 9002W        W25850   8.537  12.064  15.422 -0.0737 -0.2532  0.1247
 9003W        W25851   2.881   3.183  16.784  0.1974 -0.1096  0.1714
 9004W        W25852  16.157  15.240  14.991 -0.2224  0.3444  0.0463
 9005W        W25853   7.828  15.183   4.784  0.2317 -0.0749 -0.1819
 9006W        W25854   1.369   4.393   4.467  0.2304  0.2637 -0.2115
 9007W        W25855  15.966  16.378   6.203  0.1818 -0.3213  0.3517
 9008W        W25856  13.200   8.445  17.518  0.1655  0.1749 -0.1103
 9009W        W25857   7.337   0.122  13.780 -0.3431 -0.2493  0.1106
 9010W        W25858   7.918   9.456   1.786  0.1727  0.2255 -0.1398
 9011W        W25859   3.334   4.736   2.866  0.0685  0.0503 -0.1432
 9012W        W25860  11.920   7.658   5.408 -0.0087 -0.2060  0.3127
 9013W        W25861   7.930   8.204   0.871 -0.1679  0.1112  0.0249
 9014W        W25862  11.443   2.456  17.828  0.3777  0.0122  0.0285
 9015W        W25863   3.356   8.175   3.981 -0.1114 -0.2872 -0.1372
 9016W        W25864  13.725   0.990  16.793  0.1650  0.0178  0.1068
 9017W        W25865   6.154   7.666   3.055  0.1147  0.1394 -0.1757
 9018W        W25866   2.813  11.264   4.818 -0.3538  0.0543 -0.1241
 9019W        W25867  13.581   0.352   0.165  0.0985 -0.1342  0.0171
 9020W        W25868  11.214   9.496  16.052  0.2244  0.1481 -0.1887
 9021W        W25869  12.376  15.569   0.626  0.1163  0.2597  0.1353
 9022W        W25870   7.914  13.289   1.543 -0.1790  0.0048  0.2131
 9023W        W25871  11.301   8.519  12.637 -0.0558  0.0821 -0.1926
 9024W        W25872  11.866   1.435   0.948  0.0986 -0.4132  0.1721
 9025W        W25873  16.620   5.175  13.704  0.0527  0.4139 -0.0676
 9026W        W25874  16.017  12.495   4.325  0.0594  0.2425  0.0229
 9027W        W25875  10.118   9.196  13.454 -0.0944  0.1259  0.1282
 9028W        W25876  13.400  13.537   0.013  0.0686 -0.0606 -0.0401
 9029W        W25877   4.862   0.694   1.124  0.1712  0.0526 -0.1695
 9030W        W25878   8.139   5.712  17.641 -0.1848  0.1285 -0.0768
 9031W        W25879   3.541   0.551  15.949 -0.1377 -0.0978  0.0303
 9032W        W25880   6.691  15.870   5.651 -0.0435 -0.0759 -0.0086
 9033W        W25881  13.795  13.688   5.079  0.0242  0.0308  0.1770
 9034W        W25882   4.714  16.169  12.360  0.0385 -0.0573  0.1680
 9035W        W25883  15.614  10.185   4.276 -0.2610 -0.0430 -0.2205
 9036W        W25884  12.115  16.195  13.123  0.0127 -0.0079 -0.1507
 9037W        W25885  14.777  14.154  14.643 -0.0888 -0.0332 -0.2134
 9038W        W25886  15.570   1.215   4.705  0.0985  0.0528 -0.0823
 9039W        W25887   4.117  10.049  13.117  0.1422 -0.0631 -0.1195
 9040W        W25888   2.804   4.392   5.506  0.0919 -0.2449  0.1439
 9041W        W25889   9.712   2.543   3.859 -0.1051 -0.0472 -0.0266
 9042W        W25890   8.461   6.543   5.427  0.0835 -0.0646  0.1693
 9043W        W25891   6.964   5.833  12.126 -0.1814 -0.2236 -0.0874
 9044W        W25892   5.803  13.191   3.127  0.1758 -0.0944  0.0975
 9045W        W25893   1.141   6.784  12.655  0.4229 -0.3280 -0.0383
 9046W        W25894  10.059   0.250   4.427  0.3101  0.2352  0.2338
 9047W        W25895   3.921   6.703  16.870  0.1107  0.3572  0.0286
 9048W        W25896   3.784  13.976  13.337 -0.0909  0.0565  0.0889
 9049W        W25897   8.049   3.371   3.184  0.4075 -0.1330  0.2070
 9050W        W25898  10.265   7.536  17.119  0.1081  0.1866  0.0775
 9051W        W25899   9.783  14.393  17.830 -0.1334 -0.0255 -0.0632
 9052W        W25900  12.609  10.155  15.487  0.0854  0.0737 -0.0840
 9053W        W25901   0.537  13.736  12.812  0.0808 -0.2847  0.2259
 9054W        W25902  14.066   2.199   1.436  0.0771  0.1836  0.0628
 9055W        W25903  13.934   0.047  17.041 -0.2755  0.0449  0.1061
 9056W        W25904   2.762   7.056   0.852  0.2199 -0.1751  0.1786
 9057W        W25905   7.884  15.021  15.798  0.0161 -0.0813 -0.1742
 9058W        W25906  12.737  11.776  12.704  0.1649 -0.2882  0.3365
 9059W        W25907   3.524   4.222   4.743 -0.0628 -0.1987  0.1767
 9060W        W25908   7.540   3.560  12.366 -0.1228 -0.2433  0.1229
 9061W        W25909   4.023  16.296   1.420  0.2571  0.2491 -0.0168
 9062W        W25910  10.893  13.850  13.352 -0.4257  0.2885 -0.1029
 9063W        W25911   8.961  14.620   0.637  0.0071 -0.0227 -0.1279
 9064W        W25912  16.814  13.540   0.711  0.0270  0.1807  0.1069
 9065W        W25913   3.679  13.363  17.473 -0.2748 -0.2681  0.1980
 9066W        W25914   4.982  14.903  17.048  0.3444  0.0696  0.0774
 9067W        W25915  12.310   5.255   0.361 -0.1480  0.1735 -0.1349
 9068W        W25916  12.756   7.875   5.456 -0.2174 -0.1372  0.2614
 9069W        W25917   1.631  10.476   5.301 -0.1363 -0.1952  0.1425
 9070W        W25918   8.431  15.179   2.906  0.0766  0.0134  0.2339
 9071W        W25919  11.486  11.798  11.866  0.0940  0.1464  0.0931
 9072W        W25920  15.195  15.646  13.726  0.0083 -0.1802 -0.0056
 9073W        W25921  13.017   8.929  13.011 -0.1366 -0.3102 -0.0395
 9074W        W25922  10.507  12.537  16.092  0.1419 -0.1123 -0.2513
 9075W        W25923  11.267   8.713  14.888 -0.1626 -0.2379  0.0457
 9076W        W25924   6.050   0.334  11.849  0.2622  0.0084 -0.1427
 9077W        W25925  13.525   7.633  16.426 -0.1224  0.2950 -0.0370
 9078W        W25926   4.101  10.384  12.742 -0.4267 -0.0894  0.0679
 9079W        W25927   4.784   7.450   0.802 -0.1734  0.0521 -0.0436
 9080W        W25928   5.387   5.195  14.728  0.1049 -0.0457 -0.3175
 9081W        W25929   3.517  13.564   1.667 -0.0375 -0.0547 -0.0323
 9082W        W25930   2.368  13.662  14.941  0.3728  0.0083 -0.0551
 9083W        W25931  14.211   0.431   1.941 -0.1226 -0.3445  0.0033
 9084W        W25932  10.049   6.544  16.234  0.1173  0.1356  0.1951
 9085W        W25933   4.001   5.460   0.079  0.1702  0.0194 -0.0117
 9086W        W25934   6.933  12.179   0.555  0.4552 -0.0157  0.0264
 9087W        W25935   4.088  13.428   3.903 -0.0448  0.1584  0.0378
 9088W        W25936   0.935   3.949  14.374  0.2727  0.1404  0.0677
 9089W        W25937   0.484   0.085  17.495  0.0760  0.1106  0.1429
 9090W        W25938  11.416   1.767  15.381 -0.1605  0.1568  0.0509
 9091W        W25939   2.173   2.900   1.108 -0.0473 -0.0702 -0.3365
 9092W        W25940   9.583   8.725   4.783 -0.3150  0.1009 -0.1589
 9093W        W25941  16.958   3.801  17.526 -0.0011  0.2550 -0.0766
 9094W        W25942  11.121   9.201   2.098 -0.1254  0.1287  0.1801
 9095W        W25943  16.443  16.895   1.278  0.0590  0.0000 -0.0412
 9096W        W25944   2.193   0.345   1.310  0.1340  0.1358  0.0757
 9097W        W25945   9.438   1.969  16.645 -0.2124  0.1117 -0.0719
 9098W        W25946   7.191   3.234  12.314 -0.1732 -0.0011 -0.1362
 9099W        W25947  16.541   7.608   1.662 -0.0295  0.1952 -0.3562
 9100W        W25948  10.397   7.107   1.336 -0.0305 -0.2180 -0.0863
 9101W        W25949  16.212   2.082  13.444  0.1979 -0.2993  0.3068
 9102W        W25950  11.216   4.393   5.257 -0.0203 -0.2056 -0.3687
 9103W        W25951   8.657   1.206  12.576  0.0030  0.0748  0.0919
 9104W        W25952   7.611   5.530  17.415  0.0737  0.1457 -0.0572
 9105W        W25953   3.706   5.028   5.290 -0.0032  0.2391  0.3684
 9106W        W25954   3.631  14.243   4.261  0.0254  0.0780  0.0477
 9107W        W25955  10.031  13.348   4.904 -0.1021 -0.2213  0.2257
 9108W        W25956  16.411  17.065   1.825  0.0605  0.1357 -0.1867
 9109W        W25957   0.671   3.532  17.009 -0.2486 -0.1769 -0.0753
 9110W        W25958   6.218   0.804   2.245 -0.1594 -0.2658  0.0307
 9111W        W25959  11.678   3.592   1.837 -0.1071  0.0874  0.1609
 9112W        W25960  11.268  11.373   1.540  0.0162  0.0170  0.1086
 9113W        W25961  10.814  12.179   5.048  0.3812 -0.0183 -0.2897
 9114W        W25962   9.517  15.506  17.355  0.1204  0.1092 -0.0565
 9115W        W25963   8.345   3.243   2.750  0.2224 -0.1421 -0.3170
 9116W        W25964  14.121   6.093  17.731  0.0076 -0.1379  0.0994
 9117W        W25965  14.771   6.328   5.223 -0.0459  0.0606  0.0121
 9118W        W25966  10.424   8.150   3.683  0.0055  0.0573  0.3729
 9119W        W25967  11.813  10.263   3.556 -0.1951  0.1981 -0.0541
 9120W        W25968  10.303   4.923   3.274 -0.4945 -0.0478  0.2367
 9121W        W25969   7.567  12.374   1.293 -0.0765 -0.0628 -0.1458
 9122W        W25970   7.070   0.029   1.087  0.2434  0.4932 -0.2200
 9123W        W25971   7.827   2.519   3.185 -0.0261  0.1765 -0.1843
 9124W        W25972   4.882   4.098  17.190  0.2806  0.1812 -0.2278
 9125W        W25973   2.705   8.738   2.706 -0.2683  0.1659  0.1729
 9126W        W25974  10.393   9.187  17.034  0.1905  0.3745 -0.0142
 9127W        W25975  10.616   4.103  15.338 -0.3319 -0.0553  0.3931
 9128W        W25976   5.394  13.132  16.692 -0.3475 -0.1595 -0.4271
 9129W        W25977   6.520  11.579   1.643 -0.2541 -0.1173  0.1759
 9130W        W25978  16.354   5.615   1.881  0.0077 -0.1808 -0.1395
 9131W        W25979   9.324   1.940   1.684  0.3055  0.0117  0.0536
 9132W        W25980   1.169  15.945   3.222  0.2291 -0.3526 -0.0907
 9133W        W25981   8.449   3.066  15.045  0.3649 -0.0467  0.0535
 9134W        W25982  13.008   7.964  13.638  0.1743  0.0001 -0.1486
 9135W        W25983   9.751   7.754  16.839 -0.0058  0.0112  0.0741
 9136W        W25984  12.777   5.615  14.091  0.2934  0.2835  0.0100
 9137W        W25985   6.780   1.695  17.621  0.1682  0.1056 -0.0221
 9138W        W25986   8.985   2.127  15.436  0.3429  0.2265  0.0602
 9139W        W25987  13.907  12.968  11.629 -0.0520  0.1003 -0.2132
 9140W        W25988   0.707   3.800  16.529 -0.0447  0.0236 -0.1118
 9141W        W25989   4.871  15.926   2.766 -0.0771  0.1883  0.2977
 9142W        W25990  15.206  15.851   4.038 -0.0802 -0.3622 -0.1658
 9143W        W25991   2.767   0.958   5.638 -0.0997 -0.0635  0.0628
 9144W        W25992   0.678   5.133   2.628 -0.1877 -0.1878  0.5004
 9145W        W25993   8.200   5.938   3.725  0.1883  0.2804 -0.1046
 9146W        W25994   4.494  10.319   4.668  0.0947 -0.3756 -0.1005
 9147W        W25995  15.072   9.071  13.975  0.2728 -0.0408 -0.1258
 9148W        W25996  12.371   1.345   1.991 -0.0581 -0.1045  0.0438
 9149W        W25997   1.891   0.291   0.411 -0.0057  0.3624 -0.0254
 9150W        W25998   5.134  10.673   6.029  0.0209  0.4255 -0.0289
 9151W        W25999  12.974   1.613   4.257  0.1674  0.1374 -0.1381
 9152W        W26000  14.871   9.510   3.477 -0.1631 -0.3174  0.2477
 9153W        W26001   9.708  12.533   4.464 -0.1349 -0.0657 -0.0127
 9154W        W26002  15.623  16.877  13.301 -0.1593 -0.0497 -0.1117
 9155W        W26003  16.109  10.807   4.729 -0.2120 -0.2098  0.0993
 9156W        W26004   1.548   5.165   3.391  0.0024 -0.1614  0.0907
 9157W        W26005   4.517   5.733  14.088 -0.0821 -0.0599  0.3767
 9158W        W26006  16.719   1.811   0.124 -0.0937  0.2349  0.1382
 9159W        W26007   4.615   2.124   5.973 -0.1706  0.2714  0.2091
 9160W        W26008  16.732   6.348   1.430 -0.0189  0.0256  0.1850
 9161W        W26009   5.416   3.193   0.288  0.0811 -0.2692 -0.0329
 9162W        W26010   8.944  13.472   5.440 -0.0388  0.1391  0.1018
 9163W        W26011   6.042   3.667   5.716  0.2612 -0.1212  0.0947
 9164W        W26012  10.742   6.191   2.283 -0.3106 -0.0680 -0.1174
 9165W        W26013  15.707   8.915   3.370  0.3519  0.1465 -0.1396
 9166W        W26014   8.192   0.578  12.952  0.1424 -0.1877  0.0928
 9167W        W26015  14.035   2.944  14.870  0.2176 -0.0165  0.2236
 9168W        W26016  12.660  15.557   5.293  0.0913  0.0277 -0.0037
 9169W        W26017  13.955   4.245   0.621  0.2625 -0.3058 -0.4124
 9170W        W26018   8.763  10.382  16.071  0.0407  0.3392 -0.0954
 9171W        W26019  11.387  13.466  17.640 -0.0572  0.1224  0.0904
 9172W        W26020  12.993  14.374  12.553  0.0487  0.1111 -0.1052
 9173W        W26021  16.731  15.448   4.662  0.0197  0.1811 -0.2000
 9174W        W26022   2.851   1.684  13.757  0.2268 -0.1892 -0.0508
 9175W        W26023   1.014   5.621  12.926 -0.0690 -0.2471  0.0809
 9176W        W26024   7.871   3.804  12.962  0.1633  0.0416 -0.3198
 9177W        W26025   3.878   9.295  14.953  0.0406 -0.2346  0.1067
 9178W        W26026  15.876   1.957   3.762 -0.2624 -0.0209  0.0809
 9179W        W26027   6.147   3.661   4.563  0.2267  0.0875 -0.3361
 9180W        W26028   6.279   2.077  13.719  0.0218 -0.0563  0.0316
 9181W        W26029  14.796   3.763   0.576  0.0896 -0.1457  0.0060
 9182W        W26030  13.049  16.524   0.123  0.2507  0.2139 -0.1181
 9183W        W26031   1.347  16.882   1.633  0.2635  0.1079  0.0725
 9184W        W26032  13.787  10.069   3.616  0.1210 -0.3366  0.1537
 9185W        W26033   2.816   1.438   1.988  0.3258  0.1538  0.0438
 9186W        W26034   1.444  14.905   1.626  0.0894 -0.0439  0.0520
 9187W        W26035  14.074   4.237   4.519 -0.1391 -0.2544 -0.1216
 9188W        W26036   3.697   1.786  16.207 -0.0149 -0.1986  0.3041
 9189W        W26037  10.386   4.134  14.869 -0.2798 -0.0652 -0.1328
 9190W        W26038   0.009   2.076  14.861 -0.0283 -0.2697 -0.1750
 9191W        W26039   0.539  12.820  14.258  0.2707 -0.4913  0.0568
 9192W        W26040   3.598   0.209   5.703  0.0309  0.0665  0.3299
 9193W        W26041   6.922  14.287   0.023 -0.0260 -0.0277 -0.0576
 9194W        W26042   6.037   4.431  12.212  0.0782  0.0988 -0.1680
 9195W        W26043   1.020  13.201   0.425 -0.0353 -0.1553  0.0198
 9196W        W26044   4.812   5.225  13.579  0.1962 -0.0918 -0.1668
 9197W        W26045  10.341  17.059  12.285  0.0021  0.0914  0.0806
 9198W        W26046  10.810  13.965   2.329  0.0262  0.2283 -0.2062
 9199W        W26047   6.646  13.074   3.309 -0.0102  0.2210 -0.1244
 9200W        W26048   2.884   0.863   1.818  0.0250  0.0275  0.0022
 9201W        W26049   5.353   3.383   5.217  0.4753 -0.0860  0.2412
 9202W        W26050   6.601  11.742   4.057  0.2587 -0.0657  0.4426
 9203W        W26051   4.968   2.069  11.654 -0.3075  0.2036  0.1046
 9204W        W26052  13.740   8.511  12.599  0.2226  0.0749  0.0132
 9205W        W26053   1.963  11.657  16.028  0.3383 -0.0398 -0.0920
 9206W        W26054  13.232   3.569  12.860 -0.2236  0.1106 -0.3576
 9207W        W26055   0.014   8.302  12.572  0.5074  0.0476 -0.0063
 9208W        W26056  15.332  10.841  13.893  0.2974  0.0350 -0.1943
 9209W        W26057   6.311   6.633  16.314  0.3243 -0.0766  0.1936
 9210W        W26058  14.214   2.847  17.450  0.0479  0.3658 -0.2710
 9211W        W26059   4.975  11.942   3.287  0.1226  0.2040 -0.0529
 9212W        W26060  14.296   4.933  12.365  0.1045  0.0754 -0.2030
 9213W        W26061   4.434  12.543   1.612 -0.0683 -0.0469 -0.1758
 9214W        W26062   8.850   9.639   0.346  0.1847  0.1023  0.1018
 9215W        W26063   3.972  14.931  12.926 -0.0895  0.1750  0.1239
 9216W        W26064   8.977   2.218   1.909  0.0380 -0.2352  0.0823
 9217W        W26065   9.760  14.483  13.834  0.1855  0.3306  0.1125
 9218W        W26066  13.994  11.367   3.811  0.1166  0.2156 -0.1398
 9219W        W26067  14.042  12.080   4.547 -0.3493 -0.1341  0.1750
 9220W        W26068  11.489  16.685   5.280 -0.0519 -0.1869  0.0735
 9221W        W26069   2.101   9.301   3.876  0.1778  0.1778  0.2119
 9222W        W26070   7.504  16.123   2.594 -0.1426 -0.2768 -0.0497
 9223W        W26071  16.716   5.884  15.443 -0.0633  0.2692 -0.0080
 9224W        W26072  16.659   5.927  14.906 -0.1140  0.1972 -0.3170
 9225W        W26073   7.640   6.548   4.434  0.2676 -0.2707 -0.1289
 9226W        W26074   5.196   0.757  14.716  0.1513  0.0523  0.0524
 9227W        W26075   2.539   4.228  15.884 -0.0548 -0.2928  0.1579
 9228W        W26076  10.614   7.651   3.892  0.1040 -0.2845  0.0784
 9229W        W26077   8.238   6.228  12.491 -0.1186 -0.0765  0.2944
 9230W        W26078  17.029   6.383   1.899 -0.0001 -0.0978  0.3050
 9231W        W26079  14.167  13.486  16.982 -0.0625 -0.0832  0.2065
 9232W        W26080   6.780   4.577   4.947  0.0390 -0.0183 -0.0816
 9233W        W26081  12.596   8.556  15.627 -0.0509 -0.0177  0.1414
 9234W        W26082   7.846   5.013  15.775  0.3203  0.0542 -0.0862
 9235W        W26083   1.275  16.544  12.866  0.1385 -0.0587  0.1671
 9236W        W26084   7.387  10.716  13.551 -0.1592 -0.0725  0.0982
 9237W        W26085  11.550   2.668   2.176  0.1280 -0.0099  0.0481
 9238W        W26086   5.854   1.056  15.545  0.0064 -0.1852 -0.0688
 9239W        W26087   8.265   8.489   2.007 -0.0927 -0.0581  0.0259
 9240W        W26088   2.178   4.941   3.039  0.2435 -0.1145  0.0407
 9241W        W26089   2.538   9.724  12.386  0.1398 -0.0370  0.1580
 9242W        W26090  15.581  16.707   5.039 -0.2062  0.0961 -0.0073
 9243W        W26091   6.272  15.212  15.597  0.0607  0.1773 -0.2568
 9244W        W26092   2.511  16.646  17.206  0.3100 -0.0423  0.0409
 9245W        W26093  13.715  13.171   2.215  0.1491 -0.0439  0.0628
 9246W        W26094  10.728   1.026   0.770  0.1472  0.0593 -0.0696
 9247W        W26095   8.595  12.666   5.547  0.0033  0.0530 -0.0357
 9248W        W26096   9.367   1.291   6.349 -0.0375  0.0993 -0.2844
 9249W        W26097   6.575  13.697   3.538  0.0062  0.3008 -0.3599
 9250W        W26098   9.336  15.177  13.912  0.2223 -0.1432 -0.0735
 9251W        W26099   6.454   1.961   1.620  0.0200  0.1992 -0.2316
 9252W        W26100   7.500   9.672   4.054 -0.0974 -0.1590  0.1785
 9253W        W26101  12.877   4.876   2.203  0.1665 -0.0762  0.0371
 9254W        W26102  16.721   7.247   3.485 -0.2005  0.2885 -0.0878
 9255W        W26103  13.410   0.655   4.599  0.0202 -0.0614 -0.0246
 9256W        W26104   4.185   9.621  16.126  0.2562  0.1862  0.0585
 9257W        W26105   7.592   2.026  14.967 -0.0679  0.1375  0.0357
 9258W        W26106   5.794   0.715   4.855 -0.1019  0.0461 -0.2018
 9259W        W26107  13.706   4.152  16.970  0.1548  0.2753 -0.1260
 9260W        W26108   7.552  10.622  16.547 -0.0267 -0.1861  0.3106
 9261W        W26109  10.403   6.863   1.805  0.1505  0.0065 -0.0772
 9262W        W26110  15.246  12.511   4.742  0.1082 -0.1644 -0.0100
 9263W        W26111  15.065  10.769   0.550 -0.1576  0.0588  0.1282
 9264W        W26112  14.394  12.563   2.289 -0.1205 -0.3457 -0.1498
 9265W        W26113  15.265   6.795   6.040  0.1544 -0.0852 -0.0645
 9266W        W26114  14.163   2.112  14.915 -0.0321 -0.1537  0.2041
 9267W        W26115   1.921   8.724  16.990 -0.1124 -0.1467 -0.1998
 9268W        W26116  11.065  10.217   2.498 -0.0134  0.3030 -0.1778
 9269W        W26117  10.120   2.639   0.249  0.0559 -0.1275  0.3135
 9270W        W26118   5.339   2.185  17.805 -0.1181 -0.0701 -0.1223
 9271W        W26119   9.343   9.548   0.025 -0.1546 -0.0420 -0.1856
 9272W        W26120   4.922  12.777  15.939  0.2808 -0.0868 -0.1211
 9273W        W26121   7.270   8.423   1.652  0.1418 -0.0156 -0.0847
 9274W        W26122   3.051   0.650  16.408  0.0593 -0.1035  0.2598
 9275W        W26123   0.589   7.294  14.294 -0.1027  0.1648 -0.2171
 9276W        W26124  12.955  11.834  14.563 -0.2999  0.1435 -0.2167
 9277W        W26125   8.950   2.230   0.239  0.1752 -0.1748  0.1080
 9278W        W26126   3.717  11.637  12.232 -0.1329  0.0923  0.0534
 9279W        W26127   4.885   4.050  16.136  0.1507  0.1675  0.0400
 9280W        W26128   1.094   6.644  15.492  0.0548  0.2869  0.0271
 9281W        W26129   2.662  12.567   2.349  0.1122  0.0866  0.0367
 9282W        W26130   0.052   5.265   4.481 -0.2091 -0.0968  0.1180
 9283W        W26131   2.915   2.581   5.425  0.1586 -0.0365 -0.2114
 9284W        W26132   5.871   7.016   5.357 -0.2519  0.0980  0.4325
 9285W        W26133   0.234  14.752  17.004  0.1866 -0.1589  0.0145
 9286W        W26134  16.151   2.910   0.534  0.1672 -0.0311  0.1716
 9287W        W26135   2.381  16.169  13.711  0.1599  0.2663 -0.1490
 9288W        W26136  13.299  11.300  13.833  0.1498 -0.0251 -0.0797
 9289W        W26137  16.205   9.872   5.607 -0.1137 -0.2074 -0.0147
 9290W        W26138   4.765  13.465   1.494  0.1563 -0.0540  0.0263
 9291W        W26139   9.000  11.666  16.187  0.2374  0.1833 -0.2036
 9292W        W26140  12.539  12.859   1.770 -0.1401 -0.1387  0.2609
 9293W        W26141  14.610   5.240   0.055  0.0907  0.1172  0.2546
 9294W        W26142  15.095   3.564  16.848  0.1808 -0.4300 -0.2730
 9295W        W26143  12.618   5.085  16.173  0.2451  0.0879  0.0498
 9296W        W26144   0.479   5.752  14.493 -0.2453 -0.2363  0.3831
 9297W        W26145  11.742  14.029   2.845  0.0405 -0.0871  0.0520
 9298W        W26146  15.074   7.923  17.513 -0.1673 -0.0702  0.0706
 9299W        W26147  10.016   4.799   4.238 -0.0761  0.2964 -0.1655
 9300W        W26148   4.299   2.470   0.254  0.0071  0.0325  0.1897
 9301W        W26149   6.090  14.876  12.595  0.1106  0.0099  0.0902
 9302W        W26150   5.147  10.545  14.652  0.0835 -0.0757 -0.1832
 9303W        W26151   7.671   3.887  16.315  0.1471 -0.1652  0.1138
 9304W        W26152  17.030  12.853   3.217 -0.1885 -0.3954  0.5623
 9305W        W26153  12.583  13.142  17.028  0.1446  0.3602 -0.0495
 9306W        W26154   8.308  12.220   5.174  0.0640  0.2128  0.0832
 9307W        W26155   3.699  16.841  12.019  0.0103  0.0005 -0.2153
 9308W        W26156  12.559  16.858   5.419  0.0495  0.2130  0.1036
 9309W        W26157   4.224   3.441  13.868 -0.0166 -0.0566 -0.0014
 9310W        W26158   8.404   8.029   3.854  0.1338 -0.1392  0.4905
 9311W        W26159   2.855  11.316  15.996 -0.0457 -0.2578  0.1782
 9312W        W26160  11.589   0.851  15.396  0.3513  0.0279 -0.2236
 9313W        W26161  12.098   2.604  13.186  0.1635 -0.1215 -0.1766
 9314W        W26162  13.400  15.290   4.554 -0.1987 -0.1449  0.1370
 9315W        W26163   4.114  10.468  14.011  0.0260 -0.2917  0.0851
 9316W        W26164   2.547   9.376  17.567 -0.0299  0.1461  0.1642
 9317W        W26165  17.019  15.072  12.772 -0.0735 -0.1960  0.3155
 9318W        W26166   0.422  12.909  13.760 -0.0744  0.1759  0.2150
 9319W        W26167   5.689   8.463  15.452 -0.0621  0.2985 -0.1429
 9320W        W26168  11.572  14.134   2.134  0.2507  0.1415  0.1547
 9321W        W26169  16.121   4.579  14.252  0.0159 -0.0911 -0.1919
 9322W        W26170  13.105  12.946  16.328 -0.0139 -0.1455 -0.1873
 9323W        W26171   4.285   8.269  13.431 -0.0674  0.0442 -0.0845
 9324W        W26172   0.027   7.343  17.733 -0.2010 -0.1181  0.1536
 9325W        W26173  16.002   3.829  15.392 -0.0427  0.1005  0.1086
 9326W        W26174   1.344  11.277  16.604  0.0532  0.2772 -0.0078
 9327W        W26175   9.106   3.796  13.030  0.2739 -0.2588  0.1358
 9328W        W26176   9.269  11.090   2.188 -0.2060 -0.1694 -0.3227
 9329W        W26177  12.154   0.973  15.355  0.2097 -0.0529  0.0251
 9330W        W26178   2.701  14.720   0.832 -0.1471 -0.1154  0.0271
 9331W        W26179   0.936   3.923   4.045  0.1210  0.0775 -0.1945
 9332W        W26180  13.676  15.234  14.297 -0.0075 -0.3307 -0.0173
 9333W        W26181   8.468   4.517  15.186 -0.1109  0.3614  0.1186
 9334W        W26182  10.254   6.851   4.103  0.1918 -0.0190  0.0922
 9335W        W26183  14.756   4.721  13.279  0.1701  0.0428 -0.2050
 9336W        W26184  15.469   6.374  14.190  0.0676 -0.1424 -0.4637
 9337W        W26185   3.817   3.547   5.297 -0.0467  0.0651  0.2685
 9338W        W26186  16.190   7.640  16.009  0.4015 -0.0655  0.0647
 9339W        W26187   4.218   0.482  13.972 -0.3878  0.0564  0.1985
 9340W        W26188   3.535   4.083   0.955  0.2007  0.1572  0.1270
 9341W        W26189  10.216   7.699   3.505 -0.2231 -0.1029  0.1511
 9342W        W26190   3.961   8.809   2.172  0.0117 -0.2884  0.0195
 9343W        W26191   4.633  15.881   3.603  0.0895 -0.1982 -0.1984
 9344W        W26192  15.641   3.796  15.725  0.0120 -0.0627  0.0928
 9345W        W26193  15.081   2.605   2.598  0.0005 -0.0428  0.4746
 9346W        W26194  16.355  12.396  14.444 -0.0251  0.2362 -0.1901
 9347W        W26195  12.713   9.599   4.737 -0.2812  0.2041 -0.2568
 9348W        W26196  15.341   2.183   1.559 -0.1573  0.0894  0.1121
 9349W        W26197  10.527   6.887  13.163  0.0270  0.0965 -0.1158
 9350W        W26198  13.139   9.140   3.516  0.0462  0.1670  0.1442
 9351W        W26199  15.307   3.017   0.410 -0.0292  0.0571  0.0643
 9352W        W26200   4.327   3.145  15.744 -0.0094 -0.1470  0.4021
 9353W        W26201  12.374   6.807   3.912 -0.0068 -0.2245 -0.0664
 9354W        W26202  12.561   6.344   4.933 -0.1248  0.2320  0.0321
 9355W        W26203   2.226   7.626  14.934  0.3343  0.2021  0.2225
 9356W        W26204   9.873  13.641  14.341 -0.0741  0.1470 -0.0696
 9357W        W26205  15.444   6.352  17.353  0.1309 -0.1374 -0.0967
 9358W        W26206  15.518  15.300   2.842 -0.0355  0.4179  0.1993
 9359W        W26207  15.966  15.201  14.466 -0.1779  0.0972 -0.3741
 9360W        W26208  16.309  13.435  14.891 -0.0687 -0.0196 -0.0848
 9361W        W26209   9.050  16.668   1.450 -0.0586 -0.0324  0.0313
 9362W        W26210  16.901   1.108   0.831  0.3186  0.0872  0.1600
 9363W        W26211   4.756   4.281  14.727 -0.0715  0.1229 -0.1639
 9364W        W26212   5.090  14.725  12.063  0.0361 -0.2712  0.0988
 9365W        W26213   6.750   1.771   0.752 -0.1082  0.2196 -0.1396
 9366W        W26214   9.902   7.493  16.374 -0.1406 -0.2706  0.0199
 9367W        W26215   8.452   5.646   5.500 -0.0711  0.0602 -0.1877
 9368W        W26216   2.549  11.678  14.200 -0.0140  0.0817 -0.2330
 9369W        W26217   0.850  10.366  14.996  0.4781 -0.3747 -0.1428
 9370W        W26218  12.186  12.488  14.965  0.1278  0.0967  0.3131
 9371W        W26219   9.345   9.304  15.758 -0.0602  0.1005  0.6045
 9372W        W26220   9.576   7.183   5.886 -0.2046  0.0589  0.1867
 9373W        W26221  15.241  14.295  14.418 -0.1279 -0.0001  0.0617
 9374W        W26222   6.194   7.786  11.916 -0.0158  0.0906  0.0730
 9375W        W26223  15.393  14.219  13.080  0.0290 -0.0363 -0.0530
 9376W        W26224  11.431   2.099  16.190  0.1916  0.0828  0.0266
 9377W        W26225   5.445   4.952   0.485  0.2739 -0.0234  0.0713
 9378W        W26226  15.422   6.771  12.752  0.1020 -0.2474  0.3305
 9379W        W26227  14.588   2.546   2.714 -0.1054  0.0631 -0.0112
 9380W        W26228   9.516   6.561  12.262 -0.2180  0.0294  0.1932
 9381W        W26229   0.536   8.841   2.068  0.2736 -0.0848 -0.3123
 9382W        W26230   9.099  13.403   4.103 -0.3592  0.0715 -0.0496
 9383W        W26231   0.681  11.864   2.767  0.5873  0.0176 -0.0313
 9384W        W26232   3.601  13.307  14.505  0.1660 -0.4080  0.2047
 9385W        W26233   1.811   4.444   0.575 -0.0494 -0.1230  0.1509
 9386W        W26234   9.421   1.586  17.494 -0.3546 -0.0362 -0.0730
 9387W        W26235   5.129   9.542   1.581 -0.1268 -0.0036  0.2122
 9388W        W26236   9.091  10.897  15.439  0.3704  0.1409 -0.0825
 9389W        W26237  13.691   2.581  16.371  0.3721 -0.3496  0.0919
 9390W        W26238  15.457  11.053  13.409  0.1523 -0.1412  0.0745
 9391W        W26239  10.906   9.920   0.744 -0.0604 -0.0140  0.0772
 9392W        W26240  10.659   2.952  16.682  0.4147  0.0919 -0.1229
 9393W        W26241  15.443  13.900   1.584  0.0107 -0.0975  0.0570
 9394W        W26242  11.657  11.803  17.356 -0.0962  0.2741  0.4174
 9395W        W26243   2.305   7.335   3.421  0.2852  0.0043  0.0230
 9396W        W26244   8.761  17.009  12.715 -0.0959  0.2291  0.0902
 9397W        W26245  16.153   7.249   1.093  0.1345 -0.0979 -0.3085
 9398W        W26246  15.979   5.389   2.338  0.0582 -0.2438  0.3160
 9399W        W26247  12.709   2.832  13.935  0.0796 -0.1187 -0.2927
 9400W        W26248   4.088   8.001   5.968 -0.1533 -0.1588  0.0863
 9401W        W26249   4.699  10.020   3.366  0.0728 -0.1697 -0.1102
 9402W        W26250   1.094   2.395  17.771  0.0414  0.0287  0.1653
 9403W        W26251   9.600   6.724   3.343  0.0468  0.0074 -0.0698
 9404W        W26252   0.528  14.646   3.942  0.0983 -0.3081  0.0502
 9405W        W26253   8.798   0.864  13.903  0.0993  0.1881  0.2331
 9406W        W26254   4.859  11.422  16.362 -0.1599  0.0706 -0.2271
 9407W        W26255  10.526  14.796   1.626 -0.0359 -0.1861 -0.0638
 9408W        W26256  14.223  12.971  13.670 -0.2532 -0.2549  0.0677
 9409W        W26257   7.260   0.884   1.609 -0.0623 -0.0333  0.1658
 9410W        W26258   2.953   7.814  15.367 -0.3070  0.2256 -0.1855
 9411W        W26259  14.202   9.227  17.800  0.1353  0.0753  0.0323
 9412W        W26260  10.883   0.506   4.463 -0.1321 -0.0772  0.1550
 9413W        W26261  15.173  10.557   3.637  0.5432 -0.1337 -0.0595
 9414W        W26262   6.914   9.669  16.521 -0.0903  0.1115 -0.4861
 9415W        W26263   7.553   0.877   2.481 -0.3017  0.1479  0.2583
 9416W        W26264   8.891   0.112   1.980  0.0079 -0.1022  0.0605
 9417W        W26265   6.223   6.185   5.916 -0.2295 -0.0141  0.1665
 9418W        W26266  12.417   8.429   1.868  0.0190  0.0788 -0.0607
 9419W        W26267  16.264   9.512  15.256  0.1372 -0.0317 -0.0514
 9420W        W26268   5.253   1.228  17.415  0.3121  0.4021  0.0187
 9421W        W26269   5.392   6.738   4.428 -0.1212 -0.1701 -0.0574
 9422W        W26270   9.117   1.967  17.711  0.2502  0.0943  0.1369
 9423W        W26271   6.537   8.561  16.688 -0.1314 -0.1095  0.0145
 9424W        W26272   1.509  10.899   0.587  0.2068  0.1435 -0.0033
 9425W        W26273   2.622  15.508  14.922 -0.2828 -0.3199 -0.4072
 9426W        W26274   6.586  16.298   2.126  0.2791  0.1096  0.4459
 9427W        W26275  11.343   7.147   4.563  0.1861 -0.1025  0.1560
 9428W        W26276   6.738  16.562  15.925  0.0120  0.1306  0.0559
 9429W        W26277  11.207   4.205   2.873 -0.2149 -0.0366  0.1685
 9430W        W26278   3.639   7.477   0.232  0.0218  0.2725 -0.2453
 9431W        W26279  16.643  14.248   0.210 -0.0697 -0.0017 -0.0160
 9432W        W26280   1.155   1.189   1.031 -0.1567 -0.3177 -0.0626
 9433W        W26281   2.730   6.147  16.223  0.0467 -0.1061 -0.1201
 9434W        W26282   6.117   4.915   1.861  0.0345  0.1779 -0.1606
 9435W        W26283   6.053  14.324   2.967 -0.0501  0.0620  0.0747
 9436W        W26284  14.381  10.107   4.936 -0.0972  0.1594  0.1808
 9437W        W26285  12.674   2.084  17.253 -0.0994 -0.0164  0.0764
 9438W        W26286  12.974   1.738  11.920 -0.0095 -0.0351  0.3688
 9439W        W26287   1.383  11.778   4.166  0.3001  0.2717  0.0822
 9440W        W26288   8.351   5.164  13.106  0.1333  0.1268 -0.0672
 9441W        W26289  16.371   1.204   3.649 -0.2147 -0.1501 -0.0521
 9442W        W26290  14.466   3.001   5.158 -0.0587  0.0187  0.0465
 9443W        W26291  10.941  14.558   3.709 -0.0579  0.2732  0.2711
 9444W        W26292   2.606   8.547  13.184 -0.3319 -0.2812  0.2333
 9445W        W26293  12.165   1.517   0.526 -0.0064 -0.1132  0.1460
 9446W        W26294   5.395   9.309   4.411  0.3007  0.0418  0.0101
 9447W        W26295  16.913   9.587   2.025 -0.0516 -0.1624 -0.1253
 9448W        W26296   8.280   7.218  14.070  0.0443  0.0811  0.1206
 9449W        W26297   9.003   1.689  15.598 -0.0131  0.0647  0.0117
 9450W        W26298  12.296   8.431  13.458 -0.0707 -0.0565 -0.1455
 9451W        W26299   6.415  10.340   2.681  0.1483  0.0856 -0.0748
 9452W        W26300  11.463  11.792   4.426  0.0584  0.0146  0.0231
 9453W        W26301   6.420  10.446   4.370  0.2226 -0.0033 -0.2100
 9454W        W26302  14.295   1.579   2.558  0.0921  0.0268  0.2092
 9455W        W26303   0.719   6.261   1.603  0.1091 -0.1265  0.0257
 9456W        W26304  12.797   1.473  13.814 -0.0263 -0.2449 -0.1104
 9457W        W26305  15.915   3.794   1.421  0.0257  0.0455  0.2864
 9458W        W26306  13.214   4.282  12.322 -0.1274 -0.0255 -0.3086
 9459W        W26307   7.416   1.469   2.424 -0.2390 -0.0301 -0.0679
 9460W        W26308   3.265  16.104  14.953  0.2089 -0.1458 -0.1752
 9461W        W26309  13.529  15.357   2.885 -0.0178 -0.3710 -0.1333
 9462W        W26310   6.386  10.148   0.668  0.1283 -0.0483  0.1072
 9463W        W26311   2.280  15.080   4.783 -0.0670  0.1706 -0.0463
 9464W        W26312  15.208  16.920  17.578 -0.1486  0.0116  0.0468
 9465W        W26313   1.691   6.331  12.485  0.1341 -0.2767  0.1897
 9466W        W26314   0.643   4.341   3.214  0.3746  0.0163 -0.1878
 9467W        W26315  11.088   2.813  16.504 -0.4819 -0.2928  0.1118
 9468W        W26316  13.760   3.853   4.022 -0.2530  0.0862  0.0063
 9469W        W26317   8.093   7.167  12.725 -0.2177 -0.0566 -0.1642
 9470W        W26318   2.880  16.973  14.038 -0.1609  0.0417  0.0236
 9471W        W26319  13.832   3.628   5.360  0.2459 -0.1072 -0.0932
 9472W        W26320  16.024  10.405  16.573 -0.3188  0.1396 -0.0675
 9473W        W26321  11.904   7.598   0.892 -0.1293  0.2970  0.0631
 9474W        W26322   8.694  14.810   2.395 -0.0556  0.2988 -0.1188
 9475W        W26323   5.180  11.411  14.182 -0.0696 -0.0150 -0.0458
 9476W        W26324  17.006  11.620   4.902 -0.1934  0.0890 -0.0186
 9477W        W26325  10.829  12.839   5.538  0.0475 -0.1830 -0.1764
 9478W        W26326  14.683  16.843  12.503 -0.2274 -0.1307 -0.0617
 9479W        W26327   0.317  16.129  13.535 -0.1725  0.1515  0.0007
 9480W        W26328   3.198  17.017   0.574 -0.0966  0.2659 -0.0607
 9481W        W26329  11.823  14.438  16.598 -0.0206 -0.0099 -0.0292
 9482W        W26330  10.465   8.965   4.761 -0.3253  0.1857  0.0356
 9483W        W26331  10.254  10.188  13.677 -0.2053  0.0834 -0.1125
 9484W        W26332   5.991   7.940   6.190  0.0637  0.2572  0.3685
 9485W        W26333   4.230  16.158   4.789  0.0133  0.2573 -0.1521
 9486W        W26334   2.673   4.177   0.395 -0.0082  0.0078 -0.0456
 9487W        W26335  10.088  12.308  13.768 -0.0239 -0.0781 -0.0355
 9488W        W26336   2.703   0.648  14.488 -0.1629  0.1677 -0.0646
 9489W        W26337   7.032  13.147  12.714  0.0580  0.0924 -0.1273
 9490W        W26338   7.423  16.439  12.255 -0.4635 -0.1025 -0.0272
 9491W        W26339  16.707   9.115   1.904  0.0651  0.0023 -0.1485
 9492W        W26340   5.167   3.421   4.645 -0.0452  0.2451 -0.1546
 9493W        W26341  16.726  15.055   3.848 -0.1485 -0.0099  0.0346
 9494W        W26342  14.913  11.540   0.737 -0.2964  0.2886 -0.0475
 9495W        W26343  12.808  13.245   4.830 -0.1476  0.2192 -0.0200
 9496W        W26344  10.108  14.573   1.356  0.0106  0.0688  0.2562
 9497W        W26345   0.693   2.246   3.425 -0.1844 -0.2231  0.0907
 9498W        W26346  14.209  16.919   5.892  0.1477 -0.1146  0.0992
 9499W        W26347   2.983  10.048  12.587 -0.0886  0.1453  0.1467
 9500W        W26348   6.924  12.195  17.456  0.1424 -0.0227 -0.0568
 9501W        W26349   0.026   5.802  15.132  0.0319 -0.0982  0.2895
 9502W        W26350  10.477   3.425   1.397 -0.1456  0.4797 -0.2745
 9503W        W26351   9.030   4.309   0.056  0.2375 -0.1402  0.0161
 9504W        W26352   5.858  15.190  12.975 -0.3724 -0.0966 -0.1015
 9505W        W26353   3.080  13.240   1.746  0.0221  0.0360  0.2365
 9506W        W26354  13.481   8.538  16.072 -0.0278  0.1456 -0.1742
 9507W        W26355  11.189   6.710  12.584 -0.1250  0.0381 -0.4465
 9508W        W26356   2.565  11.636  15.094  0.0543 -0.0451  0.1877
 9509W        W26357   5.425   6.022  15.093 -0.1379  0.0803 -0.0137
 9510W        W26358  12.922   2.751   4.544 -0.2642 -0.0801  0.1492
 9511W        W26359   8.370   5.916  13.786 -0.0993 -0.3218  0.1889
 9512W        W26360   4.989   3.157   1.857 -0.2061 -0.4306  0.1391
 9513W        W26361   4.251  12.420   0.343 -0.1428  0.1621 -0.1849
 9514W        W26362   0.367   0.443  14.787  0.1087  0.2702 -0.2620
 9515W        W26363  10.948  15.661  15.947  0.2112 -0.0471 -0.2276
 9516W        W26364   2.240   2.140   4.296  0.0600 -0.2327  0.1900
 9517W        W26365   3.696  11.410   0.579  0.1278 -0.1624 -0.0411
 9518W        W26366  10.501  16.291  11.829  0.0498  0.0125  0.2093
 9519W        W26367   4.393   9.223   5.167  0.0224 -0.3247 -0.0346
 9520W        W26368  12.928  12.831   5.068 -0.1479  0.0626 -0.0800
 9521W        W26369   3.577  10.516   6.345 -0.0940 -0.3376  0.1929
 9522W        W26370   4.672   9.628   5.168 -0.1855 -0.3428 -0.1586
 9523W        W26371   6.948  14.481  17.307 -0.1705 -0.0604  0.0986
 9524W        W26372  15.717  10.567   1.507 -0.0336  0.2835  0.1286
 9525W        W26373   3.355   5.708  15.653 -0.2262 -0.0702 -0.0301
 9526W        W26374  13.412  15.258  12.936 -0.2495 -0.2528 -0.1084
 9527W        W26375  12.007   0.725   0.025  0.0129 -0.1870  0.2953
 9528W        W26376   0.279   3.442  17.797  0.0969  0.0182  0.1845
 9529W        W26377  11.987  16.170   4.753 -0.0787 -0.1018  0.4106
 9530W        W26378  13.899   5.701   3.560 -0.2667 -0.0078 -0.1342
 9531W        W26379  14.039  10.006   2.057  0.0535 -0.1181  0.1844
 9532W        W26380   4.885   6.131  16.582  0.0430 -0.0969  0.1481
 9533W        W26381   6.522   3.161   4.663  0.3069 -0.1122  0.0928
 9534W        W26382   7.558   1.577   4.762 -0.2407 -0.0791 -0.0667
 9535W        W26383  12.369  11.225  12.879  0.2688  0.1125 -0.0157
 9536W        W26384   5.604   1.487   3.574 -0.1614  0.1207 -0.1743
 9537W        W26385   4.264  10.771   1.328 -0.3194 -0.2304  0.0846
 9538W        W26386   0.773   5.482  12.484  0.0781 -0.3142 -0.4673
 9539W        W26387   8.614  12.986   1.984 -0.1720  0.0270 -0.1738
 9540W        W26388  11.678   5.795  16.551 -0.0534 -0.0604  0.2920
 9541W        W26389  11.583  13.093   0.499  0.1203 -0.2529 -0.0548
 9542W        W26390  11.250   9.351   5.271  0.1075  0.4898  0.0218
 9543W        W26391  11.265   4.478   2.393 -0.0877 -0.0528 -0.3252
 9544W        W26392   4.220   3.814   3.470  0.0800  0.0704 -0.0404
 9545W        W26393   4.953   8.865   4.538  0.0005 -0.1315  0.1559
 9546W        W26394   3.796   4.756   3.310 -0.0973  0.3007 -0.1022
 9547W        W26395   6.047   3.956   4.913 -0.0526 -0.2083 -0.1257
 9548W        W26396   9.327   7.757  13.663 -0.0181 -0.4690  0.0594
 9549W        W26397   2.534   4.509   2.513 -0.0834 -0.2247 -0.2113
 9550W        W26398   7.862   1.730   3.280  0.0009 -0.1040  0.1855
 9551W        W26399   3.417  14.603   1.568  0.3102 -0.1236 -0.1160
 9552W        W26400  16.211  11.578  13.413 -0.2817  0.1184 -0.1930
 9553W        W26401   3.920   6.143   0.717 -0.0375  0.0489  0.0660
 9554W        W26402   7.935  15.980  16.946  0.0151 -0.0022 -0.2148
 9555W        W26403  16.617  13.026  15.112 -0.1095 -0.0598 -0.0014
 9556W        W26404   3.793   5.444   5.040 -0.0345  0.2576 -0.3039
 9557W        W26405   1.811   3.442   5.867  0.1751 -0.2331  0.0973
 9558W        W26406   8.856   2.908  14.531  0.0866  0.3856 -0.0137
 9559W        W26407   6.421   8.751  14.185  0.1914 -0.2951  0.1108
 9560W        W26408  10.258  15.206   3.234 -0.3208 -0.2040  0.0988
 9561W        W26409   5.678  14.690  13.799  0.1506  0.1265 -0.1386
 9562W        W26410   0.500   9.021   1.524 -0.1098  0.1225 -0.0401
 9563W        W26411   0.807  15.500  14.885 -0.0124 -0.1842 -0.1190
 9564W        W26412   5.032   4.722  14.843 -0.1270  0.0678 -0.1277
 9565W        W26413   2.551  14.961   4.357  0.0432 -0.0201  0.1627
 9566W        W26414   5.915  12.515  17.514 -0.0465 -0.2672  0.3684
 9567W        W26415  11.114   7.901  16.938  0.0945  0.1264 -0.1853
 9568W        W26416  12.686  11.033   4.428  0.1505 -0.0773 -0.1294
 9569W        W26417   1.686   7.540  17.338 -0.0116 -0.1483 -0.0475
 9570W        W26418  16.725  10.613   4.695 -0.0788 -0.5220 -0.3685
 9571W        W26419  16.020   1.787  15.599  0.0898  0.0945  0.0492
 9572W        W26420   8.963   6.618  14.222  0.2568 -0.3792  0.0836
 9573W        W26421   8.774   1.917  13.815  0.1231 -0.1787  0.2827
 9574W        W26422  12.697   0.624  17.461  0.0425  0.0786  0.0923
 9575W        W26423   3.207   1.655  12.948  0.0026 -0.1286  0.0033
 9576W        W26424  16.414   5.041   0.265  0.3077 -0.1165 -0.2911
 9577W        W26425  11.625  11.215  15.739 -0.1675 -0.0564 -0.2872
 9578W        W26426   4.216  14.086  12.211 -0.3255 -0.2942 -0.0357
 9579W        W26427  10.413   4.799  17.058  0.0172 -0.0854 -0.1620
 9580W        W26428  15.044   4.053   6.521  0.0750  0.0959  0.1367
 9581W        W26429  15.960   5.253   3.422  0.0686  0.0279  0.0094
 9582W        W26430   8.887   4.129  14.926 -0.0347 -0.1966 -0.0612
 9583W        W26431   7.122  13.503  12.351 -0.0551 -0.0664  0.2608
 9584W        W26432  16.519  12.885   1.830 -0.0535  0.0397  0.1222
 9585W        W26433   1.809  14.598   4.019  0.0458  0.1235 -0.1309
 9586W        W26434   4.275   6.012  11.898  0.0157  0.2856 -0.2610
 9587W        W26435   3.786  12.930   0.996  0.0570  0.2438  0.2447
 9588W        W26436   4.576   4.626   0.216  0.0027  0.1552 -0.3808
 9589W        W26437   7.798   2.667  13.295  0.1948 -0.3565  0.0698
 9590W        W26438   1.387  15.276  17.320 -0.0158 -0.0069  0.0927
 9591W        W26439  16.369  16.405  12.135 -0.3866 -0.0752 -0.0548
 9592W        W26440   7.402   3.555  13.024  0.2261  0.0992 -0.0536
 9593W        W26441  10.457  16.497   6.016 -0.3122 -0.0037 -0.0518
 9594W        W26442   6.820  10.072  17.376 -0.0899 -0.0196  0.2997
 9595W        W26443  12.815  14.663  15.624 -0.1659 -0.0501  0.0391
 9596W        W26444   2.053  10.776  12.756 -0.2557 -0.1800  0.1033
 9597W        W26445   0.482   4.914  13.895  0.2207  0.2819 -0.1816
 9598W        W26446   1.514  12.752   2.907 -0.0146 -0.1938  0.0077
 9599W        W26447   5.523  14.404  11.790 -0.2600 -0.1179  0.1725
 9600W        W26448   9.958   0.997  15.834 -0.1561 -0.3854 -0.1750
 9601W        W26449  10.063   0.886  17.745  0.1587  0.3436  0.0896
 9602W        W26450   2.360   0.548  14.109 -0.3554  0.1716 -0.0909
 9603W        W26451  10.777   5.912  13.474  0.2441  0.0056 -0.0697
 9604W        W26452  10.237  12.150   5.388  0.2508  0.1802  0.0201
 9605W        W26453   7.183   2.433   1.848 -0.0190 -0.0674  0.0354
 9606W        W26454   6.391  14.265  17.847 -0.1697 -0.0602  0.1281
 9607W        W26455  16.964   6.775   1.340 -0.2444 -0.2055 -0.3765
 9608W        W26456   7.719   8.764  13.169  0.0867  0.1669 -0.1913
 9609W        W26457   9.559   9.331   4.180 -0.0526  0.3255 -0.4133
 9610W        W26458   0.752  14.412  13.187  0.2483 -0.1869  0.0555
 9611W        W26459   3.083  12.831  12.358  0.0453  0.1172 -0.1382
 9612W        W26460   9.114  11.383  15.409 -0.1547 -0.2098 -0.2034
 9613W        W26461   3.207  15.335   3.587  0.1752  0.0644  0.1009
 9614W        W26462  11.708   1.113   2.743  0.0122 -0.0340 -0.0182
 9615W        W26463   2.192   8.541  12.832  0.0392 -0.1132 -0.2102
 9616W        W26464  15.405   8.441   1.355  0.0858 -0.1770  0.1985
 9617W        W26465  12.540   8.676  13.879 -0.0437  0.1618 -0.1812
 9618W        W26466   0.295   1.901   0.663  0.0672  0.2913  0.3007
 9619W        W26467  14.520  12.948  13.217 -0.0689 -0.0317  0.2554
 9620W        W26468  11.979   5.586  16.204  0.0030  0.0121 -0.2031
 9621W        W26469  15.813   0.984   3.841 -0.1928 -0.1286 -0.2117
 9622W        W26470   3.947  13.897  14.617 -0.1856  0.0834  0.0489
 9623W        W26471   3.418   5.965  12.491  0.1225 -0.1244 -0.0635
 9624W        W26472  15.045   9.065   4.161 -0.1824  0.0318 -0.0812
 9625W        W26473   9.738   0.525  15.870 -0.2602 -0.1687  0.1995
 9626W        W26474   3.827  15.410  12.938  0.0530  0.3565 -0.1166
 9627W        W26475   7.276   9.090   0.963  0.1476 -0.2183 -0.1296
 9628W        W26476  16.753  11.418   1.909 -0.2019  0.1191  0.2075
 9629W        W26477  11.829  11.073   6.354  0.0636  0.0736 -0.0389
 9630W        W26478   7.946   4.961   3.064 -0.0290 -0.1360  0.0610
 9631W        W26479  13.127   8.931  17.460 -0.0369 -0.1328 -0.2464
 9632W        W26480   6.073  10.384  17.779 -0.0317 -0.3683  0.1405
 9633W        W26481   0.572   7.010   4.216  0.1073  0.2942  0.4273
 9634W        W26482   7.007  13.016  14.319  0.1082  0.0782  0.3000
 9635W        W26483  12.184   4.230  16.299  0.1494  0.1066  0.0636
 9636W        W26484   1.138  12.883   6.594 -0.1639 -0.0995 -0.0571
 9637W        W26485   9.439   9.955  13.708  0.1552  0.2182 -0.0143
 9638W        W26486   4.305  15.455   5.694  0.3259  0.0286  0.1432
 9639W        W26487   3.416   6.262   2.044 -0.0361  0.1191  0.0678
 9640W        W26488  13.916   6.113  12.778  0.0127  0.4366  0.2247
 9641W        W26489   1.076  13.339   5.691 -0.0794  0.0752  0.0039
 9642W        W26490   2.716   6.419   2.914  0.0184  0.1156 -0.2955
 9643W        W26491   2.051  10.832   2.881  0.1477 -0.2446  0.0717
 9644W        W26492  11.626  16.655   1.340  0.0629 -0.2472 -0.1862
 9645W        W26493   9.004   0.211  15.005 -0.1073  0.1831 -0.0457
 9646W        W26494   4.744   5.577  16.629 -0.0937 -0.0786 -0.0012
 9647W        W26495   6.639   2.492  15.319 -0.0572  0.0900  0.2308
 9648W        W26496   3.617  12.762  13.563 -0.1495  0.0861 -0.1809
 9649W        W26497  11.772   0.620   0.435 -0.2751  0.3210  0.2226
 9650W        W26498  14.146   5.765  15.934  0.0985  0.0725 -0.0058
 9651W        W26499   3.448   1.399  15.750 -0.1485 -0.0274 -0.2206
 9652W        W26500   7.934  15.460   3.521  0.0100  0.0422 -0.0008
 9653W        W26501   4.567  12.266  17.003  0.1507 -0.2304  0.0236
 9654W        W26502  11.147   2.288  16.533 -0.0668 -0.4470 -0.2907
 9655W        W26503  10.161   0.348  14.073  0.0001  0.2729  0.0948
 9656W        W26504   9.390  12.990  13.125  0.0351  0.1376 -0.0096
 9657W        W26505  16.670   8.520  12.817  0.0376 -0.0913  0.0848
 9658W        W26506   7.878   1.209   3.340  0.1136  0.4259 -0.0497
 9659W        W26507   6.488  11.684  16.574 -0.0501 -0.1286  0.2865
 9660W        W26508   5.707  16.517   1.752 -0.2499 -0.0275  0.0896
 9661W        W26509   7.619   7.788  15.341 -0.0728  0.3615  0.1936
 9662W        W26510   5.694   7.206  14.102  0.0001 -0.2364  0.0322
 9663W        W26511  15.525   5.156  16.332 -0.3421 -0.0977 -0.0241
 9664W        W26512   7.303   9.883   0.189 -0.0510  0.3771  0.1033
 9665W        W26513   1.082  11.342   4.928  0.1122  0.1684  0.2078
 9666W        W26514  10.108   9.349  16.324 -0.0164 -0.0638 -0.3616
 9667W        W26515   8.220  16.308   3.557 -0.0090  0.2039 -0.0843
 9668W        W26516  13.187   1.093   4.702 -0.3325 -0.1577 -0.3227
 9669W        W26517   4.918  17.004   6.034 -0.0720 -0.2063 -0.5173
 9670W        W26518  13.405   1.398  15.786  0.0997 -0.1185  0.0158
 9671W        W26519   1.153   6.815  15.951 -0.1902  0.4233  0.0639
 9672W        W26520   0.784  16.603  12.730  0.1040 -0.0308 -0.4024
 9673W        W26521   3.169   3.769  15.794 -0.1260  0.2031 -0.0895
 9674W        W26522  12.619   4.770   5.326 -0.1608 -0.0763 -0.4022
 9675W        W26523   7.117  13.747  12.859 -0.0713  0.2378  0.1654
 9676W        W26524  10.568   2.381   2.585  0.2276 -0.0577 -0.0412
 9677W        W26525   1.684   2.126   1.702 -0.2544  0.1051 -0.0319
 9678W        W26526  16.002  10.662  17.013 -0.0925 -0.2242  0.2067
 9679W        W26527  13.968  15.053   1.145 -0.3389  0.1573 -0.1136
 9680W        W26528   1.462   4.630  14.830 -0.0555 -0.1389 -0.3810
 9681W        W26529   7.601  12.953   4.758  0.1393  0.0387  0.0686
 9682W        W26530  11.099  10.709   5.997  0.1676 -0.1525  0.0486
 9683W        W26531   5.773   4.459  17.726 -0.2574  0.1501  0.1976
 9684W        W26532  10.936  16.602  15.711  0.0042 -0.0507  0.1202
 9685W        W26533   1.132   6.563   1.667 -0.0980 -0.0646  0.1781
 9686W        W26534   6.643  10.644  12.356 -0.2564 -0.1980  0.3558
 9687W        W26535  12.203   1.956  12.501 -0.2762  0.3994 -0.0127
 9688W        W26536   6.229   6.152   0.122  0.2302 -0.0332  0.0562
 9689W        W26537  13.109  10.497  14.975 -0.0444  0.1400  0.1429
 9690W        W26538   5.333   1.582   0.358  0.5092  0.2329  0.1562
 9691W        W26539   5.815  12.118  15.080 -0.0327  0.0250  0.0686
 9692W        W26540   6.772   7.623   4.734 -0.2400  0.0256  0.1280
 9693W        W26541  15.947  12.031  15.772 -0.1282  0.3118 -0.2620
 9694W        W26542   7.537  13.610  13.085 -0.0954 -0.0954 -0.1197
 9695W        W26543  10.646   6.525   2.674 -0.1018 -0.2033  0.0287
 9696W        W26544   9.942   0.483  12.714  0.1994  0.2659 -0.3292
 9697W        W26545  15.872   2.716   2.134  0.0610  0.0848  0.3970
 9698W        W26546  10.814   1.702  13.567 -0.1213  0.0874  0.2034
 9699W        W26547   9.052   6.167  12.939  0.0702  0.1221  0.0428
 9700W        W26548  15.934   6.643  14.028  0.0000  0.1164 -0.1971
 9701W        W26549   9.300   9.743   5.401 -0.0831  0.0511 -0.1583
 9702W        W26550   5.875  12.828   0.814  0.0135  0.1633  0.0124
 9703W        W26551  10.747  11.552   6.577  0.3588 -0.1019  0.1697
 9704W        W26552  12.172  14.564  12.948 -0.1912 -0.0696 -0.3686
 9705W        W26553  14.357  15.818   0.259 -0.2176 -0.2083  0.0113
 9706W        W26554   6.205  14.614  15.708  0.1199  0.1545  0.0528
 9707W        W26555  15.469  13.928  17.603  0.0743 -0.1086 -0.1892
 9708W        W26556  13.106   3.496  15.527 -0.0758  0.1722  0.1764
 9709W        W26557   3.853  13.611   4.365 -0.0682  0.0800 -0.0284
 9710W        W26558  16.035   9.926   2.054 -0.0976 -0.2510  0.1241
 9711W        W26559   7.919  16.758   0.265 -0.2768  0.0041  0.2483
 9712W        W26560  13.469   2.386   4.053  0.0596 -0.1926 -0.0529
 9713W        W26561   7.444   2.092   4.202 -0.3774  0.0828  0.1001
 9714W        W26562  13.249  10.910  16.196 -0.1149  0.1848 -0.1203
 9715W        W26563   2.225  16.895   2.701 -0.1061  0.3064  0.3295
 9716W        W26564   8.088   2.189  14.805  0.1262 -0.0019 -0.2423
 9717W        W26565   7.941   3.225   5.018 -0.1253 -0.0265 -0.2802
 9718W        W26566   0.796  10.622  12.374 -0.1339  0.2035 -0.0337
 9719W        W26567  15.585   4.303  15.971 -0.3258 -0.2207 -0.3791
 9720W        W26568  14.997   1.884   5.152 -0.1398 -0.1199 -0.2324
 9721W        W26569   3.695   0.194   4.075 -0.1597 -0.3523  0.3491
 9722W        W26570  13.523   5.910   4.628 -0.2012  0.1482  0.2563
 9723W        W26571  15.901   5.103  16.018 -0.2131 -0.0930  0.0770
 9724W        W26572  16.867   0.814   2.906  0.0760  0.1538 -0.0966
 9725W        W26573  16.222   4.071   3.606  0.0351 -0.0057  0.1425
 9726W        W26574   4.395  14.227   1.826  0.3949  0.2047  0.1676
 9727W        W26575   6.568   8.296  14.287 -0.0503  0.3593 -0.0776
 9728W        W26576  10.278  13.469  14.559  0.1115  0.0219 -0.2585
 9729W        W26577   0.368  13.204   0.227  0.0269 -0.1246 -0.1607
 9730W        W26578  14.489  16.740  14.124  0.1290 -0.0696  0.1171
 9731W        W26579  10.620   7.940   1.902  0.1496  0.2981  0.4749
 9732W        W26580  16.177   3.161   5.167  0.0974 -0.2514 -0.3527
 9733W        W26581  15.791   6.995  15.024 -0.0464  0.2464  0.1503
 9734W        W26582  14.915  12.403   1.026  0.1268  0.1462  0.1844
 9735W        W26583  14.226  12.837   1.349 -0.1740 -0.1860 -0.1359
 9736W        W26584   2.278   9.313  12.225 -0.1498 -0.2103  0.2352
 9737W        W26585   2.591   5.961  14.107 -0.3615  0.1152 -0.0559
 9738W        W26586   2.442   0.629  15.991 -0.1977 -0.1190 -0.0325
 9739W        W26587  11.431   9.109   3.951 -0.2162 -0.1864 -0.0655
 9740W        W26588   9.720   9.869   3.370 -0.2176  0.1993  0.0472
 9741W        W26589   4.443  13.870   3.458 -0.4405 -0.1819  0.0040
 9742W        W26590   8.778   8.871  17.541  0.1721  0.0108 -0.1072
 9743W        W26591   7.427   2.193   3.170 -0.2899 -0.1093 -0.0022
 9744W        W26592   0.692  11.429   3.077 -0.0163  0.0639 -0.0762
 9745W        W26593   0.046  15.823  16.020 -0.0894  0.0036 -0.1109
 9746W        W26594   2.834  15.288   4.657  0.2816 -0.1774  0.1153
 9747W        W26595   4.560   1.683   2.720  0.0758 -0.2348  0.1369
 9748W        W26596  10.508  16.434   4.137  0.2203 -0.3057  0.1470
 9749W        W26597  10.311   2.535  14.129  0.2720  0.0158 -0.0146
 9750W        W26598  15.482   0.146   3.137 -0.0818  0.2483  0.0876
 9751W        W26599   6.754   8.734   0.215  0.0353 -0.1318  0.0703
 9752W        W26600  10.599   5.036   4.702  0.2118 -0.0032  0.0913
 9753W        W26601  14.364   9.687   2.408  0.0003  0.1185 -0.0528
 9754W        W26602   4.005  13.758   0.368  0.0741  0.0894  0.2326
 9755W        W26603   8.317   6.613   1.556 -0.1564  0.1102  0.3144
 9756W        W26604   1.039   7.378  14.439  0.1350 -0.0026  0.0837
 9757W        W26605   9.706  10.064   1.221  0.2565  0.1519 -0.0845
 9758W        W26606  16.331   1.681   4.557 -0.2271  0.4627 -0.4377
 9759W        W26607   3.551  13.442  15.667 -0.1566  0.2476  0.1670
 9760W        W26608   0.989   7.609   4.831  0.0053 -0.1633 -0.0136
 9761W        W26609   3.209   6.875  17.616 -0.2551  0.0786 -0.0843
 9762W        W26610  15.705   4.177   4.679  0.3165  0.1397  0.1015
 9763W        W26611  13.598   6.071   3.972  0.1883 -0.2146  0.0474
 9764W        W26612   2.716   4.007   4.000 -0.0269 -0.2575 -0.3062
 9765W        W26613  16.604  13.371  12.930  0.0516 -0.2698  0.1095
 9766W        W26614   0.593  10.716  16.849 -0.1432 -0.1266  0.0923
 9767W        W26615   3.411   0.238  16.848  0.0891  0.2043 -0.1626
 9768W        W26616  14.933   5.298   1.767  0.0421  0.0438 -0.2764
 9769W        W26617  14.282  11.023   1.602 -0.1376  0.1182 -0.1751
 9770W        W26618   3.802   7.525  14.801  0.0123  0.1344 -0.0239
 9771W        W26619   6.670   5.117  16.131  0.1473  0.0030  0.1327
 9772W        W26620   4.933   3.869   1.195  0.0608 -0.1290 -0.2420
 9773W        W26621  12.331  14.247  14.894  0.1165  0.0776 -0.0685
 9774W        W26622  15.876  12.206  13.197  0.0606 -0.4046  0.0340
 9775W        W26623  16.017  14.161  14.192 -0.0331 -0.4422 -0.0015
 9776W        W26624  16.680   9.698   5.661 -0.3168  0.0444  0.1095
 9777W        W26625   1.317  13.774   1.711 -0.1638  0.1518 -0.0313
 9778W        W26626   6.818  14.142  14.701 -0.3355  0.0041 -0.1357
 9779W        W26627  15.881  16.689   2.054  0.1127  0.1757 -0.0974
 9780W        W26628   8.608   3.821   0.752  0.1778 -0.2085 -0.0339
 9781W        W26629  14.289  15.337   5.285 -0.0119  0.2590 -0.3030
 9782W        W26630   9.049   3.483  11.784 -0.0597 -0.1519 -0.0678
 9783W        W26631   2.939  11.645  16.373 -0.1699 -0.2000  0.0186
 9784W        W26632   4.197  14.578   2.665 -0.2189 -0.3732 -0.0772
 9785W        W26633  11.667  13.802  12.709  0.0667  0.3786  0.3648
 9786W        W26634   9.397  10.318   0.405  0.1686 -0.2263  0.1957
 9787W        W26635  10.926   7.755  13.609 -0.0056 -0.1426 -0.0144
 9788W        W26636   3.577   0.521   4.435  0.2155 -0.0330  0.0092
 9789W        W26637   9.069  15.772   4.868 -0.0224  0.1112 -0.0577
 9790W        W26638   4.077  14.370  14.502  0.1850 -0.0623  0.1942
 9791W        W26639  14.335   4.908  13.086 -0.0708  0.1153  0.0394
 9792W        W26640  14.551   4.998   1.107  0.0667 -0.0059 -0.0953
 9793W        W26641   0.315  15.996  16.692 -0.1082  0.2457  0.3350
 9794W        W26642   0.808   8.519  14.198 -0.1131  0.1021 -0.1465
 9795W        W26643  16.130   5.101   5.250  0.0814 -0.0556  0.0342
 9796W        W26644  10.269   2.703  10.939 -0.3713  0.2299 -0.0402
 9797W        W26645  14.213  14.658  17.248 -0.1350 -0.0356  0.1012
 9798W        W26646   6.155  11.934   2.286  0.0341 -0.2137 -0.0518
 9799W        W26647  11.016  12.655   1.654 -0.0969 -0.1328  0.1498
 9800W        W26648   4.716   5.626  13.188 -0.2477  0.1833  0.1786
 9801W        W26649   7.652  15.016   2.348  0.1818 -0.0303  0.3821
 9802W        W26650   5.788   5.720  12.512 -0.3087 -0.1124  0.1420
 9803W        W26651   6.802   7.876  13.003  0.0001 -0.0977 -0.0981
 9804W        W26652  11.015   7.033  14.728 -0.1445 -0.0693  0.0422
 9805W        W26653  13.183  16.184  14.059  0.2382 -0.3952 -0.1977
 9806W        W26654  13.515   6.567   0.504 -0.0656  0.1014 -0.0403
 9807W        W26655   0.823  16.999   5.110  0.1553 -0.1433  0.0666
 9808W        W26656   0.874   8.449  13.601  0.1772 -0.2192 -0.0638
 9809W        W26657   5.073  14.852   2.589  0.0595  0.1878  0.0789
 9810W        W26658  11.504  15.150   0.906 -0.1041 -0.2477 -0.0772
 9811W        W26659   1.440  14.849   0.245  0.3328  0.5680 -0.1126
 9812W        W26660   1.001   6.766   5.506 -0.0184 -0.3894 -0.0133
 9813W        W26661  13.408  12.515  14.160  0.1984 -0.2912 -0.1008
 9814W        W26662   8.154   9.768   0.812  0.0330  0.2269 -0.0945
 9815W        W26663   5.690  13.554   4.026 -0.0779 -0.2824  0.0312
 9816W        W26664   3.311  13.699  17.501 -0.1719 -0.1757  0.3460
 9817W        W26665   5.921   1.555   2.678  0.0161 -0.2487  0.0799
 9818W        W26666   3.090  16.503   5.996 -0.1596 -0.1359  0.2190
 9819W        W26667   9.247  14.683   4.731 -0.1818 -0.1760 -0.3435
 9820W        W26668  11.534   2.758  16.766 -0.1933  0.2702  0.2112
 9821W        W26669   7.891   1.501  14.339 -0.0558  0.0082  0.0541
 9822W        W26670   9.827   8.941   3.970  0.1608 -0.1298  0.1605
 9823W        W26671  12.146  11.794  13.810  0.0221  0.2544  0.2635
 9824W        W26672   2.657  15.654   2.122 -0.3120  0.4119 -0.0010
 9825W        W26673   2.722  15.215  15.397  0.0840  0.0341 -0.2170
 9826W        W26674  11.980  14.790  15.245  0.0080 -0.0456  0.1771
 9827W        W26675  13.133  13.200   3.421  0.2494  0.3849 -0.0511
 9828W        W26676   0.548   7.515  13.003  0.0649 -0.1311  0.2116
 9829W        W26677   9.476   4.566  16.436  0.1012  0.2264  0.0536
 9830W        W26678   7.693  16.929  16.831  0.2098 -0.1277  0.0266
 9831W        W26679   2.634   3.037  15.911 -0.1551 -0.3633  0.0349
 9832W        W26680   5.819   2.439  17.187 -0.2339  0.0076 -0.1530
 9833W        W26681  14.615   9.823   0.414 -0.1138 -0.0838 -0.1297
 9834W        W26682  13.142   2.152   3.096 -0.2046  0.0122 -0.1097
 9835W        W26683  12.747   8.261  13.330 -0.0421 -0.0458  0.1184
 9836W        W26684   6.350   3.857  16.400  0.0966  0.0844 -0.0404
 9837W        W26685   8.079  10.488  15.707  0.0843 -0.1610 -0.1764
 9838W        W26686  15.432   6.691   0.297  0.2085 -0.1257 -0.1145
 9839W        W26687  16.484   6.975  12.359  0.1559 -0.2724  0.0184
 9840W        W26688  14.862   8.557  17.630 -0.0644 -0.3638  0.2812
 9841W        W26689  13.183  16.472  12.643  0.0831 -0.0250  0.2790
 9842W        W26690   6.114   8.951  13.392  0.0922 -0.1290 -0.1386
 9843W        W26691   0.608   4.081  12.638 -0.0349 -0.0946 -0.1363
 9844W        W26692   9.008  15.382   1.321 -0.1320 -0.0595  0.2409
 9845W        W26693   4.584   2.853   0.080 -0.1868 -0.0803 -0.0957
 9846W        W26694   5.312  11.194   3.033 -0.1183 -0.0029 -0.2809
 9847W        W26695   4.801  15.073  17.476 -0.2009 -0.3320  0.0363
 9848W        W26696   8.119   5.530  14.050 -0.2618 -0.0746 -0.0130
 9849W        W26697  12.939   0.825   2.253  0.0489 -0.0750  0.0111
 9850W        W26698  11.321  11.898   4.928 -0.0497  0.3216  0.2742
 9851W        W26699   0.005   6.183  17.743 -0.0957  0.2961  0.1688
 9852W        W26700   4.020   1.831   2.505 -0.0237 -0.0107 -0.2137
 9853W        W26701   4.930   4.795  17.729  0.3615 -0.4023 -0.2490
 9854W        W26702  14.678  15.659   2.967 -0.1991 -0.0868  0.2491
 9855W        W26703  14.084   7.131  17.631  0.0617 -0.0624 -0.0818
 9856W        W26704   9.146  16.525  14.471  0.0136 -0.2400  0.1464
 9857W        W26705  11.551   7.477   0.241  0.3223  0.2199  0.0511
 9858W        W26706  12.985   8.585   0.088 -0.0793  0.1703  0.2386
 9859W        W26707   3.377   0.670   1.823  0.1674  0.1472 -0.1031
 9860W        W26708   6.069   2.479   4.287 -0.0135  0.1398  0.0436
 9861W        W26709  10.869   9.320  16.356  0.1033  0.1265  0.0224
 9862W        W26710  12.105  16.521   4.163  0.0710  0.2199  0.1334
 9863W        W26711   9.168   0.742  15.798 -0.0562  0.3768  0.1377
 9864W        W26712   8.843  16.957  14.250  0.1062  0.0753 -0.0014
 9865W        W26713  15.241  16.604  15.989  0.1803 -0.1024 -0.0403
 9866W        W26714   8.573   2.332  16.595  0.0463  0.0135 -0.1315
 9867W        W26715   8.477   1.787  16.402 -0.1970  0.1753  0.0089
 9868W        W26716   7.412  14.065  15.857 -0.4442 -0.2357 -0.1132
 9869W        W26717   5.825  17.041   3.341 -0.4350  0.2553  0.2480
 9870W        W26718   7.212  11.162   4.327 -0.0557 -0.0730 -0.1948
 9871W        W26719   0.333   7.655   3.942 -0.0954 -0.3340  0.0266
 9872W        W26720  12.428   3.181  13.038 -0.2103 -0.2571 -0.1392
 9873W        W26721  14.797  13.182  15.069  0.1960  0.0602  0.2951
 9874W        W26722   6.380  10.821  15.573 -0.0672  0.2879 -0.0594
 9875W        W26723  10.158  11.348  17.323 -0.0708 -0.2863 -0.2282
 9876W        W26724   0.133   2.355  14.363  0.0510 -0.0532 -0.2325
 9877W        W26725   1.370  12.825  16.047  0.3001  0.0059 -0.2486
 9878W        W26726  16.553  10.796  11.742 -0.0525  0.1250  0.1941
 9879W        W26727   4.589  16.391  13.857 -0.1658 -0.0414  0.1846
 9880W        W26728  15.319   3.591   1.993  0.0181 -0.1016 -0.1036
 9881W        W26729  14.790  11.254  15.221 -0.0879  0.0449  0.2995
 9882W        W26730   4.110   5.929   0.050 -0.0280 -0.0468 -0.0455
 9883W        W26731  11.807  10.194   4.643 -0.3109 -0.2108 -0.0624
 9884W        W26732   1.478  12.207   2.856 -0.1064  0.0812  0.1639
 9885W        W26733   1.716  15.605  12.425  0.0737  0.1345 -0.0762
 9886W        W26734   3.330   6.664  13.210 -0.1899 -0.0828  0.3166
 9887W        W26735   7.236   7.829   1.668 -0.0153  0.1000 -0.3019
 9888W        W26736   9.592   8.488  12.463  0.0798 -0.0451 -0.0694
 9889W        W26737  16.592  11.335   1.064 -0.1178  0.1246  0.1016
 9890W        W26738   7.637  11.508   3.537  0.1652 -0.2520 -0.0433
 9891W        W26739  11.526   1.049  12.923  0.1174 -0.2237 -0.0889
 9892W        W26740  11.068   6.090   5.605  0.2793 -0.0035 -0.0789
 9893W        W26741  15.844  16.402   1.379  0.3670  0.0333  0.1239
 9894W        W26742   7.239   1.909   1.404 -0.3529 -0.2012  0.1164
 9895W        W26743   5.717  11.587  13.483  0.0048 -0.2518  0.1309
 9896W        W26744   6.310   4.831  12.493  0.1407 -0.0922  0.2228
 9897W        W26745  10.038   5.651   3.677  0.1892  0.1257 -0.1381
 9898W        W26746  12.325   3.942   4.891  0.0695  0.2195 -0.2193
 9899W        W26747   7.759   0.918  13.050 -0.4335  0.0868 -0.0567
 9900W        W26748   8.716   3.077  16.567  0.3424  0.2967  0.2975
 9901W        W26749  11.830  16.888  15.192  0.0973  0.0847 -0.3661
 9902W        W26750  10.913   6.510  16.863  0.1574 -0.0056 -0.1041
 9903W        W26751   9.502  12.991   0.791  0.3802 -0.1215 -0.0739
 9904W        W26752   5.491   6.524  15.286 -0.1280 -0.1409 -0.0182
 9905W        W26753  11.308   1.774   4.381 -0.3689 -0.0287  0.0445
 9906W        W26754  14.339  14.434  15.364 -0.1988 -0.2495  0.1390
 9907W        W26755  16.302  15.747  14.871 -0.4466 -0.0366 -0.0128
 9908W        W26756  10.764   5.729   3.308  0.1435  0.0919  0.2749
 9909W        W26757  14.666   9.719  14.613  0.1813 -0.1322  0.0543
 9910W        W26758   5.439  14.925  16.226 -0.2767 -0.0092  0.1138
 9911W        W26759  16.407   1.190   5.346  0.2401 -0.1908  0.2102
 9912W        W26760   4.833  16.524  17.789 -0.3882 -0.2391 -0.0868
 9913W        W26761  10.195   8.151   4.340  0.2008 -0.1042 -0.0116
 9914W        W26762   2.229   2.029   0.764 -0.0310 -0.1335  0.3110
 9915W        W26763   7.934   7.305   2.622 -0.0230  0.1933 -0.0467
 9916W        W26764   9.198   7.865   5.120  0.0229  0.0068 -0.2160
 9917W        W26765   5.300  16.605   1.966 -0.0655 -0.1675 -0.2711
 9918W        W26766  14.257  15.768   4.943 -0.1555  0.0406 -0.2265
 9919W        W26767  15.323  11.608  12.904 -0.2571 -0.2166  0.3081
 9920W        W26768   1.272   4.544   5.603  0.0239  0.2018  0.0206
 9921W        W26769   4.133   8.914  16.232 -0.1516 -0.1589  0.0823
 9922W        W26770   7.833  11.426   3.037  0.3862  0.0683 -0.1297
 9923W        W26771  13.479  14.668   2.043 -0.1178  0.1515  0.0244
 9924W        W26772   3.783   5.160  12.303  0.2154 -0.0462 -0.0105
 9925W        W26773  15.765   5.339   0.182  0.1127  0.2183  0.2981
 9926W        W26774   3.334   0.079   4.409 -0.2047  0.2045  0.1336
 9927W        W26775  12.708   2.181   1.002  0.0594  0.2251 -0.2409
 9928W        W26776   5.596  15.043  12.109 -0.2408 -0.0644  0.0615
 9929W        W26777  11.357   6.121  12.078 -0.0129 -0.0216 -0.1297
 9930W        W26778   6.685   0.197   3.922  0.2505  0.2300  0.0821
 9931W        W26779   4.804   9.941  16.134 -0.0715  0.1044  0.3887
 9932W        W26780   1.460  10.430   0.349 -0.0502  0.1726  0.0666
 9933W        W26781   4.097   8.765  15.749  0.1274  0.0069  0.3086
 9934W        W26782  15.030   4.436  15.941 -0.1636 -0.1582 -0.1486
 9935W        W26783   4.476  16.765   2.501 -0.3715  0.2061 -0.2342
 9936W        W26784   6.908   6.492  11.200  0.0544  0.0470  0.4256
 9937W        W26785  13.269  15.552  13.361 -0.0465  0.1079 -0.5168
 9938W        W26786  13.435   9.391   2.904 -0.1558 -0.1911 -0.2416
 9939W        W26787  10.182   2.381   1.622  0.1332  0.1184  0.0605
 9940W        W26788   5.061   5.680   4.492 -0.0186  0.0573 -0.0335
 9941W        W26789   7.768  14.891  14.193 -0.2327  0.4119  0.2880
 9942W        W26790   1.215   3.966   4.856  0.0455  0.2859 -0.0139
 9943W        W26791  12.426  16.165   2.485  0.0511 -0.2479  0.2035
 9944W        W26792   8.887  16.067  13.146 -0.1065  0.3358 -0.0290
 9945W        W26793  12.472   2.895   3.259 -0.2853 -0.0852  0.1971
 9946W        W26794   6.478   4.133  14.868 -0.0255  0.3125 -0.1043
 9947W        W26795   0.300  10.039  15.939 -0.0460 -0.0322 -0.0916
 9948W        W26796  10.333   8.331   5.674 -0.3209 -0.0069  0.2964
 9949W        W26797  16.060   5.152  12.283 -0.1604  0.2243 -0.0636
 9950W        W26798  10.782   2.246   2.177  0.1359  0.2059 -0.1099
 9951W        W26799   0.896  13.172  14.267 -0.2166 -0.4168 -0.0664
 9952W        W26800  10.637  15.213   3.967 -0.0041  0.0640 -0.0354
 9953W        W26801   5.184   0.705  12.044  0.1869  0.1301 -0.0341
 9954W        W26802  13.178  12.431  13.277 -0.0758 -0.1531  0.0945
 9955W        W26803  16.096   8.285  16.896 -0.2465 -0.1877 -0.1988
 9956W        W26804  16.231   8.471   1.830  0.1369 -0.0503  0.0732
 9957W        W26805   5.335   1.690   2.927  0.2681  0.1338 -0.0768
 9958W        W26806   2.298   2.221  11.377  0.1342 -0.3327  0.0488
 9959W        W26807  13.930  14.748  12.177  0.0125 -0.0340 -0.1546
 9960W        W26808   7.740   9.222  14.184 -0.0325  0.3725  0.1273
 9961W        W26809  13.217  11.198   0.215  0.0535 -0.0938  0.0778
 9962W        W26810   3.189  12.777  15.323  0.0587  0.0321 -0.0504
 9963W        W26811  12.737  10.370   3.712  0.0607 -0.1654  0.0691
 9964W        W26812   4.816  13.114  17.823 -0.0947  0.0912  0.1432
 9965W        W26813   5.665  13.681  16.614  0.0030 -0.1856 -0.2654
 9966W        W26814   6.686  15.115   4.510  0.1473  0.1534 -0.0379
 9967W        W26815   2.662   6.587  15.924 -0.2020  0.1799 -0.0122
 9968W        W26816   5.667   5.331   4.982  0.1913  0.0755  0.0552
 9969W        W26817  17.018   6.464  16.020  0.2084  0.0576 -0.1273
 9970W        W26818   4.293   6.868  15.749  0.1121 -0.0588 -0.0908
 9971W        W26819  11.025  15.746   5.456 -0.0210 -0.2090 -0.0628
 9972W        W26820  16.390   3.268  16.766 -0.2341  0.1939 -0.1869
 9973W        W26821   8.756  11.479  17.396  0.0194 -0.3322  0.2125
 9974W        W26822   5.178   4.726   4.196  0.1698  0.0180 -0.0874
 9975W        W26823   1.155  12.985   2.651  0.4231 -0.0752  0.0150
 9976W        W26824  12.342  14.242  14.212  0.0288 -0.1614 -0.1704
 9977W        W26825   6.672   7.393   3.635  0.0131  0.0390 -0.1064
 9978W        W26826  16.116  13.417  15.879  0.3090  0.0618  0.0291
 9979W        W26827   4.385   9.363  17.784 -0.2620 -0.3389 -0.1542
 9980W        W26828   9.754  10.192  12.833 -0.1336 -0.1958 -0.0948
 9981W        W26829   3.973  10.895  12.839  0.1627 -0.0439  0.2737
 9982W        W26830  10.617  15.988   1.509  0.0936  0.0999 -0.1222
 9983W        W26831  10.397   0.530   5.348  0.0220  0.1147  0.1611
 9984W        W26832  16.880   6.629  12.654  0.1492 -0.3632 -0.1072
 9985W        W26833   2.840   5.507   5.612  0.0407  0.0203 -0.1264
 9986W        W26834   0.716  16.817   5.687  0.0215  0.0363  0.2185
 9987W        W26835   5.093   0.486  17.293 -0.1144  0.0326 -0.0448
 9988W        W26836  12.712   3.408  12.142  0.0072  0.1164 -0.1705
 9989W        W26837   4.647   8.958  13.110 -0.1499 -0.0383 -0.0856
 9990W        W26838   8.500   1.396   1.689 -0.1867 -0.2334  0.0342
 9991W        W26839  16.341   9.955  15.521  0.1478 -0.2863  0.2125
 9992W        W26840   8.332  14.534  16.587 -0.0998  0.0355  0.3761
 9993W        W26841   2.710   6.636   0.524  0.2479  0.0924  0.1638
 9994W        W26842   6.104   8.132   4.569 -0.1698  0.0874  0.0644
 9995W        W26843   8.645   1.968  13.220 -0.0957 -0.0214  0.0827
 9996W        W26844   3.286   3.642   0.865  0.2268  0.2442 -0.1252
 9997W        W26845  16.653  10.487  15.557 -0.6588 -0.2104 -0.4009
 9998W        W26846  10.838   7.165  12.708  0.0870 -0.0391  0.1018
 9999W        W26847  14.497   2.102   6.013  0.1383  0.0589  0.0734
10000W        W26848  10.133   2.331   3.590  0.0155  0.1764 -0.2620
10001W        W26849  16.470   1.444   0.016  0.0318  0.1278 -0.0633
10002W        W26850  16.905   9.862  16.147  0.3890  0.2845  0.1349
10003W        W26851  11.025  11.243   0.355 -0.2932  0.0022  0.2537
10004W        W26852   0.783   9.867  16.140  0.0482  0.1040 -0.0093
10005W        W26853  14.311   6.137  16.909 -0.4503  0.1227 -0.0740
10006W        W26854  14.353   2.739  11.889 -0.0800 -0.1422 -0.3172
10007W        W26855   1.599  13.282  16.073 -0.2924 -0.1441  0.1738
10008W        W26856   2.147  14.515  17.358 -0.5044 -0.0131 -0.2342
10009W        W26857   0.478   7.422   4.459 -0.0698 -0.1299  0.0488
10010W        W26858   5.565   3.500   5.697 -0.0140 -0.1017 -0.0522
10011W        W26859   6.935   1.056  16.982 -0.0643  0.1872 -0.0810
10012W        W26860  12.691  12.344   3.185 -0.0470  0.1469  0.1942
10013W        W26861  16.151   7.705   4.589 -0.2638  0.0469  0.1482
10014W        W26862   7.083   1.386  11.862  0.0082  0.0115 -0.0227
10015W        W26863  12.134   8.744   1.623  0.2264 -0.4018  0.1004
10016W        W26864  12.235  12.469   0.445 -0.1186 -0.1480 -0.2173
10017W        W26865  13.575   0.782  17.747 -0.1058 -0.1909  0.1134
10018W        W26866   1.083   7.101   1.739  0.0417 -0.0875  0.1538
10019W        W26867  15.939   9.404   0.775  0.1308 -0.4335  0.1962
10020W        W26868  15.313  15.375   4.102  0.0067  0.1266 -0.0568
10021W        W26869   7.081   7.422  16.151  0.1412  0.3613 -0.1335
10022W        W26870   6.884  10.139   0.482 -0.1841 -0.1281  0.0672
10023W        W26871   3.056   0.940  17.076  0.3177 -0.1059 -0.0141
10024W        W26872   1.067   1.090   3.978 -0.0783  0.2159  0.0779
10025W        W26873  10.224   1.241   3.628 -0.0660 -0.1260 -0.2174
10026W        W26874  10.633   2.962  11.323  0.2189 -0.1299 -0.0695
10027W        W26875   6.849  12.604   4.366 -0.3116 -0.1550  0.0125
10028W        W26876  16.008   3.041   2.518 -0.0401  0.2328 -0.2052
10029W        W26877  12.034  12.328   2.537 -0.0687 -0.2026 -0.0437
10030W        W26878   7.813   8.620   2.342 -0.2073 -0.0614  0.1002
10031W        W26879   7.449  15.421  15.992  0.0607 -0.1152  0.2369
10032W        W26880  15.649  12.159   3.296 -0.1879 -0.2118  0.1406
10033W        W26881  10.265  16.317   1.744  0.0679  0.1925 -0.3427
10034W        W26882   4.915  13.463  14.563  0.0031  0.1878  0.0090
10035W        W26883  10.894   3.403   4.992  0.0883 -0.0229  0.2339
10036W        W26884  13.293   4.619  14.307 -0.1443 -0.0296 -0.2135
10037W        W26885   8.225  15.944  15.132  0.0751 -0.1515  0.2522
10038W        W26886  13.839  16.761   5.090  0.0233  0.0278 -0.2128
10039W        W26887  14.730   0.313   2.173 -0.1767 -0.2725 -0.2016
10040W        W26888   4.103   1.337  12.488 -0.2843 -0.0635  0.2889
10041W        W26889  16.965   5.586  16.905  0.2125  0.0877 -0.3807
10042W        W26890   4.507  16.349   4.301  0.3118  0.3118 -0.0779
10043W        W26891   2.015   3.969  14.957 -0.1004  0.0666  0.4556
10044W        W26892   9.290   6.000  16.299 -0.0889  0.1148 -0.2563
10045W        W26893   9.544   8.802  17.103 -0.0066 -0.2365 -0.3008
10046W        W26894   8.813   9.672   5.314  0.2631 -0.3359 -0.1711
10047W        W26895   5.020  16.887  12.093 -0.0650 -0.1001 -0.0958
10048W        W26896  13.038   5.731   0.989  0.1402  0.1577 -0.1012
10049W        W26897   1.551   2.584   2.447 -0.1732 -0.2166 -0.0124
10050W        W26898  12.873   6.784  13.055 -0.1239  0.0863 -0.1807
10051W        W26899   8.542   8.065  16.029 -0.0444 -0.0473 -0.2497
10052W        W26900   8.703   3.665  13.286 -0.1454  0.0699 -0.1026
10053W        W26901   5.683  10.093  13.112  0.0580  0.0865  0.2430
10054W        W26902   4.214  16.546  14.819 -0.1649  0.1029  0.0808
10055W        W26903  11.617   5.534  15.003 -0.1309 -0.1582 -0.1215
10056W        W26904  10.785  14.943  14.305 -0.2690  0.2103 -0.0309
10057W        W26905   8.470  15.780  14.306  0.0164 -0.1567  0.0259
10058W        W26906   6.821  11.039  16.360  0.1751  0.0869  0.2126
10059W        W26907  13.204   6.884  15.890  0.0937 -0.0317 -0.4251
10060W        W26908  11.869   4.740   2.828 -0.0824 -0.1351  0.1039
10061W        W26909  12.803  15.921  16.425 -0.1156 -0.1106 -0.2818
10062W        W26910  15.368   1.033   2.930  0.1732  0.1382  0.0380
10063W        W26911   2.921   8.336  12.444 -0.2015  0.0440 -0.0506
10064W        W26912  14.943  14.899  15.992 -0.2214 -0.1714  0.2863
10065W        W26913  14.893   7.082   1.855 -0.0899  0.0040  0.1948
10066W        W26914   2.457  10.976   4.603  0.4414 -0.2661  0.0115
10067W        W26915  10.714   4.875  12.988 -0.0492 -0.0127  0.1244
10068W        W26916   2.072   2.239   3.781  0.1777  0.0857 -0.1127
10069W        W26917   0.341   5.962   1.648 -0.5477 -0.3091  0.0269
10070W        W26918  10.082  15.222  15.505  0.1613  0.2578 -0.0984
10071W        W26919   2.573   8.807  16.405 -0.0456  0.1668  0.1869
10072W        W26920  13.067  14.805   1.354 -0.2686 -0.1270  0.0401
10073W        W26921   4.435  16.304   1.728 -0.1849 -0.0954  0.0344
10074W        W26922   3.946   0.086  16.670  0.2979 -0.1329  0.1847
10075W        W26923   9.930   2.545  16.906 -0.0913 -0.0966 -0.0222
10076W        W26924   6.554   0.379  17.270 -0.1732  0.2727  0.0569
10077W        W26925   2.656   5.407   2.940  0.0811  0.2930  0.2374
10078W        W26926  13.821  12.910   5.784  0.0680  0.2863  0.0752
10079W        W26927   4.683   3.286   2.729  0.0720  0.0632 -0.0944
10080W        W26928   3.509  15.360   4.133 -0.1555 -0.4071 -0.0687
10081W        W26929   4.374   7.970   1.579  0.0793 -0.2505  0.3146
10082W        W26930  12.272  13.691   1.366 -0.0212 -0.0778 -0.5654
10083W        W26931  10.413   2.049  16.394 -0.3017  0.1679  0.0519
10084W        W26932  13.778   8.127  15.054  0.0548  0.2033  0.1193
10085W        W26933  16.547   3.629   2.155 -0.0677  0.1809  0.0264
10086W        W26934  12.803  10.933  17.744 -0.0792  0.2316  0.2103
10087W        W26935   3.538  13.695   0.548 -0.1766 -0.0145 -0.0142
10088W        W26936  14.291   9.330  16.493  0.0336 -0.0780 -0.0930
10089W        W26937   1.982  12.397  17.844  0.0801  0.1521  0.2015
10090W        W26938   9.831   5.233   5.539  0.1704  0.0317 -0.1307
10091W        W26939  14.620  12.353   1.921 -0.2902 -0.1426  0.1916
10092W        W26940  15.125  11.182   5.204 -0.3261  0.1654  0.0063
10093W        W26941   1.264  12.354  15.814 -0.0975  0.1840 -0.0648
10094W        W26942   6.403   3.495   2.587  0.1148  0.0660  0.0923
10095W        W26943  14.011  12.271   1.397  0.0068  0.4507  0.1350
10096W        W26944   5.331  15.923   2.695 -0.3963 -0.0435  0.1564
10097W        W26945  11.810   8.225  17.547  0.1161 -0.2881 -0.0106
10098W        W26946  15.512   9.413   1.508  0.0886  0.0483 -0.2173
10099W        W26947   6.594   8.529  15.664  0.0562 -0.0352 -0.3051
10100W        W26948   0.171   1.808   2.714  0.0278  0.1474  0.1443
10101W        W26949   1.537   3.829   0.906  0.0464 -0.1300  0.0351
10102W        W26950   0.166   0.910   2.585  0.1738  0.2271  0.1290
10103W        W26951   1.465  13.519   1.292  0.0497  0.1449 -0.1474
10104W        W26952   6.343   0.825  14.503  0.2654  0.0348  0.0884
10105W        W26953  17.045  10.362   5.006  0.0509 -0.1071  0.0014
10106W        W26954   0.515   2.606   5.593 -0.0151 -0.0546 -0.0906
10107W        W26955  12.885   8.130   2.229  0.0974  0.1692 -0.1205
10108W        W26956  10.910  10.998   2.785  0.2188  0.1266  0.0402
10109W        W26957   4.662  15.156   1.162 -0.0272 -0.2095 -0.1754
10110W        W26958   1.362   0.011  13.180  0.0839 -0.0493  0.3765
10111W        W26959   1.270  15.958   5.485 -0.0768  0.1799 -0.1683
10112W        W26960  13.044  14.959   3.903 -0.2876  0.2291 -0.2052
10113W        W26961   1.881   8.923  15.575 -0.2071  0.1159  0.2827
10114W        W26962  16.566  10.780   2.401  0.2647  0.1126  0.0061
10115W        W26963  15.370   2.591  15.471  0.0178 -0.3797  0.0982
10116W        W26964   8.960  11.780   3.662 -0.0554  0.0373 -0.1401
10117W        W26965   6.313   1.504   0.457  0.0498 -0.0726  0.2289
10118W        W26966   6.619  10.763   1.198 -0.1234  0.1496  0.0033
10119W        W26967   8.107  11.006   2.658 -0.0039  0.6058 -0.0170
10120W        W26968   2.299  13.246   1.149 -0.0485  0.5438  0.1570
10121W        W26969   5.841   0.824   2.962  0.3295 -0.3032 -0.0088
10122W        W26970  13.924   8.707   5.738 -0.2092 -0.0271  0.0081
10123W        W26971   8.033   8.468  12.574 -0.2172 -0.2156  0.1925
10124W        W26972   4.357   4.006  16.509  0.0220  0.0445  0.2003
10125W        W26973   3.478  10.176  12.705  0.2919  0.1745 -0.0313
10126W        W26974   9.155   3.427   4.772 -0.1112 -0.3157 -0.0725
10127W        W26975   3.564   7.136  14.086 -0.4632 -0.2683 -0.2300
10128W        W26976  15.007  15.850   1.622  0.2765  0.2224  0.0267
10129W        W26977  12.343  13.093   1.246 -0.0128 -0.0926 -0.0854
10130W        W26978  11.018  12.039   4.600  0.0671 -0.2023  0.0203
10131W        W26979   0.545  10.010   3.130  0.6207 -0.2133  0.0313
10132W        W26980   4.209  11.404  12.965  0.1663 -0.1090  0.1199
10133W        W26981   8.296  12.601  12.644  0.2093  0.3410 -0.3344
10134W        W26982   2.876   6.966   3.197 -0.0455 -0.0073  0.0121
10135W        W26983   3.777  10.261   2.670 -0.1942  0.1014 -0.0498
10136W        W26984  11.712   8.679  17.684 -0.1578 -0.0720 -0.2556
10137W        W26985  10.212   5.025  16.683 -0.2123 -0.1929  0.0974
10138W        W26986  14.516   6.228   6.198  0.1179 -0.1762 -0.4473
10139W        W26987   5.887  15.839  13.321 -0.0894 -0.0089 -0.1747
10140W        W26988   8.313   3.723   2.720 -0.0555 -0.2787 -0.2505
10141W        W26989  13.774   0.994   2.085  0.1318 -0.1090 -0.0527
10142W        W26990   9.651   5.897   1.501 -0.0306  0.0380  0.4095
10143W        W26991  14.614  15.623   3.458 -0.2573  0.0305 -0.0116
10144W        W26992   5.509  15.520   2.319  0.0477 -0.3522 -0.1627
10145W        W26993  15.843  15.906   3.830 -0.0863  0.1754  0.0290
10146W        W26994  11.563  10.231   0.313  0.1743  0.2126  0.0644
10147W        W26995   9.737   7.020  15.424 -0.0095  0.0148  0.0432
10148W        W26996   4.341  15.963   2.599  0.0042 -0.3061  0.2278
10149W        W26997   4.529  16.910  14.028  0.2366  0.0988 -0.4724
10150W        W26998  16.112   2.302  12.352 -0.1407 -0.1434  0.1049
10151W        W26999   3.268  16.374  14.473  0.2097 -0.0616 -0.1411
10152W        W27000   7.184  11.364   1.139  0.0790 -0.0018 -0.1256
10153W        W27001   5.078   7.065   4.274  0.0496  0.0214  0.3467
10154W        W27002  13.250   7.438  16.088  0.1893  0.2616  0.3859
10155W        W27003   7.160  10.812   3.042 -0.2323  0.1692 -0.1123
10156W        W27004   9.685   2.075   3.496 -0.1046 -0.0597  0.1476
10157W        W27005   3.123  16.827  17.001  0.2199  0.0920  0.1874
10158W        W27006   3.730   8.609  17.069 -0.2863 -0.1614 -0.0068
10159W        W27007  16.687   7.133   4.023 -0.0715  0.0822 -0.1054
10160W        W27008   5.212   7.325   1.520  0.1103 -0.2574 -0.3307
10161W        W27009   1.493   2.291  17.150 -0.0882  0.0724  0.1289
10162W        W27010   8.540  15.352  17.425 -0.0276  0.1489 -0.1886
10163W        W27011  11.770   1.946   0.983  0.0625  0.1477 -0.1622
10164W        W27012   5.618   5.597  17.053 -0.2050  0.1461 -0.2592
10165W        W27013   4.014  16.997   2.378 -0.1404  0.1108 -0.3088
10166W        W27014   0.451   9.051  16.268  0.0099 -0.0739  0.2036
10167W        W27015   2.836   7.889  16.208  0.0144  0.0449  0.0430
10168W        W27016  16.489  13.842   3.858 -0.1416 -0.0015  0.2151
10169W        W27017  16.096   4.361   2.605 -0.1617 -0.2271  0.1996
10170W        W27018  12.962   4.795  12.240  0.0996  0.1258 -0.1366
10171W        W27019   0.851   7.915   5.263  0.1792 -0.2422 -0.0100
10172W        W27020   4.159  10.923   4.988  0.0786 -0.1512 -0.1323
10173W        W27021  13.678   5.131   0.401  0.0361 -0.1541 -0.0239
10174W        W27022   7.802  12.419   2.459 -0.1213  0.0049 -0.0053
10175W        W27023   9.233   6.061   5.185 -0.1033 -0.1305 -0.0615
10176W        W27024   8.270   6.769  17.653 -0.1908  0.4025 -0.3104
10177W        W27025  12.839   9.026   4.376  0.0196 -0.0524  0.0062
10178W        W27026   1.789   3.188  12.696  0.0431  0.0308  0.1121
10179W        W27027  14.148  15.158   4.820  0.2531  0.0127  0.2604
10180W        W27028  11.294   0.464   0.304 -0.0416  0.0933 -0.2682
10181W        W27029   2.627  16.462   0.434  0.1046  0.0185 -0.1703
10182W        W27030  10.893   3.455   0.585  0.1391 -0.0744 -0.0325
10183W        W27031  15.505  12.927   0.413 -0.1581 -0.1724  0.1701
10184W        W27032  12.393   1.801  15.014  0.0618 -0.0554  0.1283
10185W        W27033   1.014   4.034  12.345 -0.0085  0.1748  0.2002
10186W        W27034   4.643  16.109   2.178  0.0995 -0.2653 -0.0977
10187W        W27035   3.178   7.315   5.785  0.3660 -0.3821 -0.0568
10188W        W27036  16.206   8.314  11.991 -0.2348  0.0327  0.3060
10189W        W27037   4.500  12.813  17.506  0.2381 -0.0793  0.0800
10190W        W27038   2.005  11.928  17.054 -0.0036  0.1110  0.0687
10191W        W27039  16.047  14.567  11.488  0.2744  0.0161 -0.0426
10192W        W27040   5.056  16.191   1.106  0.1029 -0.2261  0.4440
10193W        W27041   0.769   0.190  14.897 -0.0747  0.3082  0.1189
10194W        W27042   5.843   6.556  12.909 -0.1704  0.1068  0.1283
10195W        W27043  12.005  10.402   2.359  0.0963  0.1257  0.2801
10196W        W27044   1.770   2.769  17.478 -0.2338  0.1841  0.0345
10197W        W27045  10.219   0.813   0.816  0.2402 -0.1963 -0.0568
10198W        W27046   4.964  15.550   3.824  0.1476  0.1921  0.3780
10199W        W27047  16.126   2.843  17.759  0.2354  0.0144 -0.2043
10200W        W27048  11.124  13.770   5.507  0.2187 -0.1847 -0.0250
10201W        W27049  16.356   3.964   2.853 -0.3250 -0.0595  0.3085
10202W        W27050   9.586  16.354  16.049  0.1635 -0.2578  0.2149
10203W        W27051   7.571   3.966   1.019 -0.1453  0.1147  0.2271
10204W        W27052   7.896   9.705  16.940 -0.0149 -0.3494 -0.0935
10205W        W27053   6.185  15.521   4.319 -0.0401  0.0023 -0.1098
10206W        W27054   2.697  13.344   3.652 -0.3067 -0.0154 -0.3530
10207W        W27055  11.775  13.584   0.722  0.1242 -0.0054  0.0135
10208W        W27056   8.385   0.128   0.957  0.3108 -0.2615  0.0542
10209W        W27057   3.975   8.272   2.908  0.0724  0.1730 -0.2281
10210W        W27058   0.782  15.346  13.351 -0.1282  0.4153 -0.1023
10211W        W27059  10.677  16.686   2.661  0.1838 -0.1545 -0.0950
10212W        W27060   4.851  14.030   3.728  0.0171 -0.2190 -0.2324
10213W        W27061   8.790  13.086  14.324 -0.2237 -0.1596  0.1758
10214W        W27062   6.127  15.516  16.637  0.2662  0.0739  0.2209
10215W        W27063  13.012  11.687   1.713 -0.0776 -0.2406 -0.0164
10216W        W27064  15.550   7.760   0.909  0.0318 -0.2829  0.1892
10217W        W27065   7.520  10.841  14.814 -0.1926  0.0092  0.2136
10218W        W27066   9.975   2.041   0.211  0.0157  0.1146  0.2912
10219W        W27067   5.820  11.579  17.268 -0.2825 -0.0851 -0.0167
10220W        W27068   3.322  11.531   2.763 -0.0748  0.0507 -0.4524
10221W        W27069   0.197  14.655  14.019  0.0012  0.2682  0.1042
10222W        W27070  14.650   7.136   0.721  0.1083 -0.0940 -0.1424
10223W        W27071   1.964   8.200  11.745 -0.0176 -0.3671 -0.4009
10224W        W27072   1.940  10.224   0.250  0.1192  0.0904 -0.2423
10225W        W27073   4.743   1.524   4.421  0.1032 -0.1554 -0.0678
10226W        W27074   5.837   3.930  16.526 -0.3245 -0.0074  0.1306
10227W        W27075   1.814   5.473  15.575  0.1390 -0.3146  0.0172
10228W        W27076  15.578  11.011  17.044  0.1871 -0.0970 -0.2227
10229W        W27077  16.702   9.448   1.508  0.0313  0.0628  0.0026
10230W        W27078   9.823  11.722   3.898 -0.0151 -0.1037 -0.1825
10231W        W27079   7.043  13.631   5.459 -0.0295  0.0069  0.2555
10232W        W27080   9.525  14.842  11.351 -0.4928  0.0801  0.3618
10233W        W27081   2.868   9.293   1.163  0.3547  0.0698 -0.1730
10234W        W27082   3.541   3.976  12.406  0.0652 -0.0645  0.1788
10235W        W27083   5.330   9.189   1.893  0.0921  0.1450 -0.0356
10236W        W27084  13.256  11.563   2.653  0.3118  0.1899 -0.1267
10237W        W27085   9.029   9.326   2.995  0.2008  0.2129  0.1403
10238W        W27086   2.893  14.512  16.050  0.1383  0.2205 -0.0912
10239W        W27087  11.423   6.574   2.817  0.0170 -0.0499  0.0224
10240W        W27088  12.218   1.452  12.694  0.3168  0.0773  0.0596
10241W        W27089  14.257   8.270   5.903  0.0389 -0.0938 -0.2868
10242W        W27090   8.414   6.461  15.615 -0.0428 -0.0318 -0.1614
10243W        W27091   1.947   5.895   5.297 -0.0951  0.2572  0.1077
10244W        W27092  14.031   5.937  17.253 -0.3379 -0.3349  0.3942
10245W        W27093  12.189  10.204  16.857  0.1700  0.1146 -0.2401
10246W        W27094   8.191  12.172  14.509  0.2555  0.2206  0.1669
10247W        W27095  13.893   5.765  13.564 -0.0910 -0.0531 -0.0308
10248W        W27096  16.405  10.566   5.146 -0.2033  0.3649 -0.0115
10249W        W27097  16.637  10.538   3.864 -0.0783  0.1623  0.1273
10250W        W27098   4.848  11.328   3.189 -0.0294 -0.0861  0.0343
10251W        W27099  12.258  11.070  14.266 -0.1806 -0.2208  0.0123
10252W        W27100  13.363  14.811  17.141  0.1168  0.0651 -0.2374
10253W        W27101  14.458   7.361  16.270 -0.0959  0.0361 -0.0510
10254W        W27102   8.196  11.548  17.290 -0.0835 -0.1377  0.3353
10255W        W27103  10.525   2.253   5.405 -0.0604  0.1883 -0.3398
10256W        W27104  13.239  15.244  14.561  0.3270  0.2938  0.0338
10257W        W27105  15.144   4.289  13.540 -0.1655  0.0606 -0.0668
10258W        W27106   9.296  15.230   2.689  0.1680  0.1711 -0.0652
10259W        W27107  11.880   3.269  14.203 -0.0344  0.0110 -0.2523
10260W        W27108  11.538   1.625   2.871 -0.1499 -0.1420 -0.0430
10261W        W27109  16.410   7.719  13.010  0.2246  0.1557 -0.1189
10262W        W27110  16.199  16.167  14.105  0.3102 -0.1420 -0.0827
10263W        W27111   5.684   2.001  17.491 -0.0347  0.2455  0.1097
10264W        W27112   3.958   5.692  16.547 -0.3848 -0.0994  0.0905
10265W        W27113  12.508   8.376   1.372  0.1594 -0.0028 -0.0182
10266W        W27114   1.532   2.350  16.105 -0.0933  0.0911  0.1074
10267W        W27115   9.065   7.435   4.912 -0.0988 -0.0657  0.0956
10268W        W27116   9.101  12.811   1.957  0.0934 -0.0331  0.0589
10269W        W27117   1.220   7.520   4.049 -0.1329 -0.2433  0.0767
10270W        W27118   4.310  14.205   5.433  0.2935 -0.0406  0.1940
10271W        W27119   9.216   5.706   1.722  0.0733  0.1964 -0.1980
10272W        W27120  14.112  13.630   0.916  0.1132 -0.0462 -0.1626
10273W        W27121  11.323  16.324   1.619 -0.0537 -0.2939  0.1999
10274W        W27122   1.026   3.296   4.906 -0.3266  0.1871  0.1074
10275W        W27123  15.865   9.685   3.637  0.2798 -0.2004 -0.1425
10276W        W27124  12.989   6.077   2.606 -0.2350 -0.1136  0.1287
10277W        W27125   8.809   4.242  12.023 -0.1642 -0.2100 -0.1347
10278W        W27126  14.552   1.494   4.287  0.3304 -0.0264  0.0901
10279W        W27127   8.655   2.471  15.631 -0.1683  0.2129 -0.1073
10280W        W27128  12.187   9.888  12.586  0.2307  0.1440 -0.1847
10281W        W27129   1.687   8.896   5.405 -0.1300  0.0922 -0.1350
10282W        W27130   4.308   7.555   0.774  0.0772 -0.2463  0.2371
10283W        W27131  14.496   9.405   5.676  0.1981 -0.1129 -0.1010
10284W        W27132  12.245   0.379  17.527 -0.4686 -0.0019 -0.0545
10285W        W27133   3.312   1.718  14.030 -0.1559  0.2942  0.0735
10286W        W27134  15.538   9.640   2.060 -0.1011  0.2251  0.0032
10287W        W27135   0.098   3.670   3.440 -0.2529  0.0801  0.2440
10288W        W27136   2.357   2.589  13.556 -0.1908 -0.0270  0.0864
10289W        W27137   8.581   9.601   2.965 -0.0362 -0.0597  0.0327
10290W        W27138   5.428  13.528  17.630  0.1829 -0.3282  0.0069
10291W        W27139   7.996   8.058  12.195  0.1213  0.2037  0.0030
10292W        W27140  13.628   9.168   1.107  0.1400 -0.2557 -0.0928
10293W        W27141   3.774   3.713   3.621 -0.2124  0.1451 -0.1490
10294W        W27142  10.674  10.851   0.245 -0.0156  0.0766  0.1711
10295W        W27143   7.034   2.351   4.259 -0.1095 -0.1065  0.2059
10296W        W27144  12.097   4.880   0.727  0.1145 -0.1133 -0.1416
10297W        W27145  10.371   7.670   5.595  0.0133 -0.2170  0.1623
10298W        W27146   9.186   3.701   2.654  0.0137 -0.2517  0.0054
10299W        W27147  12.573   6.914  14.271 -0.2476  0.0083 -0.1746
10300W        W27148   6.131   6.229   2.974  0.1355  0.3075 -0.1951
10301W        W27149   2.810   4.489   4.202  0.0769  0.2499  0.0226
10302W        W27150  14.642   8.898  14.208 -0.2882 -0.1307 -0.0944
10303W        W27151  14.066   6.279   4.110 -0.1924  0.2960 -0.0680
10304W        W27152   6.843   4.977  16.589 -0.2031 -0.1212  0.1900
10305W        W27153  13.465   6.663  17.229  0.0195 -0.3149  0.0217
10306W        W27154   3.944   0.222   1.272 -0.0665 -0.0539  0.3387
10307W        W27155  13.364   0.546  16.811  0.1769  0.1545 -0.1102
10308W        W27156   0.266  10.774   5.106 -0.0001 -0.2221 -0.2018
10309W        W27157  10.857   4.497   0.959  0.2436  0.1145 -0.0526
10310W        W27158  15.293  12.467  14.029  0.1926 -0.0882 -0.0499
10311W        W27159   9.027  13.171  12.260 -0.2656  0.2947 -0.4856
10312W        W27160   6.114   0.924   1.259 -0.2644 -0.0627 -0.1413
10313W        W27161   9.792   0.928   1.260  0.1528 -0.2481 -0.2407
10314W        W27162   4.983   9.120  15.920 -0.1955 -0.0215  0.0319
10315W        W27163  11.700   0.577   4.485 -0.4399  0.0931  0.0874
10316W        W27164  11.294  14.776   4.722  0.1330 -0.1746 -0.0779
10317W        W27165  10.814   4.702   3.093  0.0019  0.0613  0.1295
10318W        W27166  10.813   2.466  15.771  0.0524  0.2957 -0.2770
10319W        W27167  15.358   9.810   1.204 -0.2844  0.1072 -0.2242
10320W        W27168   0.475  12.933   3.323  0.4172 -0.0646  0.2971
10321W        W27169  10.289   4.357  16.191 -0.1774 -0.2052 -0.0904
10322W        W27170   6.533  10.654   1.760  0.1144 -0.2687  0.4611
10323W        W27171   3.100   2.474   1.371 -0.0065 -0.1712  0.2587
10324W        W27172   8.854   3.874   4.486 -0.0624  0.0142 -0.2118
10325W        W27173   2.886   8.996   0.709  0.0042  0.0889  0.2565
10326W        W27174  12.271   7.248   4.264  0.1662 -0.3638  0.2498
10327W        W27175  11.161  16.783   4.894 -0.0543  0.0153  0.0390
10328W        W27176   8.525   6.892   1.953  0.0721 -0.3675 -0.1325
10329W        W27177   2.389  14.384  16.002 -0.2963 -0.1335 -0.2730
10330W        W27178   3.906   4.342  17.064  0.1489  0.2116 -0.0152
10331W        W27179  12.634  15.456  16.664 -0.0255  0.0552  0.2842
10332W        W27180  13.984   4.230   2.623 -0.0240 -0.0965  0.3040
10333W        W27181   7.447   1.647  13.265  0.1392  0.0955  0.2091
10334W        W27182  16.375   6.283  14.727 -0.1219  0.0480 -0.2712
10335W        W27183   5.310   3.068  17.602 -0.0085 -0.1001  0.0494
10336W        W27184   3.983  13.058  13.378 -0.0080  0.0621  0.2400
10337W        W27185   7.864   4.559   2.323  0.2152  0.1794 -0.1353
10338W        W27186   2.867   4.325  15.289 -0.2642  0.0116  0.0717
10339W        W27187  12.316  11.235   5.192  0.0491  0.3581 -0.0807
10340W        W27188   4.211  13.228  17.601  0.0184  0.0341  0.2336
10341W        W27189  14.586   9.788  14.101 -0.1430  0.2779 -0.1490
10342W        W27190   1.218   0.762  12.688 -0.3136 -0.0064 -0.1327
10343W        W27191   8.826   5.705   0.318 -0.1758 -0.0446 -0.0961
10344W        W27192   2.077   7.728   1.863 -0.1962  0.2465  0.2783
10345W        W27193   8.256   4.333   2.041  0.0403 -0.0976 -0.2092
10346W        W27194   8.587  15.708   4.828  0.0588 -0.1252  0.0432
10347W        W27195   9.523   6.674  13.284 -0.1336 -0.0959  0.3084
10348W        W27196  14.776   2.593   5.301 -0.0204 -0.0697  0.2539
10349W        W27197   8.440   6.411   0.292  0.1017  0.0753 -0.1670
10350W        W27198   4.087  16.793  15.804 -0.1949  0.3269  0.4086
10351W        W27199   5.291  12.635   2.930 -0.2226  0.0124  0.1693
10352W        W27200   0.297  11.867  15.275 -0.0754  0.1214 -0.0729
10353W        W27201   0.583   9.110   1.000 -0.2388  0.2021 -0.1324
10354W        W27202   2.932  12.268   0.700 -0.1057 -0.1501 -0.3288
10355W        W27203   7.504  15.905  15.605 -0.1020  0.1715  0.2596
10356W        W27204   7.077  11.910  13.360 -0.1929 -0.0765  0.1677
10357W        W27205  10.794  10.414  17.735  0.0401 -0.0107 -0.1695
10358W        W27206  16.591  11.904  12.560 -0.1115  0.0931 -0.1704
10359W        W27207   9.626   3.252  16.791  0.2291 -0.1570  0.1012
10360W        W27208   5.888  11.110  13.391  0.3334 -0.0224  0.0948
10361W        W27209   4.672   4.050   3.296  0.2138 -0.0565 -0.1272
10362W        W27210  16.332   2.399  14.342  0.4097 -0.0022 -0.0595
10363W        W27211  16.899  10.181   3.660 -0.4218  0.1656  0.2618
10364W        W27212   5.713  10.245  15.982  0.3130  0.1575  0.1951
10365W        W27213  14.062   4.445  15.986  0.0528  0.2240  0.2026
10366W        W27214   2.028   3.217   2.138  0.0035  0.4043 -0.0952
10367W        W27215   7.213   3.640  15.715 -0.3806 -0.0982 -0.0592
10368W        W27216  15.923   9.626  17.027 -0.0736  0.0451  0.0223
10369W        W27217   5.191   3.818   5.631  0.0879 -0.3115 -0.1136
10370W        W27218   7.658   2.151  13.330  0.1139 -0.1382 -0.2488
10371W        W27219  12.937   6.579   2.313  0.1009 -0.1320  0.2233
10372W        W27220  14.598   9.350   0.238  0.1122  0.2232  0.4641
10373W        W27221   3.277  16.327   3.068  0.1596 -0.0210  0.1270
10374W        W27222  12.010  11.017  11.671 -0.1060  0.1060 -0.0477
10375W        W27223   0.752  17.001  15.317 -0.0794  0.0038 -0.0697
10376W        W27224   7.684   1.217   6.107  0.1119  0.1103  0.4903
10377W        W27225   6.748  11.299   0.467 -0.0219 -0.1979  0.3158
10378W        W27226   8.000   6.982   0.245  0.1038 -0.1046 -0.0181
10379W        W27227  13.545   1.004  11.736 -0.1131 -0.1059 -0.0954
10380W        W27228   1.437   6.205   4.062 -0.3246 -0.1417  0.0937
10381W        W27229   3.501  12.600   3.636  0.0075 -0.2040  0.1067
10382W        W27230   5.728  16.000   2.302 -0.1173  0.1653  0.0809
10383W        W27231  13.112  14.338   3.371 -0.1893  0.1358 -0.0003
10384W        W27232   2.734   9.838   5.589 -0.0975  0.0107  0.0973
10385W        W27233  13.034   7.647   1.877  0.1133 -0.2117 -0.3690
10386W        W27234  13.443   4.013  17.370  0.2366 -0.1947  0.1526
10387W        W27235   7.148  11.056  13.917  0.0435  0.0446  0.0567
10388W        W27236  11.317  17.054  14.396 -0.0824 -0.3551 -0.0455
10389W        W27237   8.223   1.178   5.159 -0.1027  0.2448  0.0349
10390W        W27238   6.444   4.769   0.423 -0.0665 -0.0534 -0.2172
10391W        W27239  16.812   8.650   4.511 -0.0448  0.1464 -0.0017
10392W        W27240   8.844  14.435   4.941 -0.1116  0.1674  0.1264
10393W        W27241   7.008   1.576  15.431  0.0913 -0.0178 -0.1683
10394W        W27242   6.692   0.846  13.364 -0.1135 -0.5727  0.1289
10395W        W27243  10.905   1.429   4.499  0.0367  0.1049 -0.0242
10396W        W27244  12.074   1.275   3.983 -0.0841 -0.1844  0.1754
10397W        W27245   7.495  11.160  14.256 -0.3917 -0.0200 -0.2685
10398W        W27246   2.167   3.355  17.330 -0.0904  0.5523 -0.1169
10399W        W27247   4.705   4.159   4.513  0.1808 -0.2037 -0.2789
10400W        W27248  10.025   2.415  13.692  0.0177 -0.1038 -0.0046
10401W        W27249   9.536  15.728  17.788  0.1728 -0.0742 -0.0206
10402W        W27250  11.335  10.879   3.618 -0.2399  0.1277  0.0549
10403W        W27251   2.938  17.026  15.792 -0.0010 -0.3789  0.4235
10404W        W27252   0.996   6.908   3.560 -0.1599 -0.0233  0.0840
10405W        W27253   1.331  16.051  15.525 -0.1292 -0.1516  0.0669
10406W        W27254  13.863   1.939  12.977 -0.0225 -0.1377 -0.0826
10407W        W27255  15.981   8.120   0.076  0.0395  0.0813  0.1116
10408W        W27256   4.974   9.419  17.790  0.2619  0.0314 -0.3020
10409W        W27257   7.603  14.311  14.103  0.0886  0.0932 -0.2618
10410W        W27258  10.421   0.975   5.027 -0.0050  0.0635  0.2629
10411W        W27259   6.143   0.149   3.821 -0.0512  0.3990 -0.1643
10412W        W27260   3.756  14.433   2.753 -0.0686 -0.1060 -0.1956
10413W        W27261  12.589  13.354   2.690 -0.1299  0.0908  0.3307
10414W        W27262   6.114  10.677  13.482 -0.1719 -0.1341  0.0275
10415W        W27263  14.458   7.889   3.433  0.0439 -0.1025 -0.0806
10416W        W27264  11.432  10.488   3.333  0.0476  0.1589 -0.0946
10417W        W27265  11.164   3.775   3.846 -0.0418  0.0251 -0.1029
10418W        W27266   6.268  15.852   2.317 -0.0820 -0.3451  0.0801
10419W        W27267   0.563   6.708   2.703 -0.1333 -0.1634 -0.2042
10420W        W27268  16.116   6.487   3.521  0.3112 -0.2575 -0.1571
10421W        W27269   9.589  14.531  12.522  0.0333 -0.1503 -0.2460
10422W        W27270   6.369  15.513   3.614 -0.3830  0.1799  0.0107
10423W        W27271   2.969  12.689   4.450 -0.0230  0.1727  0.0688
10424W        W27272  11.300   2.287  14.180 -0.2762  0.2041 -0.0145
10425W        W27273   5.998  12.694   4.826 -0.0642  0.0921  0.2145
10426W        W27274   4.568  14.771  11.602 -0.2204  0.2557  0.1377
10427W        W27275   3.178   3.866   1.256  0.1303  0.0508  0.3405
10428W        W27276   0.173   6.738  17.287 -0.0256 -0.1009  0.0104
10429W        W27277   8.613  10.609  15.631 -0.1473 -0.0980 -0.1273
10430W        W27278   9.345   1.430   1.526  0.1469 -0.0017  0.1941
10431W        W27279   6.391   9.676   3.716  0.0889  0.1560 -0.1326
10432W        W27280   0.151   5.555  16.059 -0.2275 -0.0478 -0.1423
10433W        W27281  14.035   5.652  14.061 -0.1495  0.2723 -0.3116
10434W        W27282   0.947   6.110   3.796  0.3389  0.0419  0.0415
10435W        W27283   4.824  11.730  14.986  0.0315 -0.0018  0.0376
10436W        W27284  15.099   3.704   5.118 -0.1935  0.2399  0.0837
10437W        W27285  12.384  13.362  15.309  0.1968  0.0254 -0.2220
10438W        W27286  15.340  14.377   3.054  0.1404 -0.0990  0.1187
10439W        W27287   0.760   1.525  13.620  0.0924  0.1518  0.1673
10440W        W27288   0.265   2.496  15.611 -0.1787 -0.2728 -0.1305
10441W        W27289   1.755  15.181   3.547 -0.1480 -0.0886  0.0523
10442W        W27290  13.261  11.901  15.626 -0.1425  0.1678  0.1102
10443W        W27291   2.496  13.098  15.779 -0.0706  0.5180 -0.0397
10444W        W27292  14.776   2.747  13.778  0.4265 -0.3188  0.2745
10445W        W27293   9.556  10.971  16.270 -0.0664 -0.1255 -0.0816
10446W        W27294   5.330  10.124   0.669  0.1817 -0.0153 -0.0032
10447W        W27295   0.420   6.911   6.188  0.1918 -0.1640  0.3184
10448W        W27296  15.044  13.720   5.460 -0.0492  0.2449 -0.1894
10449W        W27297  16.498  10.820   2.995  0.0755 -0.0754  0.1282
10450W        W27298  12.940   1.531  17.032  0.3330  0.1271 -0.0123
10451W        W27299  10.627   4.728   1.842 -0.0505 -0.1992 -0.0644
10452W        W27300   3.826   2.964  13.628  0.0328 -0.0365 -0.1594
10453W        W27301   1.295   5.283   5.129  0.0980 -0.0903  0.0648
10454W        W27302   4.108   1.758  16.433  0.1544 -0.1818  0.3873
10455W        W27303  11.210   9.903  15.700  0.0094 -0.2927 -0.0669
10456W        W27304  13.630   5.264  15.366  0.1285  0.0547 -0.0854
10457W        W27305  11.060   7.244   0.536  0.0034  0.1520 -0.0249
10458W        W27306   6.279   0.681  17.583  0.4174  0.0177 -0.0185
10459W        W27307  16.137   7.942   1.819  0.1050 -0.1331  0.1118
10460W        W27308  16.068   7.918  16.480  0.0677 -0.1068 -0.3757
10461W        W27309   6.270   6.950   2.296  0.1027  0.3376 -0.0093
10462W        W27310  10.368  10.860  17.200 -0.2855 -0.3971  0.0598
10463W        W27311  14.301  16.798  17.141  0.1552  0.1620 -0.1031
10464W        W27312   4.655   7.148   2.043  0.2306  0.1041 -0.0291
10465W        W27313   6.148   8.945   3.174  0.2797 -0.1195  0.0656
10466W        W27314   8.098   4.845   3.863 -0.0964  0.1529 -0.1542
10467W        W27315   0.920  10.082   0.244  0.0331  0.0320 -0.1306
10468W        W27316  14.358  14.214  13.776  0.1849  0.4052  0.2438
10469W        W27317   5.612   9.271   4.943 -0.2811 -0.3593 -0.2565
10470W        W27318  16.306   4.657   1.725  0.0105  0.2105 -0.0660
10471W        W27319  11.782   5.238  14.082 -0.0682  0.4371 -0.0910
10472W        W27320   6.459  12.309  14.402  0.0417  0.0660  0.0418
10473W        W27321  12.187   1.035   5.045  0.0126 -0.2630 -0.0659
10474W        W27322   2.260  14.911   3.493 -0.0776  0.3273 -0.1905
10475W        W27323   9.157   2.458   1.451  0.1259 -0.1253 -0.0957
10476W        W27324  15.586   0.922  15.412 -0.0362 -0.0564 -0.2970
10477W        W27325   5.467   2.136   2.661 -0.2319 -0.0807  0.4229
10478W        W27326   4.411  15.127   4.001  0.0508  0.0192 -0.2487
10479W        W27327  12.031   5.380   0.820 -0.0584 -0.3990  0.4449
10480W        W27328  12.076  16.717   3.609  0.0856  0.0151 -0.2068
10481W        W27329   8.873  15.331   2.350 -0.0563 -0.0774  0.0996
10482W        W27330   6.288   9.128  12.726  0.0125  0.0552  0.1391
10483W        W27331   2.891  16.343   2.681  0.0380 -0.2709 -0.0671
10484W        W27332   5.130   7.633   4.119  0.0887  0.1888  0.0296
10485W        W27333  11.339   8.099   0.746 -0.0175 -0.1708  0.2486
10486W        W27334   1.745  15.980   1.912  0.0805  0.1117  0.3157
10487W        W27335  11.595   6.957   5.503 -0.1816  0.2168 -0.2771
10488W        W27336  11.659  15.385   3.948  0.0674  0.0175 -0.1042
10489W        W27337  13.902   8.093   2.656  0.2482  0.1222  0.1903
10490W        W27338   9.998   1.444   4.035 -0.0679  0.2533  0.1685
10491W        W27339   5.518  12.161  14.705  0.0785  0.1007 -0.0835
10492W        W27340  14.745  15.334  14.464  0.1146 -0.2935 -0.3022
10493W        W27341  10.000   0.044   2.988 -0.1315 -0.2774 -0.0452
10494W        W27342  16.273   2.758   4.828  0.0706 -0.1263 -0.2885
10495W        W27343   4.465  11.238   4.363 -0.1120 -0.0891 -0.1481
10496W        W27344   0.571   8.979   5.258  0.0318  0.0373 -0.1442
10497W        W27345   2.762   6.994  16.206  0.3005  0.0582  0.2822
10498W        W27346   3.291  13.181   6.560 -0.1980  0.2462 -0.0264
10499W        W27347   3.336   1.971   1.106 -0.0686  0.0071  0.1206
10500W        W27348   9.445   2.319   2.058 -0.1220  0.0748 -0.0019
10501W        W27349  15.301  13.667  16.901 -0.2754  0.0601  0.2080
10502W        W27350  12.215   9.150   5.626  0.0820  0.0992 -0.3051
10503W        W27351   7.541   7.697   1.203 -0.1866 -0.0295  0.3267
10504W        W27352   3.005  11.791   0.480  0.0820 -0.3566 -0.2631
10505W        W27353   4.950  15.291   0.738  0.3590 -0.1721  0.0594
10506W        W27354   2.570   4.551   4.664 -0.1389  0.0740 -0.1680
10507W        W27355  11.649   3.334   5.223 -0.2617  0.2859  0.0748
10508W        W27356   3.589   6.261  15.531  0.0506  0.1741  0.2567
10509W        W27357  11.722   9.427   5.734 -0.0193  0.3223 -0.1362
10510W        W27358   4.576   5.867   2.929  0.1119  0.1463 -0.2978
10511W        W27359   9.642   9.512   0.495 -0.0291  0.0578 -0.0254
10512W        W27360   2.317   1.160  12.126 -0.0571  0.1709  0.1324
10513W        W27361  13.684  12.323  16.933 -0.0276 -0.0992 -0.0870
10514W        W27362  12.904   6.021  14.451  0.1142  0.0519  0.1027
10515W        W27363  10.365  11.817   5.009 -0.2652  0.1135  0.2046
10516W        W27364  10.464   1.821   3.013  0.2959 -0.4639  0.1772
10517W        W27365   1.008   6.403   2.600  0.0541 -0.0430  0.2577
10518W        W27366   8.988   4.819  17.820  0.0446 -0.2100  0.0931
10519W        W27367   8.520  14.158   0.082 -0.0495 -0.1110 -0.2069
10520W        W27368  15.262   3.582  17.352 -0.1553  0.1110 -0.0172
10521W        W27369   1.564   4.475   1.420 -0.2522  0.3012 -0.1493
10522W        W27370   8.885   4.219   4.066  0.1790 -0.0275 -0.1138
10523W        W27371  13.927   2.981  11.967 -0.1362  0.2007 -0.2300
10524W        W27372   9.526  12.147   0.528 -0.2259 -0.1618  0.4199
10525W        W27373   4.943  16.527  13.540 -0.2172  0.0983  0.1994
10526W        W27374  15.090   3.191  12.080  0.1605  0.0802 -0.1599
10527W        W27375  11.518  11.678   3.307 -0.6457 -0.2621 -0.1899
10528W        W27376  10.897   1.334  14.546  0.0842  0.2032  0.0091
10529W        W27377   6.657  11.424  14.995  0.2113 -0.2154 -0.0934
10530W        W27378  13.125   4.004  15.704 -0.0591 -0.1935 -0.1321
10531W        W27379  14.901   7.167  16.917  0.3113  0.2351 -0.4658
10532W        W27380  14.186   1.518   4.758 -0.3693  0.1621 -0.2414
10533W        W27381  15.704  11.711  14.063 -0.1203  0.1498 -0.1967
10534W        W27382  13.893   7.648   1.827 -0.0176  0.2558 -0.3045
10535W        W27383  10.632   4.178   5.409 -0.0556 -0.0030 -0.0104
10536W        W27384   7.031   8.760  14.956  0.0078 -0.0546  0.0716
10537W        W27385   6.196   7.191   0.964 -0.0631 -0.1459 -0.0677
10538W        W27386   1.717  16.279  15.219 -0.0840  0.0681 -0.0596
10539W        W27387   0.525  11.401  13.169 -0.0367  0.0070  0.1242
10540W        W27388  11.415   8.994   3.131  0.1972  0.1259  0.2062
10541W        W27389   6.528  14.057   4.224 -0.1357 -0.1778 -0.0745
10542W        W27390   8.130   9.535  14.125 -0.1213  0.1496  0.0429
10543W        W27391  10.917  16.883   5.342 -0.2968  0.0894  0.1813
10544W        W27392  10.265  16.222   4.957  0.0372  0.2421  0.0002
10545W        W27393   3.004   9.952  16.033  0.0167 -0.1561 -0.2455
10546W        W27394  10.869  13.406  12.560  0.2449  0.0697  0.0490
10547W        W27395   8.462  13.127   5.863  0.3162  0.0303  0.2009
10548W        W27396   7.898  12.115   4.759  0.0980  0.1914 -0.0874
10549W        W27397  13.199   0.087  16.348  0.2361  0.1198  0.0186
10550W        W27398   7.766   4.211   2.001  0.2147  0.0405 -0.0617
10551W        W27399   6.684  11.094  12.118 -0.0721 -0.0106 -0.0596
10552W        W27400   5.880   4.521   3.154  0.1349 -0.1115  0.1933
10553W        W27401   9.502   9.673   0.932  0.3697 -0.2918 -0.2467
10554W        W27402  12.247  14.661  16.227 -0.1909 -0.1198  0.0764
10555W        W27403   4.348   0.697   0.997 -0.1597  0.0532 -0.0290
10556W        W27404   8.070   8.845   2.687 -0.0605 -0.1048 -0.1046
10557W        W27405   1.335  10.395   4.177  0.1715 -0.1295  0.1071
10558W        W27406   3.354   2.772  14.398  0.2306  0.0890  0.3376
10559W        W27407   1.024   2.192  17.337 -0.4474  0.1858  0.3595
10560W        W27408   7.579   9.907  17.257 -0.2448 -0.0442  0.1088
10561W        W27409   6.401   6.433   5.543  0.0091  0.1033  0.0487
10562W        W27410  10.796  16.797   4.002  0.2517  0.0128 -0.1021
10563W        W27411   7.831  13.564  16.816  0.0927  0.0288  0.0833
10564W        W27412   3.779  15.872  15.026 -0.0694  0.1722 -0.0119
10565W        W27413   4.058  16.565  16.647  0.0448 -0.2637 -0.1215
10566W        W27414   3.296  16.862  11.730  0.0231  0.0877  0.2378
10567W        W27415   3.492  16.639  17.481  0.2482  0.1261  0.0210
10568W        W27416   0.069  12.768   0.698  0.2319 -0.1006  0.1619
10569W        W27417  13.519   6.838   4.764  0.0285 -0.0060  0.0565
10570W        W27418  14.832   3.494  15.171 -0.0169 -0.1346 -0.2455
10571W        W27419  13.822   2.425   5.770  0.0140  0.1722  0.0540
10572W        W27420   5.714   7.909   4.826  0.0369 -0.0195 -0.3045
10573W        W27421   8.307   5.185  15.615 -0.0774 -0.0158 -0.2837
10574W        W27422  13.281   0.076  12.144  0.1199 -0.2340 -0.1877
10575W        W27423  13.824   8.689   5.136  0.0233  0.3019 -0.0587
10576W        W27424   4.293   9.198  14.387  0.0074 -0.2275  0.0043
10577W        W27425   7.959  15.683   1.119 -0.1284  0.1282  0.0234
10578W        W27426   2.487  15.853  12.812  0.4690  0.0076  0.1820
10579W        W27427  14.918   7.108   3.320 -0.1039 -0.1825  0.1491
10580W        W27428   7.394   0.225   1.930 -0.4823 -0.0248  0.0802
10581W        W27429   0.958   8.509   3.143  0.0935  0.2033 -0.0386
10582W        W27430   2.320   0.074  14.083 -0.3300  0.2550  0.1373
10583W        W27431  17.067   5.995  14.629 -0.1380 -0.2012 -0.2011
10584W        W27432   0.795   0.222  13.452  0.2161  0.0155  0.1307
10585W        W27433   7.977  11.471  14.022  0.0376 -0.2402 -0.1959
10586W        W27434   8.817   4.652   1.861  0.1164 -0.1389 -0.5404
10587W        W27435   8.389   3.953  16.676  0.0382  0.0981 -0.0095
10588W        W27436  11.747   5.989  17.250  0.3743 -0.0496  0.4104
10589W        W27437   4.343   1.962  14.903  0.3841 -0.1686  0.1340
10590W        W27438  16.434  13.461  16.289  0.0696  0.3335  0.0334
10591W        W27439  14.749  10.997   1.538 -0.0970  0.0132 -0.1767
10592W        W27440   6.605   4.526  17.407 -0.3781  0.1948  0.0149
10593W        W27441  16.673  15.115  12.402  0.1740  0.1714 -0.4053
10594W        W27442  14.816   6.590   5.926 -0.1079  0.1253 -0.1156
10595W        W27443   6.470   7.168   0.544 -0.1164  0.1305  0.0058
10596W        W27444   4.245  13.901   3.912  0.2530 -0.1662 -0.3206
10597W        W27445   5.765   1.584  14.825 -0.2530 -0.0737 -0.1682
10598W        W27446   0.582   5.690  12.075  0.1068  0.1007 -0.0454
10599W        W27447   1.497   0.550   0.228  0.0569 -0.1304 -0.2752
10600W        W27448   0.374  16.084   2.589  0.0079  0.0198 -0.0163
10601W        W27449   9.786   1.603   0.443 -0.1985 -0.0446 -0.1557
10602W        W27450  10.822   9.838   2.631 -0.3381  0.0923  0.0594
10603W        W27451   9.949  16.837  17.028  0.0575  0.3503  0.0227
10604W        W27452  14.460   7.379  17.821 -0.0347  0.0027 -0.3459
10605W        W27453   3.286   8.604   0.954 -0.0174  0.1443 -0.1997
10606W        W27454  10.516   6.148  16.614  0.1149 -0.2149  0.2421
10607W        W27455  12.184   2.459  14.402  0.1465 -0.0474  0.0496
10608W        W27456  11.373  13.603  13.680 -0.1533  0.0950 -0.0195
10609W        W27457   7.458   2.983  15.127  0.2391  0.0166  0.1905
10610W        W27458  14.788  12.368  14.396 -0.1424  0.0150  0.1130
10611W        W27459  14.317   5.892   5.816  0.0862 -0.1792 -0.1896
10612W        W27460   0.872   5.231   1.909 -0.0230  0.0336  0.0551
10613W        W27461   0.404  11.846  13.032  0.0558 -0.0492  0.1518
10614W        W27462   0.149  12.371  15.593  0.2018  0.0382 -0.0660
10615W        W27463  11.897   6.076   4.064  0.1809 -0.2282  0.0975
10616W        W27464   7.907   2.949   2.808 -0.1607 -0.2240  0.1571
10617W        W27465  11.514   1.447   4.685  0.0812  0.0653  0.1160
10618W        W27466  10.125  14.500  14.189  0.1213  0.0603 -0.0421
10619W        W27467   8.108  13.364  12.629  0.0297 -0.2462  0.1436
10620W        W27468   4.523  11.606  17.754 -0.1490  0.1046  0.0158
10621W        W27469   9.655   1.167   5.435 -0.0970 -0.0681 -0.1268
10622W        W27470   4.757   0.934  12.904 -0.0001  0.1796  0.2400
10623W        W27471   5.666  13.223  12.905 -0.1295 -0.0261  0.1801
10624W        W27472   1.390  11.719  14.135 -0.0088 -0.3504 -0.0362
10625W        W27473  15.425   0.053   5.427  0.4842  0.1604  0.1064
10626W        W27474   9.841   5.807   3.218  0.1328 -0.4638 -0.2446
10627W        W27475   5.328   8.738   4.104 -0.1266  0.4264 -0.2896
10628W        W27476  15.422  11.928   4.264 -0.1165  0.0469 -0.0911
10629W        W27477  11.528   3.827  15.675  0.0821 -0.3759 -0.1558
10630W        W27478   3.046   1.967  17.367  0.0179  0.0138 -0.2647
10631W        W27479  12.331   4.150  13.391 -0.1640 -0.0593 -0.2100
10632W        W27480   5.359   9.796   2.677  0.0056  0.1418 -0.2108
10633W        W27481  16.212   4.229   1.553 -0.2221  0.0851  0.2879
10634W        W27482   7.382  11.204   4.834 -0.0907  0.2918  0.1341
10635W        W27483   4.749  12.338  14.230 -0.0141 -0.0471 -0.0706
10636W        W27484   4.448   2.665   3.206  0.0076 -0.2432  0.2166
10637W        W27485   5.064  14.543  11.557 -0.3006  0.0195 -0.0130
10638W        W27486  16.668   5.981   2.995 -0.1500 -0.1941 -0.0939
10639W        W27487  13.340   9.764  12.061 -0.1307 -0.2451 -0.0051
10640W        W27488   3.214  14.823   1.981 -0.0472 -0.0862 -0.3375
10641W        W27489  13.230   8.258   4.695  0.0260 -0.0003  0.4211
10642W        W27490   5.023   2.628   5.653 -0.1829  0.0396 -0.0044
10643W        W27491   0.941   7.421  13.395  0.2138  0.1775  0.0868
10644W        W27492  10.168   1.329  17.418 -0.1461  0.2400 -0.0112
10645W        W27493   1.175   8.417  12.178 -0.0246 -0.0423 -0.4515
10646W        W27494  15.448   9.157   5.638  0.2748 -0.2212  0.1530
10647W        W27495  12.967   8.792   4.852  0.1538 -0.1258  0.0782
10648W        W27496  13.253  12.041  12.478  0.1467 -0.0539  0.2552
10649W        W27497   2.805   3.793   1.578 -0.1328 -0.0180 -0.4605
10650W        W27498  13.142  16.041  13.343  0.2017  0.3182  0.0225
10651W        W27499  14.637  10.284  17.565  0.0160 -0.2146  0.4256
10652W        W27500  16.333  11.965   3.446  0.1523 -0.0537 -0.0376
10653W        W27501  12.814  10.726   0.837  0.0238  0.3119 -0.4077
10654W        W27502  13.087   7.103  15.423 -0.1944 -0.2053  0.2450
10655W        W27503  10.873  16.702  13.025 -0.1711  0.2812 -0.0826
10656W        W27504   1.691  14.600  17.589 -0.0420  0.1580 -0.4408
10657W        W27505  15.288  16.928   1.566  0.1470 -0.0518  0.0141
10658W        W27506  12.143   4.522  13.091  0.1008 -0.1256 -0.1542
10659W        W27507   8.083   7.047  14.524  0.1733 -0.0809  0.0345
10660W        W27508  15.372  16.462  17.441 -0.1788  0.0679 -0.1315
10661W        W27509  15.604   3.761  16.951 -0.1012  0.1249 -0.0164
10662W        W27510   5.087   8.703   5.204  0.1824 -0.2735  0.1045
10663W        W27511   0.208  10.270  14.239  0.2523  0.0016 -0.0019
10664W        W27512  12.185  14.448   5.450 -0.0382 -0.2286  0.2051
10665W        W27513  16.923   8.665  15.722 -0.3220 -0.1270 -0.1219
10666W        W27514  12.548   4.180  12.854  0.1217 -0.1035  0.2613
10667W        W27515   8.438  16.285  15.446 -0.0736  0.3777 -0.2350
10668W        W27516   2.608  16.657   5.720  0.1350 -0.0633  0.0526
10669W        W27517  14.411  13.765   2.280 -0.3105 -0.0633 -0.0310
10670W        W27518   7.694   7.267  17.803  0.1007 -0.0429  0.0596
10671W        W27519   1.303  15.257  14.806  0.3734 -0.1675 -0.2283
10672W        W27520  15.553   9.308   2.419  0.0585  0.1134 -0.3589
10673W        W27521  15.974  11.995  16.448 -0.0187  0.5367 -0.2756
10674W        W27522  11.659   6.369   4.510  0.3344  0.1907 -0.2252
10675W        W27523  12.196   2.463   1.733 -0.1561  0.0086 -0.2190
10676W        W27524   6.270  11.510  17.061  0.2558  0.3548  0.1454
10677W        W27525   2.714   8.517   0.694 -0.0048  0.0126 -0.1518
10678W        W27526   4.638   5.373   4.493  0.0500 -0.0648  0.0642
10679W        W27527  13.549   8.367  17.144  0.1880 -0.0178 -0.1492
10680W        W27528   9.161   3.926   1.622 -0.0649  0.2722 -0.3913
10681W        W27529  11.090   1.618  17.350 -0.2710 -0.2271 -0.0130
10682W        W27530  15.506   8.257   2.182 -0.0666  0.4924  0.0548
10683W        W27531  10.977   5.434  11.612 -0.3511 -0.0565  0.0731
10684W        W27532   1.283   1.182  12.340  0.3912 -0.1125  0.0277
10685W        W27533   1.894   2.052  14.669  0.2634 -0.3256  0.0472
10686W        W27534  14.653   7.273   5.198 -0.0806  0.0167  0.0372
10687W        W27535   5.641  13.328  17.192  0.1411  0.2192  0.0107
10688W        W27536   4.590   4.201   0.962 -0.0747  0.0374 -0.0988
10689W        W27537   3.816   6.033  14.257  0.0816  0.1466  0.0134
10690W        W27538   6.165   5.876   1.006  0.0621  0.0669 -0.0063
10691W        W27539   2.097  10.374  15.158 -0.1031 -0.3343 -0.2331
10692W        W27540   1.597   9.372   5.090 -0.2330  0.1068 -0.2642
10693W        W27541   4.829  11.385  12.914  0.0160  0.0991 -0.1927
10694W        W27542   8.496  15.214   2.109  0.0387  0.0259  0.3379
10695W        W27543  14.153  15.345   3.323 -0.0896 -0.0219 -0.2007
10696W        W27544   7.714  13.166  15.629 -0.2474  0.2249  0.0459
10697W        W27545   1.961  10.930   1.955  0.0623  0.1054  0.1854
10698W        W27546   1.402   3.697  12.824 -0.1169  0.1093  0.0324
10699W        W27547   8.809   0.433  16.571  0.0817  0.1852 -0.1581
10700W        W27548  16.926  14.102  15.156 -0.4800  0.0925  0.0473
10701W        W27549   2.334   7.837  13.298  0.0404 -0.3665  0.1943
10702W        W27550   6.553   7.182  14.540 -0.2599 -0.1823  0.2181
10703W        W27551   7.604   1.766  17.080 -0.1034  0.0108 -0.0090
10704W        W27552   4.249   1.066   2.284 -0.0303 -0.1068 -0.1104
10705W        W27553   5.599  14.674  16.949 -0.1432  0.1989  0.1479
10706W        W27554  11.765  13.384   3.550 -0.2275 -0.4994 -0.0361
10707W        W27555   4.109   5.531  14.423  0.0910  0.1028 -0.3533
10708W        W27556  14.056   5.987  16.399 -0.0376  0.1568 -0.0233
10709W        W27557   7.739   0.840   3.634 -0.2916  0.1560 -0.0452
10710W        W27558  14.126  10.252   4.537 -0.0167 -0.0559  0.0703
10711W        W27559  10.403  14.622  17.240 -0.0929  0.2036 -0.0453
10712W        W27560   6.072  13.069   5.890 -0.4311  0.1859  0.1337
10713W        W27561  10.915   4.095  12.448  0.1938  0.1333  0.0055
10714W        W27562  15.474   6.808  14.481 -0.4393  0.0548  0.1722
10715W        W27563  16.868   6.623   4.202 -0.1672  0.1793  0.1397
10716W        W27564   9.158  16.856   5.108  0.3113 -0.0468 -0.2227
10717W        W27565  10.275   3.217   4.695  0.0643  0.0210  0.1308
10718W        W27566   0.423  11.558   0.889 -0.1575  0.0112 -0.1702
10719W        W27567  16.692  16.568   1.572  0.1267 -0.1189  0.1806
10720W        W27568   1.998  10.757   4.884 -0.0863  0.1929 -0.2110
10721W        W27569   0.989  11.015  14.277  0.3356 -0.1916  0.0960
10722W        W27570   3.299   2.859  12.318  0.2658 -0.1148 -0.2185
10723W        W27571  11.116  12.486   5.306  0.1052  0.0092  0.0838
10724W        W27572   2.489  12.682   4.615 -0.0612 -0.0680 -0.3530
10725W        W27573  14.624  10.680   3.478  0.0457 -0.1746  0.0492
10726W        W27574  15.772  11.133  14.115 -0.3216  0.1994  0.0833
10727W        W27575   9.467   5.281   1.607  0.3504  0.0356 -0.1188
10728W        W27576  13.228   6.799   4.393  0.1613  0.2375  0.0594
10729W        W27577   3.620  12.066  11.983  0.1228  0.0370  0.3780
10730W        W27578   7.251  16.992  14.707 -0.1296  0.0294  0.0438
10731W        W27579   2.462  16.328   2.986  0.0086  0.0540  0.0424
10732W        W27580   9.145   5.407   3.760  0.1350  0.0598 -0.1671
10733W        W27581   4.965  16.215   5.449  0.0344 -0.3631  0.0376
10734W        W27582   3.437   8.262   2.803 -0.0176 -0.3058  0.1285
10735W        W27583   9.393  14.339   0.678 -0.1121 -0.2720 -0.2719
10736W        W27584   0.188  10.034  12.343  0.0119  0.0331 -0.3024
10737W        W27585   5.186   8.043  16.714  0.1467  0.2667 -0.1200
10738W        W27586   0.183   3.808  13.354 -0.1206 -0.0070 -0.0186
10739W        W27587   2.903   1.115  14.551  0.0753  0.2656 -0.2818
10740W        W27588  10.852   5.484  13.135  0.1767  0.3685 -0.0196
10741W        W27589   9.546   5.479   2.680  0.2237 -0.1179 -0.0318
10742W        W27590   1.411  16.068   4.386 -0.1415 -0.1402  0.5329
10743W        W27591   2.041   4.382   2.175  0.1097 -0.2564 -0.4307
10744W        W27592   2.207  11.193  15.927  0.3765 -0.2300  0.0532
10745W        W27593   2.039   9.804   3.854 -0.1126 -0.1024 -0.0554
10746W        W27594  14.451  16.294  17.236  0.0274 -0.1206  0.2344
10747W        W27595  11.750   4.456   2.149 -0.1384 -0.3097 -0.1762
10748W        W27596  10.499   4.025  13.345  0.2641  0.0050  0.2030
10749W        W27597  16.651   5.853  14.418 -0.0514 -0.2250  0.1332
10750W        W27598   9.393  15.397   3.547 -0.1077  0.0115 -0.1114
10751W        W27599   3.286  16.698   0.962  0.0633 -0.0268  0.1064
10752W        W27600   3.699  12.517   1.988  0.0729  0.0973  0.1545
10753W        W27601  16.162   8.651   1.319  0.1017 -0.1052 -0.1631
10754W        W27602  12.211  13.243  16.666  0.2006 -0.0106 -0.3375
10755W        W27603   5.149  15.802  16.961  0.3539 -0.2826 -0.0609
10756W        W27604  14.945  10.728   2.724 -0.0798 -0.2213 -0.1030
10757W        W27605  12.208  16.438   3.178 -0.1654  0.0526  0.0497
10758W        W27606  13.626   2.350  15.345 -0.2313 -0.0060  0.0769
10759W        W27607  13.629   9.566  12.830 -0.2858 -0.4601 -0.2068
10760W        W27608  10.263   6.400   4.335 -0.1106 -0.1654  0.0660
10761W        W27609   6.040   0.925   5.337  0.0606  0.0609  0.3341
10762W        W27610   6.842  10.198  13.785  0.2407  0.1451  0.0072
10763W        W27611  12.695   8.653  17.428  0.3708  0.1430  0.1084
10764W        W27612   2.763  13.333  14.913  0.0427 -0.2751 -0.0417
10765W        W27613   4.068   3.533   5.730  0.0649 -0.0890  0.1518
10766W        W27614  17.023   6.817   3.713 -0.0603 -0.1359  0.5473
10767W        W27615  14.437   2.352   4.545 -0.0188  0.0731 -0.1740
10768W        W27616   9.227   8.671  14.165  0.2298 -0.1412 -0.1329
10769W        W27617   5.123   8.702  16.683 -0.1254 -0.2111 -0.2378
10770W        W27618   5.471  16.453  14.225 -0.0751  0.1681  0.0347
10771W        W27619   0.152   6.808  15.067 -0.1378 -0.1835  0.0827
10772W        W27620   6.184  13.059  14.193 -0.3253 -0.0876  0.1961
10773W        W27621  16.554   6.596   5.521 -0.0639  0.2058 -0.1389
10774W        W27622   2.641  15.254  16.716 -0.3334  0.1188 -0.1364
10775W        W27623  15.224   7.321   2.982  0.0005  0.2296  0.0622
10776W        W27624   5.787   1.139  15.061 -0.1351  0.0941  0.0358
10777W        W27625   1.374  12.191  13.214  0.2622  0.1424  0.1041
10778W        W27626   3.591  11.355   4.025  0.0811  0.1088 -0.1249
10779W        W27627   8.393  12.298  16.592 -0.1453  0.0825 -0.0448
10780W        W27628   0.843  11.045  15.487 -0.1000 -0.0818  0.1223
10781W        W27629   6.346   4.721   5.748  0.0369  0.1140 -0.3854
10782W        W27630   1.293   5.398   0.086  0.0696  0.0573 -0.3444
10783W        W27631  10.493   5.225   0.164 -0.1022  0.1306 -0.0491
10784W        W27632   2.266   8.349   0.510 -0.3963  0.0842  0.2654
10785W        W27633   5.016   5.574   2.709 -0.0040  0.1131 -0.0385
10786W        W27634   2.671  12.996   1.968 -0.0475 -0.1246 -0.2051
10787W        W27635  15.262  11.962  17.506  0.0596 -0.0638  0.0301
10788W        W27636   0.260  10.081   0.777  0.1107 -0.1323 -0.1538
10789W        W27637   3.989   0.451  16.264  0.2684 -0.1458 -0.4194
10790W        W27638  12.567   4.720  12.863  0.0938 -0.0046 -0.0671
10791W        W27639   9.506   2.322  12.658 -0.1107  0.2611 -0.2002
10792W        W27640  15.154   5.415   3.019  0.5268 -0.2141 -0.1558
10793W        W27641  15.762   1.631  17.159 -0.1219 -0.0338  0.2191
10794W        W27642  14.344   6.914   5.111  0.1784  0.0193 -0.3178
10795W        W27643   0.535   4.027  13.591  0.0693  0.1625  0.3681
10796W        W27644   7.444  12.587  15.818 -0.2233 -0.1839 -0.2272
10797W        W27645   2.163  13.425  15.996  0.0249  0.2577 -0.3413
10798W        W27646  16.078   8.439  13.976 -0.0062 -0.1124 -0.0638
10799W        W27647  15.028  12.304  13.008 -0.1552  0.0378  0.2550
10800W        W27648  13.966  11.266   0.322 -0.1818  0.0731  0.1075
10801W        W27649   3.456  13.829  13.884 -0.2359 -0.1241 -0.0603
10802W        W27650  11.549   0.597  11.706  0.3962  0.1032  0.1045
10803W        W27651   2.606   4.918   4.262 -0.1560 -0.3250 -0.2297
10804W        W27652   0.076   8.700   3.686  0.0917 -0.0923 -0.1643
10805W        W27653  10.100   0.325   5.015 -0.0748 -0.0613 -0.1035
10806W        W27654  16.427   0.604   4.480 -0.1532  0.1716  0.1251
10807W        W27655   6.866  12.717   2.249  0.1906 -0.1351 -0.2067
10808W        W27656  13.258  11.171   3.248 -0.0822  0.1282 -0.0263
10809W        W27657  12.712   3.694  12.824 -0.1584 -0.1772  0.0452
10810W        W27658   5.263   9.476  13.526 -0.2473  0.0960  0.2694
10811W        W27659  12.986   5.395   3.607  0.2125 -0.0743 -0.1602
10812W        W27660  16.002   0.577   1.848 -0.2777  0.1760 -0.1575
10813W        W27661  16.516   3.697   3.914 -0.1066 -0.1947  0.0692
10814W        W27662   6.361  12.205  17.445  0.0155 -0.0288  0.0922
10815W        W27663  14.206   0.422  13.182  0.0220 -0.1795 -0.3389
10816W        W27664  10.434   1.656   1.258 -0.1894 -0.1216  0.0280
10817W        W27665   6.473   3.437   1.753  0.2404  0.0862 -0.2870
10818W        W27666   6.145  16.644  16.082 -0.2989  0.2669  0.1254
10819W        W27667  12.288   1.364  16.650 -0.2667 -0.3793 -0.2706
10820W        W27668  11.098  15.191  14.761  0.1413  0.0134 -0.3064
10821W        W27669  10.325   5.500   3.318  0.0409 -0.1835  0.2861
10822W        W27670   0.332  12.293   2.588  0.0793 -0.2467 -0.4564
10823W        W27671  11.369   6.222  15.698  0.2664  0.1192  0.2005
10824W        W27672   3.118  13.913   5.993 -0.0533 -0.2391 -0.2626
10825W        W27673  14.620  15.271   4.952 -0.0807 -0.1714  0.0651
10826W        W27674  15.702   4.535  17.555  0.0292  0.3376  0.0253
10827W        W27675  10.558   9.838  14.488  0.0090  0.1789  0.3765
10828W        W27676  16.375  14.585  16.864  0.0251  0.0372 -0.1442
10829W        W27677   8.818   5.774  14.726 -0.2545 -0.1589 -0.1678
10830W        W27678   9.827  16.326  12.391 -0.0584  0.0097 -0.0460
10831W        W27679   5.000   0.546   5.948 -0.0595  0.3195 -0.0102
10832W        W27680  10.305  15.355   0.436  0.0367 -0.0578  0.2279
10833W        W27681  10.649   9.956   5.523  0.1588 -0.0881  0.0154
10834W        W27682  15.034  10.526  17.451  0.0950 -0.2118 -0.2086
10835W        W27683  10.920  13.902  16.972 -0.3414  0.1370 -0.4066
10836W        W27684   8.880   3.723   3.984  0.1568 -0.1835  0.0908
10837W        W27685   7.518  12.181  14.229  0.2620  0.0483 -0.0229
10838W        W27686  12.432   2.444   4.530  0.1521  0.3226 -0.0537
10839W        W27687  16.657  12.369  17.613  0.0139 -0.1008  0.0941
10840W        W27688  15.692   7.314   6.252 -0.1673 -0.0125  0.0718
10841W        W27689  13.051   4.067  17.012  0.1738 -0.0567  0.0775
10842W        W27690   1.649   4.298   3.507  0.1889  0.1721  0.0469
10843W        W27691  10.138  13.352   5.433 -0.1669  0.0123 -0.0507
10844W        W27692   1.602  12.174  14.079  0.0127  0.3213  0.1857
10845W        W27693  10.848   1.232   3.748  0.0874 -0.0664  0.0035
10846W        W27694  10.583   0.150  13.131  0.0256  0.0683 -0.1444
10847W        W27695   8.936   1.754  16.712  0.1783 -0.0494 -0.3293
10848W        W27696  16.400   3.743   0.245 -0.1503 -0.1065 -0.1772
10849W        W27697   0.430   3.485  12.590 -0.1503 -0.1413 -0.0273
10850W        W27698  11.538  15.811   2.614 -0.0116  0.1446 -0.0241
10851W        W27699  11.499  14.071   4.194 -0.1451  0.2119  0.0302
10852W        W27700  15.067   9.587  13.899 -0.0312 -0.2486 -0.1985
10853W        W27701   9.666   4.534   2.833  0.1131 -0.0821  0.0835
10854W        W27702  10.793  15.574   0.596 -0.1674  0.0559 -0.3011
10855W        W27703   5.244  16.357   2.955 -0.1999 -0.3893  0.2542
10856W        W27704   0.174   2.077  12.918 -0.1098  0.0864 -0.0172
10857W        W27705  16.923  13.423   4.981 -0.1324  0.1055  0.1135
10858W        W27706  14.005  12.850   5.251  0.1276 -0.1106  0.1038
10859W        W27707   0.918  12.493   5.384 -0.0654 -0.2820  0.3146
10860W        W27708   0.372   6.135   0.200 -0.1297 -0.2773 -0.2792
10861W        W27709   1.041   7.742  16.000 -0.0663 -0.0294 -0.2884
10862W        W27710  10.376   8.046   0.352 -0.0990 -0.0168  0.0622
10863W        W27711   7.443   3.888   3.434 -0.0679  0.1043  0.0531
10864W        W27712   4.071  17.065  13.919  0.2642  0.1439  0.0956
10865W        W27713  10.486  11.394   2.198 -0.0386  0.1765 -0.0111
10866W        W27714   0.366   5.236  14.346 -0.2637 -0.2694 -0.0267
10867W        W27715  16.112   7.405   1.977  0.0653 -0.2799  0.0186
10868W        W27716   3.905  14.539   4.588 -0.3113  0.1714 -0.2549
10869W        W27717  15.021  12.726  16.654  0.2295  0.1926  0.1389
10870W        W27718   0.763  13.713   1.867 -0.0248  0.0940 -0.2235
10871W        W27719  14.129   3.166   2.279 -0.1653 -0.0426 -0.0989
10872W        W27720  11.150  16.774   1.435  0.4511  0.1866  0.1460
10873W        W27721   7.278  10.819   6.081  0.2050  0.2239  0.2783
10874W        W27722  15.051   9.742  13.154  0.0293 -0.1667  0.0860
10875W        W27723   3.831  14.522  12.667  0.0643  0.4012  0.0544
10876W        W27724  15.218   2.715  13.996 -0.0977 -0.0107 -0.2281
10877W        W27725   2.232   0.737  13.085  0.0983 -0.2569 -0.0931
10878W        W27726   8.813   2.051   5.170  0.0677 -0.0015 -0.0350
10879W        W27727  16.566  15.036  13.717 -0.0535 -0.0866  0.0055
10880W        W27728   2.298  16.596   0.844  0.0583 -0.2381  0.2073
10881W        W27729  12.090  15.059  15.824 -0.0267  0.4057  0.0856
10882W        W27730   5.748  13.808  13.098 -0.1126  0.3054 -0.2200
10883W        W27731  14.427   9.746   4.527  0.0721 -0.0842 -0.2214
10884W        W27732  16.808  11.411  15.854 -0.0747 -0.1763  0.0636
10885W        W27733   2.333   6.169   1.228  0.0720 -0.0509 -0.0038
10886W        W27734   0.669   8.065  16.107 -0.0198  0.0137 -0.1022
10887W        W27735   3.365   8.268   5.590 -0.0032 -0.0125 -0.3974
10888W        W27736  10.409  15.170   4.799  0.1602  0.1384  0.0494
10889W        W27737   3.909  10.340  15.013  0.0610 -0.0080  0.1227
10890W        W27738  14.972   7.433  15.444 -0.1003  0.0952  0.0823
10891W        W27739   6.235   8.649   0.414  0.1021  0.2046  0.1075
10892W        W27740   3.078   0.399   5.193  0.2130  0.4430  0.1011
10893W        W27741   3.021  16.232  10.976 -0.1337 -0.0400  0.0555
10894W        W27742   6.131  14.219   5.644  0.0068  0.0757  0.1078
10895W        W27743  10.362  16.934   5.760 -0.1901 -0.3882  0.1092
10896W        W27744   5.680  10.896   2.775  0.0794  0.0458 -0.0620
10897W        W27745  10.013   3.074   4.207 -0.0199 -0.0132 -0.3767
10898W        W27746   7.616  11.493   1.041 -0.1242 -0.1461 -0.2111
10899W        W27747   4.498  11.746  16.443 -0.0124 -0.1685 -0.2269
10900W        W27748   8.466   3.879   3.196  0.0283  0.1940 -0.1626
10901W        W27749  12.733  11.997   2.141 -0.2491 -0.0884 -0.1133
10902W        W27750  10.329   6.451  12.293 -0.5095 -0.0438 -0.1482
10903W        W27751  14.101  11.841   2.532  0.2098 -0.2647  0.0578
10904W        W27752   5.000  10.275  12.875  0.1460  0.0351  0.1375
10905W        W27753   4.080  12.535   0.884 -0.1713  0.1583 -0.1216
10906W        W27754   4.894  11.988   1.091  0.2621 -0.1581  0.1325
10907W        W27755  14.464  15.626  13.394 -0.0895 -0.0339 -0.0022
10908W        W27756   8.963   1.304  12.150 -0.0577  0.1426 -0.3072
10909W        W27757   6.902  11.915  16.058  0.1910 -0.1934 -0.1536
10910W        W27758   0.259  10.959  15.456 -0.0888 -0.0101 -0.3424
10911W        W27759  14.420  10.086  15.857 -0.0210  0.1577 -0.0857
10912W        W27760  13.572   7.124   0.670 -0.1086 -0.0788  0.1696
10913W        W27761  13.028   9.558  15.562 -0.0667  0.1283 -0.1626
10914W        W27762   5.263   0.567   5.086  0.2307 -0.1818 -0.1375
10915W        W27763   8.569   3.945   5.389 -0.1636 -0.0587  0.2248
10916W        W27764   7.115  14.741   2.205  0.0584 -0.1377  0.0110
10917W        W27765  16.214   2.070  14.727  0.1387  0.2426  0.2744
10918W        W27766   1.073  16.586   0.265 -0.1712 -0.0234 -0.0845
10919W        W27767  15.287   5.680  11.936 -0.0292  0.0927 -0.1353
10920W        W27768  12.521   7.010   5.453 -0.2367  0.1247 -0.1358
10921W        W27769  13.245  16.887  13.952  0.3592 -0.2297  0.4030
10922W        W27770   1.039   7.611   3.574 -0.3813 -0.0860 -0.3674
10923W        W27771   4.796  14.273  14.974 -0.0444  0.0026 -0.0320
10924W        W27772   7.603   5.269   1.988 -0.3873 -0.2208  0.1162
10925W        W27773   0.290  16.285   0.978  0.2186  0.0936 -0.0138
10926W        W27774   0.518  15.117   3.699  0.4154 -0.0801  0.2665
10927W        W27775  14.997   5.313   1.277 -0.0611  0.2117 -0.1562
10928W        W27776   0.215   4.139   3.220  0.3211  0.3167 -0.1942
10929W        W27777  14.638   4.499   2.780 -0.0876 -0.0078 -0.1021
10930W        W27778   6.497   8.742  16.213 -0.0401  0.0534 -0.0926
10931W        W27779   8.569  16.458   6.844 -0.1510  0.1474 -0.0095
10932W        W27780  15.046  17.015  12.170 -0.1621  0.2541  0.0172
10933W        W27781   9.725  10.589  12.500  0.0152 -0.0032  0.0078
10934W        W27782  10.475   1.608   3.899 -0.1930  0.1454  0.0649
10935W        W27783   2.034   7.129  17.114  0.0513 -0.0224 -0.1319
10936W        W27784   2.331  11.486  13.718  0.1334 -0.1936  0.0322
10937W        W27785   1.974  15.857  17.007 -0.1520 -0.0848  0.0205
10938W        W27786   7.778   2.216  16.966  0.4231 -0.0741  0.0966
10939W        W27787   3.570  13.635  16.196  0.0125  0.0437 -0.2801
10940W        W27788  10.813  12.699   4.928  0.0951 -0.0845 -0.0638
10941W        W27789   9.883  15.447  15.083 -0.0745 -0.2310 -0.4511
10942W        W27790   0.050   7.569   5.307 -0.1129  0.2001  0.3601
10943W        W27791  13.136   6.159   5.303  0.1026  0.0172  0.0382
10944W        W27792   0.991   7.932  13.494 -0.0027 -0.1684  0.1044
10945W        W27793   4.976   3.750   5.168  0.0810  0.3014 -0.0784
10946W        W27794   7.002   6.010   5.573 -0.0743 -0.1597 -0.2407
10947W        W27795  14.058  11.731   3.441  0.0908 -0.0491 -0.0802
10948W        W27796   5.419   4.097  15.471 -0.2415  0.2111 -0.0429
10949W        W27797   4.312  16.820   4.416 -0.0551  0.1847  0.1731
10950W        W27798   7.467   6.453   0.085  0.0877  0.2228 -0.0879
10951W        W27799   0.384   6.996  17.804 -0.1332  0.1894 -0.0118
10952W        W27800   4.274  13.274  16.651 -0.4138  0.0899  0.0264
10953W        W27801  10.431  10.140   2.709  0.2261  0.0607  0.0328
10954W        W27802  16.071   4.073   1.014 -0.1460  0.0966  0.0696
10955W        W27803  15.977   3.562   1.006 -0.1718  0.0134 -0.3962
10956W        W27804   4.548   1.071  15.340 -0.2494 -0.0270 -0.1404
10957W        W27805   4.671   8.223  17.143 -0.0056  0.0129  0.3137
10958W        W27806   7.857   2.533   1.051 -0.2903  0.1372 -0.2920
10959W        W27807   5.473  12.532  16.074  0.0648 -0.0473  0.0810
10960W        W27808  15.614   6.594   3.688  0.2839 -0.3454  0.0710
10961W        W27809  10.395  12.563  12.299  0.0280  0.0353 -0.1897
10962W        W27810   6.858  16.597   1.086  0.2069  0.3806 -0.2787
10963W        W27811   1.825   0.614  14.213  0.1371 -0.4795 -0.1547
10964W        W27812   8.492   7.641  12.293  0.0343 -0.0215  0.3347
10965W        W27813  10.747  14.060   3.721 -0.0731 -0.2427 -0.2091
10966W        W27814   1.373   4.966  17.269  0.2092 -0.2918  0.1028
10967W        W27815  16.703   4.576  16.871  0.1302  0.0382 -0.2351
10968W        W27816  16.450   5.437   5.372 -0.3680 -0.2359 -0.1445
10969W        W27817   2.766   9.659  13.838 -0.1382  0.0024 -0.0011
10970W        W27818   4.067  16.750   3.200 -0.0887  0.0469  0.1286
10971W        W27819   1.684   7.198   3.080 -0.2978  0.0382  0.2194
10972W        W27820   4.544  16.786  16.001  0.0304  0.0316  0.0292
10973W        W27821  10.378  16.508  13.615 -0.0390 -0.0701  0.3523
10974W        W27822   8.962   8.354   5.048 -0.2730 -0.0975  0.2877
10975W        W27823   2.678   2.139   5.758 -0.2581  0.2680  0.0422
10976W        W27824  10.889  12.944   2.613 -0.2228 -0.1432 -0.2607
10977W        W27825  14.377  12.500  16.078  0.1370 -0.1505  0.0648
10978W        W27826  13.720   4.817   3.878  0.2387 -0.1557 -0.0304
10979W        W27827   2.049   6.741   4.365 -0.0092  0.1547  0.5312
10980W        W27828   3.364  12.612  17.270 -0.1196  0.1119  0.1595
10981W        W27829   2.433   2.673   5.554  0.1351 -0.4112 -0.3358
10982W        W27830   6.250   0.686  14.923  0.1406 -0.0756 -0.1516
10983W        W27831  16.258   7.017   0.412  0.0459  0.0518 -0.2073
10984W        W27832   2.398  13.260   0.119 -0.2628  0.1860 -0.1261
10985W        W27833   9.494   7.870   4.667 -0.0605 -0.3600  0.2066
10986W        W27834   3.629   0.274   2.148  0.0779 -0.2614 -0.1201
10987W        W27835  12.992   8.331   3.637 -0.0784  0.3052  0.1417
10988W        W27836   3.712  16.843  13.665 -0.0538  0.0069  0.0373
10989W        W27837  13.452   4.633  12.044 -0.0006  0.3113 -0.3786
10990W        W27838   7.172   9.979   3.879 -0.0256  0.1400 -0.0369
10991W        W27839   7.115  16.247  17.442 -0.2500 -0.0892  0.0807
10992W        W27840  12.051   0.404  13.414  0.1247  0.2482  0.0488
10993W        W27841   0.267   8.601   0.369  0.4806 -0.1214 -0.0544
10994W        W27842   3.857   2.870   1.949 -0.0598 -0.0534  0.1167
10995W        W27843   1.872   0.030   5.075  0.0009  0.0627 -0.1581
10996W        W27844  15.787   0.699  17.560  0.1305  0.1774 -0.1237
10997W        W27845   1.094   9.118   1.312 -0.0425 -0.0609  0.1892
10998W        W27846   7.325   5.054  16.455  0.0761  0.2147 -0.5689
10999W        W27847   6.684  15.250  15.269 -0.0862  0.1014 -0.2574
11000W        W27848  14.330  15.074  12.448  0.2337 -0.1243  0.0756
11001W        W27849  10.961   8.177   0.060  0.1945  0.2259  0.0819
11002W        W27850   1.031   0.264   2.679  0.2310 -0.1727 -0.2851
11003W        W27851   4.547   0.148  12.197  0.1197  0.2015  0.2056
11004W        W27852   6.645   9.079  15.132  0.2051  0.1676  0.4347
11005W        W27853  12.648   4.726   4.365  0.0992  0.0470  0.1996
11006W        W27854   0.204  11.446   4.512  0.0877 -0.1911 -0.2821
11007W        W27855  13.006  11.715   5.702  0.0033  0.2116  0.0934
11008W        W27856   2.216   7.478   6.531 -0.3518  0.2734 -0.1625
11009W        W27857  13.478   3.452  17.397  0.1119  0.0148  0.1788
11010W        W27858   9.312   7.248  13.702 -0.2349  0.0469  0.1145
11011W        W27859  11.296  12.210   1.728 -0.0908  0.3169 -0.0333
11012W        W27860  12.050   7.712  14.526 -0.0215  0.0165  0.0116
11013W        W27861   1.989   7.594  14.497  0.2361  0.0953  0.0040
11014W        W27862   6.645  15.608  13.836 -0.1278  0.0487 -0.1513
11015W        W27863  14.032  12.328   6.481 -0.1991 -0.1285 -0.0449
11016W        W27864   9.408  11.520   4.867  0.3610  0.2041 -0.0675
11017W        W27865  10.773  10.891   1.087 -0.2044 -0.1752 -0.1615
11018W        W27866   9.474   3.563  15.397 -0.0493  0.0249 -0.0989
11019W        W27867  11.423   8.207  16.197 -0.0669  0.1574 -0.2681
11020W        W27868   2.498   5.507   3.443 -0.0561  0.1868 -0.1161
11021W        W27869  14.310  13.287   2.132 -0.4315 -0.0076  0.0813
11022W        W27870   3.842   0.444  14.907 -0.2685  0.2916  0.0442
11023W        W27871  11.138   6.225  13.563  0.0515  0.1362  0.2012
11024W        W27872   6.350   2.829   1.234 -0.0803 -0.1952 -0.2040
11025W        W27873   1.673   5.399  13.705 -0.4943  0.3993  0.2776
11026W        W27874   0.379  12.354   4.269 -0.1024 -0.0694 -0.0797
11027W        W27875   2.263   8.087   4.565  0.1831  0.2239 -0.0690
11028W        W27876   2.466   3.471   3.291  0.2164 -0.3365  0.3810
11029W        W27877   1.441   3.512   3.374  0.1447 -0.1723 -0.1115
11030W        W27878   0.180   4.257  17.489  0.1235  0.0410 -0.1459
11031W        W27879   6.991  10.720  16.699 -0.5054  0.1612 -0.2934
11032W        W27880   0.007   9.130   2.273 -0.2519  0.2659 -0.2330
11033W        W27881   8.577   8.033   2.150 -0.1597 -0.0182 -0.0709
11034W        W27882   2.163  12.741  16.784  0.2102  0.4435 -0.3978
11035W        W27883   4.117  12.083  17.711 -0.3373  0.1119 -0.2908
11036W        W27884   1.921   2.785  13.725 -0.1383  0.0293 -0.2550
11037W        W27885   4.693   7.277   5.508 -0.6302  0.1084 -0.1475
11038W        W27886   2.577   2.607   3.923 -0.1437 -0.2257  0.0964
11039W        W27887  10.682   8.425   1.720 -0.1185 -0.0120 -0.0349
11040W        W27888   5.007   6.223  15.434 -0.0044 -0.0826 -0.1383
11041W        W27889   5.510  15.429  13.291 -0.0105  0.1453  0.0151
11042W        W27890  15.328   8.078  12.602 -0.0944  0.1859 -0.2135
11043W        W27891   0.908   8.341  16.456  0.1353  0.0199  0.0336
11044W        W27892   7.078  13.659   3.139  0.3223  0.2776  0.0273
11045W        W27893   1.254   5.806   0.458  0.0124 -0.1798  0.1214
11046W        W27894   7.382   6.994   4.422 -0.3477 -0.0006 -0.1246
11047W        W27895   2.705   6.687  14.704  0.1357 -0.2372 -0.0772
11048W        W27896  14.053   9.231  12.115 -0.2592 -0.3469 -0.3308
11049W        W27897   8.049   8.734  16.587  0.1430 -0.0619 -0.1671
11050W        W27898   5.460  16.042  11.843 -0.0401 -0.0091 -0.2450
11051W        W27899  15.736  12.124   4.621 -0.1193 -0.2034 -0.1927
11052W        W27900   8.278  16.638   2.699  0.1964  0.0733  0.0302
11053W        W27901  10.183   0.689  15.402  0.2078 -0.2227 -0.0294
11054W        W27902   1.619  11.110   2.743  0.0891  0.0249  0.0132
11055W        W27903   4.989  12.869  14.280 -0.0169  0.2896  0.1524
11056W        W27904   4.950   2.429  16.105 -0.0365 -0.2342  0.0201
11057W        W27905   1.396   6.196   0.743  0.1327  0.2617  0.0092
11058W        W27906   5.862   0.003  12.935  0.1886 -0.1296 -0.1249
11059W        W27907   1.468   6.185   3.503 -0.1001  0.1298  0.1444
11060W        W27908   1.895  10.980  14.430 -0.5265  0.0421 -0.1259
11061W        W27909  14.405  17.009  14.978 -0.0187 -0.0208  0.2133
11062W        W27910   2.111  13.350  14.578  0.3929  0.0960  0.0338
11063W        W27911   5.224   5.515  13.428  0.2119  0.0767 -0.0013
11064W        W27912  13.540  10.395   1.536 -0.2370 -0.0901  0.1974
11065W        W27913   7.961   4.624   1.157  0.2803  0.1481  0.1658
11066W        W27914  15.572  11.095  15.027 -0.0787 -0.0554 -0.0963
11067W        W27915   1.162  15.170   5.506  0.1134  0.0879 -0.0572
11068W        W27916  11.756   6.835  14.509 -0.1893  0.1474 -0.0982
11069W        W27917  13.204  10.958   4.707  0.0010 -0.0632 -0.1554
11070W        W27918  16.826  11.890  16.069  0.1257  0.1780 -0.3447
11071W        W27919   3.868   3.080   4.095  0.0870  0.0600 -0.1054
11072W        W27920  16.474  11.516   4.876  0.0557  0.0054 -0.0979
11073W        W27921  14.664   2.733   2.147 -0.2996  0.0013  0.2862
11074W        W27922  17.053   2.725   2.048 -0.1590  0.0676 -0.0002
11075W        W27923  13.896  10.585   5.815 -0.0511  0.0227  0.0117
11076W        W27924   8.339   3.527  13.614 -0.0128  0.0266 -0.0792
11077W        W27925   5.573  10.287  14.906  0.1387 -0.0997 -0.3870
11078W        W27926  10.864  12.211   2.054  0.1331  0.0292 -0.0562
11079W        W27927   1.073  11.843   3.762 -0.2362 -0.1500  0.0624
11080W        W27928   0.975   1.122   4.518 -0.1319 -0.0664  0.2047
11081W        W27929  12.144  13.497   5.409  0.1944  0.0811 -0.0817
11082W        W27930   0.282   9.360   2.723 -0.2128 -0.1608  0.0160
11083W        W27931  14.979   5.478   0.276 -0.2561  0.1612  0.1294
11084W        W27932   3.430   1.687   3.760  0.0096  0.2179 -0.1533
11085W        W27933   5.840   8.510   1.649  0.0182  0.0741  0.0979
11086W        W27934   8.184   6.600   2.656 -0.0324  0.3003  0.0220
11087W        W27935   6.863  15.692  11.962 -0.2221  0.1453  0.0529
11088W        W27936  14.887  15.116   2.846  0.0955 -0.0555 -0.0186
11089W        W27937   0.909   9.792   1.679 -0.2670  0.0504  0.2236
11090W        W27938  16.223  11.145  12.842 -0.0502  0.0250 -0.0914
11091W        W27939  14.752  10.385  14.986 -0.3079  0.0586  0.0615
11092W        W27940   8.150   3.035  16.336  0.0465  0.0012  0.2198
11093W        W27941   8.018  11.021  15.771 -0.0419  0.1546  0.2082
11094W        W27942   8.322  10.582  12.996 -0.3036 -0.1093  0.0368
11095W        W27943  15.673   2.101   1.980  0.1893 -0.0743  0.1019
11096W        W27944  15.236   4.146  15.529 -0.1075  0.0978  0.0222
11097W        W27945   7.946   4.675  17.500  0.0092  0.0245 -0.0579
11098W        W27946   5.567   0.274   4.881  0.1077 -0.1737 -0.1635
11099W        W27947   5.135   5.873   1.419 -0.0793  0.0720  0.2349
11100W        W27948   3.831   5.144  17.450 -0.2007 -0.0661  0.2363
11101W        W27949  15.350  14.474   4.957 -0.0190  0.0817  0.3756
11102W        W27950  13.365   7.196  16.564  0.3194  0.1344  0.0794
11103W        W27951  10.614   5.852  11.621 -0.2184  0.0338  0.1969
11104W        W27952   9.502  11.660   0.580  0.1574  0.1749  0.2601
11105W        W27953   8.836   3.923   4.977 -0.3439  0.1069  0.1135
11106W        W27954   3.254   6.797  11.586 -0.0413 -0.0968 -0.1368
11107W        W27955   1.044   8.118  13.933 -0.0526 -0.1785 -0.2650
11108W        W27956   1.297   7.409   2.213  0.2987 -0.1693  0.1096
11109W        W27957  12.010   7.874   2.993  0.0076  0.2061 -0.1351
11110W        W27958  11.644   7.746  13.151  0.0589  0.2049  0.0792
11111W        W27959   8.239  16.135  14.609 -0.1008  0.1120 -0.2731
11112W        W27960  10.940   0.414  15.516 -0.2926 -0.2845  0.1899
11113W        W27961  16.823  12.697  14.719 -0.1657 -0.2074  0.1041
11114W        W27962   8.161   5.097   0.924 -0.0216 -0.1827  0.1606
11115W        W27963  13.869   1.257   2.521 -0.1677 -0.5064 -0.0331
11116W        W27964   6.336   4.540  13.930 -0.2616 -0.0545 -0.1901
11117W        W27965   5.798   5.951   6.174 -0.4440  0.0328  0.0271
11118W        W27966  11.795   7.641  11.258  0.0727  0.2808 -0.0640
11119W        W27967  14.715   6.623   0.924  0.0246 -0.0321 -0.2592
11120W        W27968   7.303   8.562   0.210  0.0712  0.0342 -0.0248
11121W        W27969   7.884  10.644  14.454  0.1597  0.0073 -0.0264
11122W        W27970   6.354  15.665  13.320  0.2104 -0.0313 -0.4236
11123W        W27971   7.714   8.199   0.198 -0.0239  0.3686 -0.2618
11124W        W27972   2.552   1.892  15.186  0.1390  0.0903  0.3662
11125W        W27973   0.784  11.876  14.515 -0.0784 -0.2662 -0.0179
11126W        W27974   5.824  15.893   4.651 -0.0899  0.2846 -0.0645
11127W        W27975  12.909  11.393  15.459  0.2291  0.0063 -0.0342
11128W        W27976   0.506  14.179  16.275 -0.1278 -0.2090 -0.1180
11129W        W27977  11.173  14.209  14.174  0.0071 -0.0300  0.0193
11130W        W27978   1.620   0.028  15.234 -0.2731 -0.2017 -0.0879
11131W        W27979   8.201  14.262   4.266  0.2943 -0.0323 -0.0869
11132W        W27980   7.194  15.938   3.434  0.0378  0.0208 -0.1814
11133W        W27981   2.500   4.754  15.779 -0.1040  0.0166  0.0506
11134W        W27982  15.954   4.907   5.660 -0.2480 -0.2156 -0.0491
11135W        W27983  10.517  13.883   3.286  0.0180  0.3461  0.0635
11136W        W27984  14.843  12.321   5.638 -0.0421 -0.0153  0.0339
11137W        W27985   6.976  11.286   5.496  0.0032 -0.0733 -0.0268
11138W        W27986   9.158   3.254   3.360  0.0066 -0.1040  0.0878
11139W        W27987   8.815   4.833  12.966 -0.2371 -0.1368 -0.0520
11140W        W27988   5.615  15.573  13.747  0.0145 -0.0600 -0.1005
11141W        W27989  10.055   3.712   1.280  0.2153 -0.0775  0.1314
11142W        W27990   5.156   2.895  14.066 -0.1011 -0.2291  0.1606
11143W        W27991   4.369   0.565  13.139 -0.1155 -0.1157  0.2222
11144W        W27992  11.046   4.071   1.266  0.0481  0.0302 -0.1432
11145W        W27993   7.253  10.741  14.420  0.2344  0.1792 -0.0441
11146W        W27994   3.681  13.482   3.091  0.2912 -0.0442  0.3951
11147W        W27995  15.831  14.103   1.966  0.1680 -0.0932 -0.0114
11148W        W27996  10.349   8.885  16.060 -0.1194  0.0330 -0.1232
11149W        W27997   9.914   5.222  13.279 -0.2884 -0.0438 -0.3311
11150W        W27998  13.592   4.384  12.724  0.0633  0.0941 -0.0377
11151W        W27999  11.759  16.863  16.201  0.0035  0.3722  0.0945
11152W        W28000   6.642  10.814   0.454  0.0590 -0.1572 -0.2606
11153W        W28001  10.566   7.218   4.179 -0.1129 -0.0845  0.0203
11154W        W28002   4.042  12.290   3.638  0.1085 -0.2581 -0.2322
11155W        W28003  15.315  14.272   0.162  0.1016  0.0687  0.3059
11156W        W28004  15.907  11.924   3.674 -0.0066 -0.1386 -0.0692
11157W        W28005  14.146  13.923  15.447  0.2103 -0.3919 -0.3556
11158W        W28006  13.638   7.059  16.166 -0.1492 -0.0640 -0.0949
11159W        W28007   4.264   6.387  17.702  0.3718 -0.0248  0.0221
11160W        W28008   0.766   9.264   0.548  0.0560 -0.0156 -0.0205
11161W        W28009   7.718  10.499   0.637 -0.2686 -0.0637 -0.1859
11162W        W28010  10.537  15.524  15.629 -0.1051 -0.2081  0.1281
11163W        W28011  12.832   3.076  16.290  0.1318 -0.4803 -0.0209
11164W        W28012   3.342  14.098  17.124  0.5333 -0.1151  0.0823
11165W        W28013  16.732  13.087   0.860  0.0224 -0.1808 -0.2239
11166W        W28014  11.704  11.966   2.443 -0.2988  0.0480 -0.2139
11167W        W28015  10.308   5.648  13.452  0.0375  0.2024  0.0905
11168W        W28016  12.819   3.476  15.134 -0.1776  0.0922  0.2325
11169W        W28017   7.645   1.256   0.290  0.1269 -0.1698 -0.2946
11170W        W28018   0.921   5.958   5.665  0.0198 -0.0166  0.2294
11171W        W28019   1.794   1.683   6.429 -0.2481 -0.2309 -0.1362
11172W        W28020  14.857  12.568  17.552  0.3942 -0.3433 -0.1229
11173W        W28021   6.473   2.567  13.911  0.2838  0.3637 -0.2257
11174W        W28022  10.665   3.501  12.456 -0.1492  0.0934 -0.2160
11175W        W28023   5.044   2.273  17.418  0.1411  0.3267  0.0159
11176W        W28024   7.425  13.820   4.628  0.1859 -0.1728  0.1363
11177W        W28025  13.999   0.219  15.201 -0.1690  0.3047  0.0732
11178W        W28026   1.246  13.702   5.352 -0.4773 -0.0256  0.0060
11179W        W28027   6.925   0.924  16.414  0.2286 -0.0332 -0.1668
11180W        W28028   7.045   4.764   4.005  0.0706  0.1736  0.1659
11181W        W28029   6.007  10.099   1.285  0.0218  0.0774  0.0769
11182W        W28030   8.878   5.349  16.611 -0.1783  0.1724 -0.0576
11183W        W28031  12.044   2.541  16.650  0.1516  0.0665  0.1127
11184W        W28032  16.432   3.229  13.950 -0.0461  0.1778  0.2233
11185W        W28033   0.294   3.053  13.434 -0.1046  0.1969 -0.1070
11186W        W28034   4.304  15.891  15.571  0.0440 -0.1462  0.2071
11187W        W28035  11.223  11.230  16.069  0.1457 -0.1285  0.1044
11188W        W28036  16.152   1.682  15.058  0.1111  0.0906  0.0450
11189W        W28037   8.650  10.930  13.319 -0.0881  0.1517 -0.0045
11190W        W28038   0.070  15.416   0.751 -0.2063 -0.0087 -0.0302
11191W        W28039   5.016  14.040  15.424 -0.2689  0.0448 -0.0083
11192W        W28040   7.280   0.171   3.988 -0.2071 -0.2026  0.3351
11193W        W28041   1.192   0.447   2.239 -0.1188 -0.1065 -0.1310
11194W        W28042   2.041  12.049   1.960 -0.1397 -0.0687  0.1766
11195W        W28043  11.707   3.564   3.148 -0.0234 -0.0860 -0.2088
11196W        W28044   9.598   8.431  17.429 -0.0066  0.1507 -0.0523
11197W        W28045   6.997  10.585   1.642  0.0938  0.0816 -0.1894
11198W        W28046   5.153   1.305   3.290 -0.0612  0.1757  0.1289
11199W        W28047   8.445   5.000  15.166  0.0176 -0.2204 -0.0269
11200W        W28048   9.922   1.723   2.754 -0.0545  0.5647 -0.2081
11201W        W28049  14.178   0.602   4.451  0.0786 -0.0168  0.4734
11202W        W28050   2.680  17.043   5.404  0.3292 -0.0170  0.0547
11203W        W28051  12.104  11.327  15.533 -0.0756  0.1387 -0.0009
11204W        W28052   1.767  10.793   2.418  0.1236 -0.0521 -0.1200
11205W        W28053  14.091  11.392  14.428 -0.1414  0.0220 -0.1454
11206W        W28054  15.634   6.750   2.350  0.1939  0.0194 -0.0530
11207W        W28055   9.483   2.863  14.333 -0.0322 -0.0966 -0.1068
11208W        W28056   0.172  10.808  14.035  0.0723 -0.0460  0.1588
11209W        W28057   9.800  15.853  12.603  0.0365 -0.0172  0.0778
11210W        W28058  15.465  13.494  14.330  0.0489 -0.2242 -0.0115
11211W        W28059   5.247   9.181   0.710 -0.0302 -0.0813 -0.1544
11212W        W28060   9.741   3.304  14.489  0.0844  0.1217 -0.4179
11213W        W28061   6.112  11.979  16.669 -0.0446 -0.1961 -0.4363
11214W        W28062  11.227  14.713  13.502  0.0316 -0.0765 -0.0621
11215W        W28063   8.400   0.706  15.233 -0.1632 -0.1977  0.1553
11216W        W28064  15.257  14.050   3.619  0.1568 -0.0344 -0.0361
11217W        W28065   7.344   1.899  12.782  0.2883  0.1027 -0.2103
11218W        W28066   9.499   0.540   2.465 -0.1479 -0.3067 -0.0657
11219W        W28067   7.338  13.037   3.843 -0.1429 -0.2838  0.2037
11220W        W28068   0.454   7.085  15.542 -0.1152 -0.1010  0.0916
11221W        W28069   7.958   0.232   1.972  0.2011 -0.0069  0.1671
11222W        W28070  10.473  17.027   4.786  0.0103 -0.0100  0.1858
11223W        W28071  15.915   9.738   5.081 -0.1124 -0.1676  0.1652
11224W        W28072   0.627   3.984  17.837  0.0273 -0.3341  0.0542
11225W        W28073   6.537  12.967  12.584  0.0573  0.1006  0.3325
11226W        W28074  14.726   5.586  11.410  0.2967  0.1728  0.0561
11227W        W28075  13.658   2.957   4.831 -0.0819 -0.0514 -0.0831
11228W        W28076  12.555  12.035   6.407 -0.0099  0.0382  0.0294
11229W        W28077   1.414  13.629  13.051 -0.1385 -0.1171  0.0570
11230W        W28078   6.375  15.084   0.813 -0.2319  0.1554 -0.2511
11231W        W28079   0.564   9.900  15.427 -0.0525 -0.1714  0.0705
11232W        W28080  12.170  15.522  15.849  0.3140  0.2164  0.0923
11233W        W28081   7.431  13.845  13.860  0.0777 -0.1895  0.0354
11234W        W28082  14.934  13.725   4.812 -0.1061  0.1251  0.0266
11235W        W28083   4.038  13.671  17.547 -0.0026  0.0219  0.3114
11236W        W28084   0.583   4.084  17.054  0.1577 -0.0517  0.3468
11237W        W28085   1.613  13.917   3.291  0.2691  0.1021  0.2556
11238W        W28086   1.416   0.150  17.227 -0.3435  0.1415 -0.1322
11239W        W28087   3.570   1.374   0.242  0.0234  0.2525 -0.0086
11240W        W28088   9.085   1.074   3.055  0.2308  0.0721  0.1208
11241W        W28089   2.285   6.008   0.746 -0.3431  0.1475  0.0029
11242W        W28090   5.286  13.570  13.706 -0.0988 -0.2697 -0.0855
11243W        W28091  14.722   4.928  14.935  0.0115 -0.1017  0.1033
11244W        W28092   8.499  15.214  13.851 -0.1389  0.2004 -0.0413
11245W        W28093  15.005   8.102   6.735 -0.0471 -0.2739  0.1602
11246W        W28094   4.515  13.648   2.446 -0.2629  0.0348  0.0618
11247W        W28095   1.981   4.519   5.184 -0.0380  0.0554  0.0949
11248W        W28096   4.487   2.988  17.448 -0.0048  0.0439 -0.0025
11249W        W28097   4.255   5.328   4.812  0.0095 -0.2718  0.0463
11250W        W28098   4.397   9.821   0.174 -0.1192 -0.0095 -0.0786
11251W        W28099   9.958   9.059  16.694 -0.1279  0.2712  0.1342
11252W        W28100   8.987   0.013  13.379  0.0670  0.0528  0.2159
11253W        W28101   1.706  16.754   0.142 -0.3848  0.0978 -0.0941
11254W        W28102   7.552   9.039  15.001  0.0170 -0.2833  0.1718
11255W        W28103  10.484   3.631   0.865  0.0075 -0.1157 -0.0281
11256W        W28104   2.464  12.784  14.124 -0.3249  0.1331  0.4827
11257W        W28105   4.836  16.715   1.501  0.0766  0.0400 -0.0966
11258W        W28106   3.024  16.683  13.515  0.0642  0.1184  0.0893
11259W        W28107  13.633   6.990   2.042 -0.1160  0.0589 -0.0459
11260W        W28108  10.841   6.605  12.250  0.1544  0.4102 -0.2402
11261W        W28109   2.350   1.703   6.301 -0.0422 -0.1881  0.1455
11262W        W28110   4.753   7.205   1.262  0.0846 -0.3477  0.3069
11263W        W28111   6.042  14.106  11.694  0.1711 -0.2140 -0.1729
11264W        W28112  13.213  15.360  14.036  0.1771  0.0810 -0.0262
11265W        W28113  11.500  12.576   1.107 -0.0582 -0.1314  0.0504
11266W        W28114   3.299   3.205  16.479  0.0886  0.5652 -0.1535
11267W        W28115   3.946   1.346  12.976  0.0806  0.2950 -0.0086
11268W        W28116   7.686   8.203   4.773  0.3579  0.0122  0.1897
11269W        W28117   4.466  16.826   5.815 -0.0199 -0.0073  0.1855
11270W        W28118  10.568   7.280   3.462  0.1229  0.0007 -0.0574
11271W        W28119  10.745   2.905   3.887 -0.2737  0.0586 -0.0099
11272W        W28120   1.826  11.986  13.106 -0.4270 -0.1360  0.0416
11273W        W28121   8.355  12.390  14.042 -0.1987 -0.0588 -0.3498
11274W        W28122   0.499  12.451   1.290 -0.0173 -0.1276  0.2122
11275W        W28123  10.083   5.157   3.806 -0.2492  0.1310 -0.0530
11276W        W28124  14.646  10.916   5.086  0.0420  0.0713 -0.0279
11277W        W28125   8.465  11.112   1.569  0.1532 -0.0865  0.0418
11278W        W28126  16.442   4.216  16.435  0.0937  0.0420 -0.0442
11279W        W28127   5.420   2.980   5.649  0.2179  0.0742  0.1574
11280W        W28128   0.245   3.138   2.430  0.2584  0.0413 -0.1932
11281W        W28129   4.975   6.486   4.267  0.0357  0.0226 -0.1372
11282W        W28130  10.472  14.851   5.273 -0.2525 -0.1639 -0.1020
11283W        W28131  16.934   0.566  17.374  0.1999  0.0116 -0.0047
11284W        W28132   5.899  11.015   4.430 -0.1253  0.0954  0.1639
11285W        W28133   7.486   9.826  16.182 -0.0889  0.1644  0.2908
11286W        W28134   8.711  10.216  13.221 -0.2349 -0.1206 -0.1078
11287W        W28135  13.756   7.836   4.073 -0.2844  0.3205  0.2840
11288W        W28136   3.294  13.060   3.814 -0.1180 -0.0589  0.1845
11289W        W28137   5.846  16.782   1.205 -0.0905  0.0239 -0.0240
11290W        W28138  13.801   2.477   4.771 -0.0667 -0.1032  0.0837
11291W        W28139   7.473   3.196   2.783 -0.0306  0.1324  0.4344
11292W        W28140  15.597   8.755  15.174 -0.0190 -0.0857  0.1138
11293W        W28141  16.845  11.649   3.765  0.0260  0.0365 -0.2495
11294W        W28142   6.169  11.072  13.812 -0.0490 -0.1794  0.1253
11295W        W28143   1.708   4.751   3.210 -0.3441  0.0188 -0.0361
11296W        W28144   9.777  15.942  16.348 -0.2752 -0.2307 -0.0219
11297W        W28145   5.786   1.381  13.591  0.2900 -0.2328 -0.0691
11298W        W28146  12.609   8.898   5.291  0.1541  0.0146 -0.0250
11299W        W28147   2.664  14.226  12.316  0.1374 -0.0769  0.0123
11300W        W28148   5.968   0.140   1.504  0.2213  0.0414  0.1800
11301W        W28149   5.411  13.788   2.786 -0.2873 -0.2445  0.3010
11302W        W28150  10.890   4.340  17.827  0.3175 -0.0169 -0.1772
11303W        W28151   1.523   4.067   0.464  0.1363  0.0500 -0.0857
11304W        W28152   6.176  13.725   3.830 -0.0105 -0.1290  0.1811
11305W        W28153  15.779  12.851  16.207  0.0181 -0.2055  0.1826
11306W        W28154   7.649  15.316   0.960 -0.0856 -0.0917 -0.0066
11307W        W28155   9.819   9.706  17.552  0.3024 -0.0700 -0.0250
11308W        W28156   9.913  15.076   3.555  0.1542  0.0125 -0.1487
11309W        W28157  11.429   2.976  12.049  0.2663  0.2051  0.0288
11310W        W28158  11.452  12.666   2.004 -0.0166  0.1548 -0.1464
11311W        W28159   0.254   3.040   4.650  0.1751 -0.0874  0.1139
11312W        W28160   2.509   6.669  12.878  0.1299 -0.0014  0.2920
11313W        W28161  13.169   4.097   1.085  0.0688 -0.0294  0.1785
11314W        W28162   7.282   1.395  16.799 -0.0161 -0.2269 -0.0063
11315W        W28163   3.060  13.836  14.249 -0.3802  0.0728  0.0397
11316W        W28164   8.090   3.683   3.937 -0.0339 -0.1297  0.0438
11317W        W28165   0.876  13.556   4.945  0.0055  0.1054  0.0185
11318W        W28166   1.979   4.993   5.424 -0.0102  0.1539 -0.0877
11319W        W28167   5.671  13.938   3.705 -0.2551 -0.0827 -0.2810
11320W        W28168   3.301   5.174   5.000  0.1353  0.2350 -0.2215
11321W        W28169   2.306   6.400   1.960  0.0463 -0.0264  0.0235
11322W        W28170  15.030  15.392  15.843 -0.1780  0.3856  0.0771
11323W        W28171  13.460  11.396  15.594  0.0941 -0.1071  0.2347
11324W        W28172  10.052  12.623  16.330  0.1125 -0.2598 -0.0175
11325W        W28173  16.661   5.932   5.591  0.2247 -0.0004  0.5452
11326W        W28174   8.475   5.363  14.539  0.0109  0.1951  0.1437
11327W        W28175   9.818   6.519  15.511 -0.2508 -0.2084 -0.2070
11328W        W28176  14.940   7.375  15.928  0.2665  0.0833  0.2061
11329W        W28177  14.437  11.940   1.698 -0.1392  0.1090 -0.0557
11330W        W28178  15.870  12.303  17.317  0.0328  0.0568 -0.1264
11331W        W28179  11.896  13.498  17.427 -0.0552 -0.1236 -0.0960
11332W        W28180   7.493   5.794  17.009  0.1517  0.2050 -0.0569
11333W        W28181  11.217  16.670  17.819 -0.1701  0.0898  0.0488
11334W        W28182   2.799   1.163   2.695  0.1803  0.2439 -0.1565
11335W        W28183   8.172  13.814   4.662  0.0937 -0.0587  0.0938
11336W        W28184  17.045   2.737  14.033  0.2257  0.1816  0.3313
11337W        W28185   5.483  12.293   0.248 -0.1021  0.0229 -0.0992
11338W        W28186   9.380   4.118   3.140 -0.1794 -0.3775  0.3461
11339W        W28187  11.155   8.009   3.216 -0.1431 -0.1055  0.1001
11340W        W28188   4.265  10.959  17.118  0.0633  0.0485  0.0391
11341W        W28189  15.647   1.945   2.940  0.1570 -0.0459  0.0235
11342W        W28190   1.645   8.256  14.727  0.1746  0.0406  0.1356
11343W        W28191   1.557  12.324   0.235  0.0444  0.3198  0.2881
11344W        W28192   4.796  14.732   2.110 -0.0798 -0.1529 -0.1808
11345W        W28193  14.881  12.352   4.386 -0.0771 -0.1380 -0.1110
11346W        W28194  10.578   3.210   0.053 -0.1707  0.0232  0.1564
11347W        W28195  11.113   6.563   2.373 -0.0535  0.3019 -0.1948
11348W        W28196  15.284   8.847  13.058 -0.0666  0.1336 -0.1362
11349W        W28197  11.203  14.648  14.513 -0.1235  0.0545 -0.3372
11350W        W28198  13.383  12.730   3.542 -0.0692 -0.4939  0.0312
11351W        W28199  14.538   6.037  17.407 -0.3904 -0.0460 -0.0681
11352W        W28200  15.579  15.288   2.176  0.1230  0.1356 -0.2236
11353W        W28201   9.998   7.053   5.014 -0.1304  0.0006 -0.0252
11354W        W28202   4.397   8.389  13.941 -0.1004  0.3062 -0.0610
11355W        W28203   0.484  15.023   2.397  0.4450  0.0281  0.0786
11356W        W28204   0.970   0.041  14.414  0.0567  0.0458  0.4296
11357W        W28205  14.461   9.252   2.716  0.2103 -0.0121 -0.3710
11358W        W28206  15.429  13.823  14.743  0.0273 -0.2293  0.4179
11359W        W28207  12.173  13.661   4.569 -0.2104 -0.2148 -0.1574
11360W        W28208   9.293   9.773   4.874 -0.3340  0.2549 -0.2653
11361W        W28209   5.822   4.009  15.805  0.1620  0.2298 -0.0296
11362W        W28210   9.992  11.921  12.669  0.2840 -0.0881 -0.1582
11363W        W28211   0.644  11.231   4.680 -0.0780  0.2381  0.1411
11364W        W28212   6.755   1.563   3.627 -0.0131  0.0902  0.1201
11365W        W28213   6.965  16.151   2.470  0.1331 -0.1334  0.2808
11366W        W28214  15.512  16.655   4.492 -0.0608  0.1111 -0.0435
11367W        W28215   3.179   9.259  16.685  0.1859  0.0675 -0.1324
11368W        W28216  13.245  14.897  15.413  0.1697  0.3742  0.2878
11369W        W28217   7.687  15.884  15.107 -0.1561 -0.1332 -0.1073
11370W        W28218   0.767   3.397  14.829 -0.0162  0.1955  0.0061
11371W        W28219   1.434   3.582   3.945  0.1782 -0.1388  0.1650
11372W        W28220   2.570   1.567  14.552 -0.0994  0.0365  0.1709
11373W        W28221  10.611   6.253  15.234 -0.2668  0.1207 -0.1471
11374W        W28222   1.361   4.938  14.352 -0.0663 -0.1051 -0.0058
11375W        W28223  10.966  11.498  14.781 -0.0080  0.0627  0.0701
11376W        W28224   7.229   8.967  13.067  0.0193 -0.2398 -0.0724
11377W        W28225  13.625   1.259   4.784 -0.0964 -0.0278 -0.0260
11378W        W28226   5.639   4.142  13.259  0.0573 -0.0780 -0.1177
11379W        W28227  15.504   0.603  15.798  0.0685  0.3181  0.0656
11380W        W28228  11.471   9.560  15.007 -0.0556  0.0070 -0.1319
11381W        W28229   8.826   2.960  12.894 -0.2314 -0.2027 -0.2385
11382W        W28230  11.062   0.133   3.445  0.0301 -0.0137 -0.3748
11383W        W28231   3.780  16.093   5.653  0.0416 -0.2216  0.1358
11384W        W28232   2.807  11.409   1.767  0.0316  0.1745 -0.2959
11385W        W28233   3.737   4.465   5.196  0.0181 -0.3596  0.0704
11386W        W28234   0.583   0.574   2.670 -0.0183  0.0377 -0.1959
11387W        W28235   2.331  13.393  15.423 -0.0386  0.3236 -0.1578
11388W        W28236   8.451   6.147   6.315  0.0059 -0.1484 -0.0643
11389W        W28237   0.039  14.768  13.239  0.1067  0.2487 -0.1813
11390W        W28238  11.647   7.007  12.424 -0.0809  0.0692 -0.1870
11391W        W28239  10.371  15.708  12.498 -0.1730 -0.1861  0.1284
11392W        W28240   4.980   4.138  16.712 -0.3563 -0.0463  0.2271
11393W        W28241   1.307  13.351  12.587  0.0300  0.1903  0.0584
11394W        W28242   5.185   9.643  14.141  0.4364 -0.1639 -0.1387
11395W        W28243   2.476   9.356  14.385 -0.1237 -0.0764  0.3563
11396W        W28244  12.382   0.577   4.659 -0.1311  0.0045  0.4174
11397W        W28245  12.664   6.088   2.272 -0.2031  0.0782 -0.0224
11398W        W28246   3.593  16.782  14.623 -0.0717  0.0589 -0.1203
11399W        W28247   5.542   9.615   3.423  0.1344 -0.0796 -0.0224
11400W        W28248   2.059   7.655   4.294 -0.2863  0.1335 -0.0409
11401W        W28249  15.593   8.304   4.906  0.1953 -0.1019  0.1108
11402W        W28250   8.550  12.228   5.871  0.1312  0.0015 -0.1741
11403W        W28251   4.005   2.272  12.531  0.0789 -0.2541  0.1970
11404W        W28252   6.602  12.624  12.153  0.0289 -0.0107 -0.2437
11405W        W28253  16.264   8.159  15.997 -0.2969 -0.1697 -0.0630
11406W        W28254  10.944   5.791  13.961  0.1831 -0.0330 -0.0424
11407W        W28255  16.900  17.038   1.621 -0.0629 -0.0735  0.0200
11408W        W28256   1.947   2.633  16.017  0.1510 -0.3236  0.1949
11409W        W28257  13.877   5.439   1.967  0.0541 -0.1033 -0.0268
11410W        W28258  11.373  10.684  17.411 -0.2623  0.0784 -0.1877
11411W        W28259  15.444   1.123   3.439  0.1755  0.0965  0.0450
11412W        W28260  11.083  16.419   0.459  0.1348 -0.0015  0.0801
11413W        W28261   8.609   9.312   2.164 -0.1022  0.0281 -0.1229
11414W        W28262  16.751   8.183  15.052  0.1718 -0.0330 -0.0933
11415W        W28263   6.024  14.700   0.091 -0.0853 -0.3549 -0.0700
11416W        W28264  14.374  14.785  13.829  0.0175  0.3951  0.1471
11417W        W28265  13.374   8.443  15.052  0.4902  0.2444  0.0036
11418W        W28266   5.756  13.759  13.633  0.0056  0.2274 -0.0675
11419W        W28267  10.806  16.893  16.215 -0.2645 -0.0031  0.1655
11420W        W28268  11.304  13.668   0.508 -0.0987  0.2712  0.3320
11421W        W28269  14.887   4.820   4.242  0.1591  0.2513 -0.1164
11422W        W28270   8.916   2.628  16.354 -0.1427  0.0387  0.1342
11423W        W28271  10.285   6.505  12.861  0.1802  0.0900 -0.2289
11424W        W28272  13.028   8.559   5.875  0.3394 -0.2663 -0.0480
11425W        W28273   1.750  15.814  15.046  0.2222 -0.2615 -0.0294
11426W        W28274   0.510  13.264   1.512  0.0375 -0.0483  0.0095
11427W        W28275  12.066   6.486   2.712  0.0970  0.2347  0.0935
11428W        W28276  15.231   0.620  13.223  0.2857  0.1324  0.2728
11429W        W28277   4.579   7.159   4.906  0.2784 -0.3469 -0.1945
11430W        W28278   0.685  10.846  11.439 -0.0891 -0.0363  0.2049
11431W        W28279   9.372  10.277  12.303 -0.2174 -0.3796 -0.0637
11432W        W28280   4.076   2.665   0.643  0.0264  0.0013 -0.1651
11433W        W28281   3.680  14.230  12.329 -0.0895  0.0289  0.0081
11434W        W28282   8.472   8.693  12.548 -0.0305 -0.2651 -0.0467
11435W        W28283   7.504  14.892  12.367  0.0169 -0.1624  0.1734
11436W        W28284  16.901  12.480  11.362 -0.1378  0.1526 -0.0009
11437W        W28285  14.885  14.928  17.555 -0.2493  0.1213  0.1002
11438W        W28286  15.488  11.197  12.652 -0.0501 -0.2350 -0.1738
11439W        W28287  11.678  12.554  15.891 -0.1859 -0.4015  0.1261
11440W        W28288   4.334   7.376  15.820 -0.1176  0.0425  0.2291
11441W        W28289   2.560  10.918  16.186 -0.3402  0.0678 -0.1686
11442W        W28290   7.117   4.134  13.608  0.2872  0.0837  0.0798
11443W        W28291  10.653  13.999  16.434  0.0132  0.1151 -0.3769
11444W        W28292  16.985   1.940   3.676 -0.0651 -0.0496  0.1521
11445W        W28293   0.455   8.497  12.937  0.0638 -0.2272  0.4531
11446W        W28294   4.735   7.970   0.590 -0.1198 -0.0021  0.1517
11447W        W28295   3.242   2.009  11.742  0.3378 -0.2234 -0.3551
11448W        W28296  10.537   6.035   0.417  0.2484 -0.1702 -0.2451
11449W        W28297   6.267   8.265  12.737  0.1502  0.0677  0.1163
11450W        W28298   8.701  12.778  15.761  0.1895 -0.1110 -0.0639
11451W        W28299   5.393  16.300  17.792  0.0242 -0.0180 -0.0398
11452W        W28300  12.945   6.570   0.526  0.3336 -0.1781  0.0320
11453W        W28301  15.512  15.096  13.357 -0.0851  0.1666 -0.0111
11454W        W28302  15.760  14.243  14.615 -0.3276  0.1576 -0.0895
11455W        W28303   6.197   5.520  14.727 -0.0100  0.0888  0.0955
11456W        W28304   8.937  12.327   2.318  0.0120 -0.3433 -0.0895
11457W        W28305   1.019   0.774  13.268  0.1638  0.0230  0.1127
11458W        W28306   1.811   3.839  15.458 -0.0203  0.0109  0.2389
11459W        W28307   4.012  11.339  15.760 -0.0050  0.0291  0.1053
11460W        W28308   9.218   6.896   3.661 -0.2128  0.3095 -0.0114
11461W        W28309   8.983   3.106   5.212 -0.0571  0.1363  0.0850
11462W        W28310   7.639   0.877   0.586 -0.0638  0.0727  0.0584
11463W        W28311  12.699   5.571   4.115 -0.1004 -0.3152 -0.0738
11464W        W28312   5.928   9.770  12.761 -0.0597  0.0533  0.3569
11465W        W28313   9.484   6.454  16.389  0.0499 -0.1217  0.1717
11466W        W28314   0.660   1.442   6.636 -0.2891  0.1298 -0.0250
11467W        W28315   7.270  13.291  16.521  0.0843 -0.0535 -0.1234
11468W        W28316   5.447  11.467  16.333 -0.1090  0.1606  0.1484
11469W        W28317  12.223   3.703  15.098 -0.2647 -0.0496  0.0705
11470W        W28318   4.337   3.798   5.379  0.2343 -0.1342  0.2828
11471W        W28319   0.006  14.827   2.532  0.1170 -0.0231  0.3824
11472W        W28320   6.373  11.525   0.786 -0.0515  0.2899 -0.2447
11473W        W28321   8.880   5.812   4.443 -0.0079 -0.1327  0.3082
11474W        W28322   6.125   9.984   0.301  0.0351 -0.1181 -0.0636
11475W        W28323  16.303   6.245  15.753  0.3564  0.1653  0.2986
11476W        W28324  12.734  16.215  17.710  0.0305  0.0353  0.1086
11477W        W28325   9.596   1.981  14.324  0.0214  0.1107  0.0824
11478W        W28326  11.371   3.770   2.704  0.0778 -0.1124 -0.3568
11479W        W28327   1.202  11.702  16.181  0.1233  0.0454  0.1127
11480W        W28328  10.034  14.951   5.542  0.0014  0.0433  0.1600
11481W        W28329  12.487  15.283   4.819  0.1042  0.2298 -0.0889
11482W        W28330   5.672   3.628  16.180  0.0136  0.0363 -0.0377
11483W        W28331  16.643  13.574  15.790 -0.2543  0.0026  0.0553
11484W        W28332  10.627   9.505   6.425 -0.1948 -0.3940  0.0350
11485W        W28333   1.969   1.704   0.983  0.3306  0.0819  0.4089
11486W        W28334  12.966   8.095   2.740  0.0427  0.2699 -0.2216
11487W        W28335  11.130   0.345   0.791  0.1032  0.0449  0.3187
11488W        W28336   8.237   3.494  13.137  0.0176  0.0270 -0.2179
11489W        W28337   6.765  13.304   4.665  0.1076 -0.0469  0.1825
11490W        W28338   0.886   5.936  14.108  0.1712 -0.0753  0.1387
11491W        W28339   1.834   1.625  13.560  0.0306 -0.1930  0.2063
11492W        W28340  14.163   5.527   5.111 -0.1089 -0.0528  0.1154
11493W        W28341   0.013   8.451   5.193  0.4642  0.1736  0.2418
11494W        W28342  12.718  14.540  14.066  0.2155  0.1044 -0.1968
11495W        W28343   4.729   8.810  16.375 -0.0777  0.0877 -0.1882
11496W        W28344  10.571   1.549   2.202  0.1426 -0.0312  0.2723
11497W        W28345  10.032  10.904  14.343 -0.0879 -0.2261 -0.2670
11498W        W28346   6.559   3.389   3.610  0.1586 -0.0374 -0.0185
11499W        W28347   4.453   4.851   1.506  0.1476 -0.3146  0.0760
11500W        W28348   1.969   0.161  12.573  0.1933 -0.1156  0.2077
11501W        W28349  15.012   0.176  12.649 -0.2674 -0.2002  0.0783
11502W        W28350  12.519  12.109   4.306 -0.3661 -0.1603  0.1444
11503W        W28351   7.918  14.527  14.506  0.3262  0.2181  0.0691
11504W        W28352   9.344  15.445   2.233  0.0958  0.0315 -0.2180
11505W        W28353   5.176   4.078   0.246 -0.0962 -0.0210  0.1036
11506W        W28354   2.841   0.008   3.038  0.1457  0.1293  0.1455
11507W        W28355  15.824  11.974  14.521 -0.0929 -0.0736  0.3983
11508W        W28356   5.196  14.470  14.633  0.1403 -0.0193 -0.0167
11509W        W28357   0.975   2.559   0.924 -0.0942 -0.0168 -0.1535
11510W        W28358   8.451  11.092  15.624 -0.3332  0.2198 -0.3529
11511W        W28359   3.098  15.073   3.097  0.1177 -0.1637  0.0249
11512W        W28360   1.236   3.763  16.444 -0.1061  0.0571 -0.2604
11513W        W28361  10.375   7.922  16.212 -0.2283  0.2625 -0.0632
11514W        W28362   2.222   8.532   2.558  0.2053  0.0531 -0.0539
11515W        W28363  12.184   9.491   4.866 -0.1503  0.1184  0.0797
11516W        W28364   2.216  13.137   3.652 -0.0966  0.0534  0.0719
11517W        W28365   3.070  10.475  14.721  0.2984 -0.1574 -0.1392
11518W        W28366  10.840  10.785  13.315 -0.0887  0.4831 -0.1691
11519W        W28367   5.465   8.286  12.890  0.0874  0.4273  0.0546
11520W        W28368   6.463  11.300  15.429 -0.1151  0.1381 -0.0815
11521W        W28369  13.211  15.354  15.622  0.0528 -0.3144 -0.2742
11522W        W28370  17.058  14.009  14.686  0.3070  0.0288 -0.1932
11523W        W28371  14.819   0.594  14.003  0.1992 -0.0399  0.0463
11524W        W28372   2.782   8.980  17.402 -0.0596  0.1830 -0.2027
11525W        W28373   5.390  13.491  13.226  0.1267  0.2116  0.2163
11526W        W28374   6.746  13.375   1.243  0.3412 -0.0329 -0.1393
11527W        W28375   2.724   5.558  13.767  0.2045 -0.1808  0.0814
11528W        W28376  12.228  11.667  16.979  0.0006 -0.1345  0.0061
11529W        W28377   5.189   8.825  17.239  0.0363  0.0701  0.0778
11530W        W28378  14.088   2.563  14.486 -0.1977 -0.0936  0.1909
11531W        W28379  16.970  11.774  15.575  0.0446 -0.3084 -0.1953
11532W        W28380   9.121  13.274   2.121 -0.0544  0.0037 -0.1663
11533W        W28381   5.290  11.856   2.503 -0.1783  0.1555  0.3938
11534W        W28382   7.627  10.422   1.384 -0.0275  0.2967 -0.0750
11535W        W28383   7.924   9.648  17.454  0.0869  0.2538  0.2003
11536W        W28384   2.035   3.278   2.631 -0.0395 -0.2362 -0.1364
11537W        W28385   3.060   1.970  15.272  0.0151  0.5205  0.1311
11538W        W28386  15.402   1.629  17.676  0.0197 -0.0656  0.0488
11539W        W28387   0.672   4.338  17.503 -0.3018 -0.2247 -0.1346
11540W        W28388  15.628  15.471   1.632 -0.0324  0.2748  0.0488
11541W        W28389  12.050   5.416   4.735 -0.0273 -0.1174  0.2773
11542W        W28390   4.702   4.249   1.431  0.1849 -0.1665 -0.2014
11543W        W28391  15.276  13.895   2.705 -0.1311 -0.0284  0.0286
11544W        W28392   4.209   0.904  12.674 -0.2180  0.1383  0.1917
11545W        W28393   6.727  15.224   5.043  0.0635 -0.2370  0.0688
11546W        W28394   5.913  12.168   5.023  0.2607  0.1821 -0.0833
11547W        W28395   4.939  10.841   1.982  0.2959 -0.1573 -0.1792
11548W        W28396   5.849  12.175   5.578 -0.2696  0.3297  0.1414
11549W        W28397   1.182  11.980   2.441  0.0151  0.0664  0.1517
11550W        W28398  15.091  15.564   2.704  0.2042 -0.2348 -0.1567
11551W        W28399   7.078   7.110  15.346  0.1979  0.1041 -0.3467
11552W        W28400   7.531   1.741  11.952 -0.1207 -0.0587  0.1088
11553W        W28401   7.008   2.684  13.967 -0.2033  0.0364 -0.0273
11554W        W28402   5.616  15.989   3.235 -0.1707  0.3575  0.0723
11555W        W28403   4.011   2.362  17.270 -0.3615  0.2799 -0.2560
11556W        W28404  15.132   1.626   0.762  0.0666  0.3413  0.0387
11557W        W28405  16.063   4.676   2.190 -0.1201  0.0387 -0.2678
11558W        W28406   3.923   3.827  16.245 -0.1410 -0.1523  0.0115
11559W        W28407  10.666   6.325  16.155 -0.0946  0.0304 -0.2429
11560W        W28408  14.568   7.961   1.469  0.0975  0.2946 -0.0723
11561W        W28409  13.462   5.277  13.590  0.1445  0.0589 -0.1635
11562W        W28410   6.110  10.024   4.421 -0.0203  0.0116  0.3172
11563W        W28411  11.134   7.484  17.738  0.0518  0.0020  0.0420
11564W        W28412  11.391  12.619   0.256 -0.0023  0.2208  0.0872
11565W        W28413  10.009  10.249  14.292 -0.1058 -0.1229  0.2621
11566W        W28414   0.282   4.376  12.454 -0.0154 -0.0391 -0.1632
11567W        W28415   2.279   6.235  15.342  0.0916 -0.0985  0.1039
11568W        W28416  15.833   4.822  13.789  0.0671 -0.0394 -0.1475
11569W        W28417   1.983   0.062  11.682 -0.1300 -0.1158 -0.0221
11570W        W28418   9.108   3.445   1.405  0.1839  0.3163  0.1629
11571W        W28419   2.183  15.162   0.272 -0.0039  0.3095  0.2113
11572W        W28420  15.238   8.675  14.188  0.1351 -0.1292  0.2239
11573W        W28421  11.815   4.950   3.298  0.1677 -0.0429  0.1521
11574W        W28422  12.670  16.518  12.809 -0.1279 -0.1277 -0.0961
11575W        W28423   3.781  12.251   0.584 -0.0673 -0.0016  0.0156
11576W        W28424  14.027  13.130  12.325 -0.4387 -0.1292  0.0199
11577W        W28425  16.058  16.468  15.539  0.0783 -0.1190 -0.2759
11578W        W28426  14.222   6.517   5.929  0.2454 -0.1648 -0.1337
11579W        W28427   9.456   5.267  12.512 -0.0144 -0.0673 -0.2631
11580W        W28428   6.043   7.786   1.179  0.3280 -0.1051  0.0569
11581W        W28429  10.613   1.011  14.197  0.1284 -0.0189  0.1766
11582W        W28430   6.693  13.931  16.854 -0.2626  0.0826 -0.0178
11583W        W28431   2.984   5.697   3.242  0.0852 -0.0622 -0.0602
11584W        W28432   9.117  14.070  16.220  0.1381  0.2025 -0.1511
11585W        W28433  11.925  11.995  15.153  0.0311 -0.1781 -0.0671
11586W        W28434  13.350   6.737  16.361 -0.3161 -0.2638  0.1123
11587W        W28435  16.552   6.911  16.923  0.1696  0.0506  0.2768
11588W        W28436   5.080   1.818  13.126  0.1284 -0.2757  0.0291
11589W        W28437   2.763   8.762   4.306  0.1619 -0.0528 -0.0537
11590W        W28438   2.323  14.487  14.909  0.2647 -0.1636  0.1093
11591W        W28439   1.373  15.228   0.855  0.0467 -0.0189  0.0674
11592W        W28440   6.185   5.647  16.192 -0.3074  0.3576  0.1751
11593W        W28441   5.819   5.254  14.969  0.0262 -0.0359 -0.0433
11594W        W28442   1.451   5.510  14.557 -0.2784  0.1853  0.2332
11595W        W28443   3.699  11.681  17.193 -0.1729 -0.1097  0.0019
11596W        W28444  10.537   1.698  14.008  0.0815 -0.0169 -0.0450
11597W        W28445  13.867   9.106  16.856 -0.0461 -0.1290  0.0098
11598W        W28446  14.675  13.629  15.534 -0.0303  0.0020  0.0005
11599W        W28447   8.373  15.831   0.727 -0.1547 -0.0211  0.1017
11600W        W28448   6.986   8.590  12.828  0.0018 -0.0376 -0.1894
11601W        W28449   5.517   0.526   0.345 -0.1151  0.1888 -0.0202
11602W        W28450   4.148   6.345  13.211 -0.1405  0.2268  0.1828
11603W        W28451   3.631   4.198  16.481 -0.1279  0.1791 -0.2111
11604W        W28452   6.095  16.199   1.471 -0.1691 -0.5395  0.0785
11605W        W28453   4.664  15.020  12.651 -0.2650 -0.0279  0.0207
11606W        W28454  12.653   2.462  14.581  0.1427 -0.2085 -0.1655
11607W        W28455  14.027   4.374  14.419  0.2101 -0.0005 -0.0504
11608W        W28456   7.234   0.861  12.039 -0.0142 -0.1331  0.0033
11609W        W28457   1.398   4.912  17.777  0.1322 -0.1710 -0.0653
11610W        W28458  10.441   2.824   2.899 -0.4750  0.2949 -0.0917
11611W        W28459  11.519   2.667   4.396  0.0220 -0.1594  0.0167
11612W        W28460  16.391   6.619   0.077  0.1834 -0.2936  0.0562
11613W        W28461  17.037   8.419  16.672 -0.4655 -0.0894 -0.0001
11614W        W28462  13.075  13.452   2.592  0.1024 -0.2671  0.2268
11615W        W28463   1.781   4.500   5.804  0.3073  0.1356  0.1595
11616W        W28464  10.913  17.013  15.286 -0.0578  0.1644 -0.0015
11617W        W28465  14.781   0.059   0.491 -0.0168  0.0168 -0.0968
11618W        W28466   6.589   1.531   1.814  0.2193 -0.0291  0.3171
11619W        W28467  14.261  15.101  13.190 -0.2802 -0.0399  0.0793
11620W        W28468  15.423   1.423  16.427 -0.2473 -0.2795 -0.2243
11621W        W28469  10.264  14.962  15.029 -0.0906 -0.2186 -0.1266
11622W        W28470  12.192   5.167   3.557  0.0705 -0.2009 -0.1499
11623W        W28471  14.558  12.083   3.294 -0.1551 -0.1246  0.0288
11624W        W28472   7.887  16.262   6.118  0.0142 -0.0846 -0.2010
11625W        W28473  10.333  11.950  14.518  0.0989  0.2156 -0.3300
11626W        W28474   9.802  12.733  14.122  0.1234 -0.0386  0.2313
11627W        W28475  14.578  13.397  17.293 -0.0549  0.3407 -0.1540
11628W        W28476   0.550   3.521   2.235  0.3037  0.2016 -0.0640
11629W        W28477   8.769  10.614   5.489 -0.1633 -0.0243  0.0953
11630W        W28478   2.611   9.923   3.698 -0.0330  0.1345  0.2033
11631W        W28479  13.566   8.877   2.012  0.5825  0.1740 -0.3332
11632W        W28480  13.597  16.067  15.010 -0.0786  0.0611  0.2074
11633W        W28481   3.827  13.651  17.099 -0.0308  0.0723 -0.0477
11634W        W28482  12.295   6.906  14.702 -0.0500 -0.3268 -0.1387
11635W        W28483   2.150  15.956   5.828 -0.2930  0.0171 -0.2287
11636W        W28484   4.313  13.207   0.241 -0.0981 -0.0536 -0.1007
11637W        W28485  11.098   6.942   5.080  0.2178 -0.0318  0.2381
11638W        W28486   8.254   8.524  12.094  0.0855 -0.0138  0.3011
11639W        W28487   8.284  10.262   0.831  0.0079  0.1571  0.0511
11640W        W28488   7.462   8.572   4.454 -0.0785  0.2221  0.1348
11641W        W28489   3.696   9.530   1.389 -0.4970  0.2257  0.0651
11642W        W28490   4.728   6.303   0.658 -0.2890 -0.3441  0.0729
11643W        W28491  16.227  13.981   0.153 -0.2320  0.0632 -0.1607
11644W        W28492   5.783  13.798   2.399  0.2108  0.1121 -0.1488
11645W        W28493   4.768  15.535  16.228  0.0233  0.2646 -0.0714
11646W        W28494  16.941  12.011  13.577 -0.6009  0.3391 -0.0347
11647W        W28495  12.384   9.718  15.487  0.1355  0.1310 -0.0229
11648W        W28496  15.008   4.577   6.544 -0.0919  0.0848 -0.2293
11649W        W28497   0.060   8.000  17.096  0.1692  0.2051  0.1039
11650W        W28498   0.631  12.386  17.050 -0.0631 -0.0496  0.1162
11651W        W28499   7.869   1.036  15.996  0.1769  0.5224 -0.0035
11652W        W28500  11.261   6.825   1.242  0.2768  0.0178  0.0076
11653W        W28501   6.332   0.537   0.206 -0.2461 -0.0967 -0.1863
11654W        W28502   7.013  12.319   3.452 -0.2574  0.2867 -0.1826
11655W        W28503   0.990   7.229   0.098  0.2224 -0.0184  0.0734
11656W        W28504   5.944  15.978  11.882  0.2339 -0.1057 -0.2598
11657W        W28505   6.638  11.865  17.826 -0.0116 -0.1414 -0.2142
11658W        W28506   1.423  14.799  16.344 -0.1191 -0.0695 -0.2083
11659W        W28507   8.550   4.929   4.248  0.0472  0.1152  0.3321
11660W        W28508  13.549  15.716   6.418 -0.0099  0.0946  0.0316
11661W        W28509   2.114   0.447  17.825 -0.2115  0.0004 -0.0157
11662W        W28510   0.829   3.289   5.845 -0.3006 -0.0594 -0.0603
11663W        W28511  12.944   6.344  16.459  0.0847 -0.0862 -0.0450
11664W        W28512  10.571  11.053   3.610 -0.2052 -0.0335 -0.0594
11665W        W28513   2.752   8.535   1.783 -0.3745 -0.0437  0.1714
11666W        W28514   5.514  15.939  13.005 -0.1813  0.1556  0.2531
11667W        W28515  16.235  14.469   0.445 -0.0501  0.2105  0.2716
11668W        W28516   8.060  14.336   0.142  0.0755  0.1413  0.0204
11669W        W28517  13.380  12.683   2.152  0.2950 -0.0400 -0.0539
11670W        W28518   9.889   8.758  13.534  0.0756  0.1045  0.1055
11671W        W28519   5.300   9.290  15.543  0.1801 -0.1958 -0.2291
11672W        W28520   9.607  12.356  16.270 -0.1920 -0.0097  0.0064
11673W        W28521  14.827   3.735  14.232 -0.1137  0.0304  0.0427
11674W        W28522   1.631  10.292  16.421 -0.1618  0.1729  0.2023
11675W        W28523  11.583  14.929  15.666  0.2604 -0.0024  0.3107
11676W        W28524   8.209   7.270  17.722 -0.0218 -0.2363 -0.0705
11677W        W28525   8.052   6.778   3.707 -0.1810  0.3439  0.0486
11678W        W28526  16.720   2.027  14.526 -0.0742  0.0124 -0.1662
11679W        W28527   1.556  11.719   5.616 -0.2479 -0.1977  0.1934
11680W        W28528   3.981  17.009   1.814  0.1798 -0.1998  0.0264
11681W        W28529  11.892   5.820  14.105  0.3078 -0.1202 -0.0069
11682W        W28530  13.469  12.031   2.717 -0.0697 -0.0228 -0.2276
11683W        W28531  12.541   8.623  13.035 -0.2748 -0.1047  0.2818
11684W        W28532   5.492  12.644   4.270  0.0289 -0.0249  0.0837
11685W        W28533   5.729  11.744   1.223 -0.4184 -0.1124 -0.0989
11686W        W28534  17.001   3.608  11.391  0.2715 -0.0153 -0.2158
11687W        W28535   4.459  10.967  13.168 -0.1297 -0.2427 -0.1531
11688W        W28536  12.922  16.430   4.275  0.1156  0.0164 -0.2720
11689W        W28537   4.777   7.725  15.754 -0.1279  0.2672 -0.1798
11690W        W28538   2.655   1.668   4.336  0.3110 -0.0016 -0.1978
11691W        W28539   8.631   4.615   0.251  0.0828 -0.1051  0.1005
11692W        W28540   0.082  10.535   0.691  0.0548  0.0112 -0.1320
11693W        W28541   4.228   1.955  14.214  0.1324 -0.2507  0.3741
11694W        W28542  13.483  12.794   5.362 -0.0031 -0.0549  0.0776
11695W        W28543  13.530  13.140   2.656 -0.0193 -0.3389  0.1498
11696W        W28544   0.427  16.420   3.578  0.0587 -0.1982  0.0054
11697W        W28545   2.665   4.588  16.262 -0.0492 -0.1232  0.0645
11698W        W28546   6.053   9.659   6.237 -0.4200 -0.1051  0.3469
11699W        W28547   4.858  13.483   2.767 -0.1759 -0.0716 -0.1816
11700W        W28548  12.411  14.971  15.368 -0.0427  0.0435  0.0091
11701W        W28549  13.924  13.539  14.870 -0.4492 -0.1130  0.3123
11702W        W28550   0.019   9.714   0.044 -0.0236  0.0136  0.2840
11703W        W28551  10.743  13.155   4.680  0.3498 -0.0207 -0.0789
11704W        W28552  15.871  15.446  13.447  0.1303 -0.2262  0.2040
11705W        W28553   2.699  13.604   5.130 -0.2434 -0.2070 -0.0231
11706W        W28554  12.482   1.336  16.194  0.1672  0.0952  0.1862
11707W        W28555   4.940   3.962   2.336 -0.2701  0.1391 -0.0810
11708W        W28556   7.493  12.629  14.409  0.1122  0.0864  0.1711
11709W        W28557   9.013   9.253   4.188 -0.0570  0.0865  0.0673
11710W        W28558  11.783  11.340  11.949 -0.1876  0.0697 -0.0384
11711W        W28559  14.991   1.258  13.799  0.3669  0.2471  0.2178
11712W        W28560   0.595  13.605  13.298  0.0516 -0.1404  0.2467
11713W        W28561  11.083   9.039   4.626  0.2066 -0.4113  0.0302
11714W        W28562  10.283   4.414  12.867 -0.3437  0.1433 -0.0323
11715W        W28563   2.172   2.537  14.063  0.3254  0.0190 -0.0123
11716W        W28564   7.408   8.580  16.713 -0.2562 -0.0006  0.0716
11717W        W28565  12.230   7.231   3.675 -0.2822  0.2281 -0.0303
11718W        W28566   3.268   4.725  17.848 -0.0464 -0.0785 -0.2378
11719W        W28567   4.501  13.883   4.712 -0.0430  0.1398 -0.0980
11720W        W28568  11.685   0.785   5.007 -0.0286  0.3080  0.0438
11721W        W28569   4.866  11.907  13.471 -0.1735  0.0036 -0.2917
11722W        W28570   7.910   8.460  14.275  0.1263  0.1557  0.1017
11723W        W28571  12.506   2.207   5.334  0.0758 -0.0884 -0.1806
11724W        W28572   2.669   2.335  14.965 -0.2099 -0.1124 -0.1511
11725W        W28573  14.669  15.515  16.865 -0.0679  0.1940 -0.0761
11726W        W28574   5.826   3.706   4.196  0.1290 -0.0116 -0.1853
11727W        W28575   1.289  16.907  12.206 -0.1690 -0.1879  0.0955
11728W        W28576  15.627   8.614  14.530  0.2848  0.2719  0.3934
11729W        W28577   2.753   0.172  16.245 -0.1471  0.2450 -0.2323
11730W        W28578   3.266  16.031  14.077  0.1062  0.1282 -0.0639
11731W        W28579   4.141  14.980  12.408 -0.1280 -0.0770  0.1371
11732W        W28580   7.056  10.708  17.329  0.0953  0.1006  0.0647
11733W        W28581   9.673   5.666   2.019 -0.1528 -0.3459  0.0485
11734W        W28582   2.693  16.404   4.763 -0.0796  0.1035 -0.2109
11735W        W28583   5.616   1.802   5.405 -0.3274 -0.3525 -0.0340
11736W        W28584   5.955   7.524   4.425  0.2199 -0.0434 -0.0327
11737W        W28585   3.926   0.749   1.287 -0.0998 -0.0300  0.1720
11738W        W28586   4.555   5.505   5.171  0.2383 -0.3088  0.2291
11739W        W28587   0.998   0.497  14.581  0.4000 -0.4020 -0.0949
11740W        W28588  11.954  12.085   4.221 -0.1457 -0.1117 -0.2932
11741W        W28589  12.184   7.288  17.237  0.2769  0.3295  0.1050
11742W        W28590   0.649  15.622  15.370  0.1506  0.0401 -0.0266
11743W        W28591   1.261  16.153   2.008  0.1222  0.2462 -0.1541
11744W        W28592   0.410   7.716  13.537  0.0297 -0.2169 -0.2687
11745W        W28593   0.144   4.520   5.697  0.1135  0.1271 -0.0067
11746W        W28594   0.349   6.173  13.177 -0.0735  0.0317 -0.1760
11747W        W28595   3.481   1.039   4.417  0.0107  0.3358 -0.0090
11748W        W28596   5.032  15.209  12.286  0.1774  0.3751  0.0247
11749W        W28597   8.785   9.016   0.585  0.0907  0.4702 -0.1971
11750W        W28598  13.110  13.755  13.909  0.3284  0.0246 -0.1399
11751W        W28599  14.758  15.666   4.079  0.0361  0.0992 -0.0535
11752W        W28600  11.278   1.401  13.244 -0.1378  0.1652  0.0415
11753W        W28601   1.023   7.252  17.146  0.2351 -0.2053  0.2664
11754W        W28602  10.880  14.124  15.827 -0.2881 -0.0499  0.0529
11755W        W28603   2.183  12.317  12.254 -0.0088 -0.1547 -0.0124
11756W        W28604   2.646  11.907  13.773  0.1794 -0.1840 -0.1800
11757W        W28605  10.043   1.275   3.147  0.0079  0.5376 -0.3150
11758W        W28606  16.926  13.101   0.406  0.3566 -0.0025  0.4395
11759W        W28607   7.647  16.832  11.665 -0.0353  0.1393  0.1128
11760W        W28608   5.130   4.682   2.439  0.0914  0.1067 -0.2726
11761W        W28609   2.080   3.974   5.141  0.2581  0.2123 -0.1536
11762W        W28610  13.518   6.194  17.297  0.0356 -0.1456 -0.3576
11763W        W28611  10.848   9.817   6.020  0.0937 -0.1422  0.1137
11764W        W28612   8.879   6.558   3.966 -0.2066 -0.2854 -0.0558
11765W        W28613  12.757   3.962  13.242  0.1490  0.2354  0.0712
11766W        W28614  11.366  15.094  14.366  0.0363 -0.0132  0.1676
11767W        W28615   1.661  13.030  11.838 -0.0287 -0.2190  0.2245
11768W        W28616   9.977   4.340  17.812  0.1554 -0.0201  0.1409
11769W        W28617  13.493   2.981   2.410 -0.2517  0.1670  0.1035
11770W        W28618   0.228   3.316   0.978 -0.0793 -0.0414  0.2398
11771W        W28619   6.935   1.568  12.744  0.0213 -0.0576 -0.0810
11772W        W28620  12.191  10.891   4.272 -0.0686  0.2404 -0.1517
11773W        W28621   1.795   5.909   0.661  0.0910 -0.1199  0.1505
11774W        W28622  13.553  13.958  17.616 -0.2094  0.0700 -0.0621
11775W        W28623  11.195   2.923   3.633 -0.0962 -0.1651 -0.0195
11776W        W28624   7.875   8.414  16.001 -0.1018  0.0421  0.0297
11777W        W28625  15.304  11.105   2.825 -0.0256 -0.0157  0.0575
11778W        W28626   7.561  11.070   2.733 -0.0072  0.0722  0.0328
11779W        W28627   1.206  16.971  15.743 -0.3798  0.3165  0.2107
11780W        W28628  11.885   5.384  12.965 -0.0949  0.0433  0.0393
11781W        W28629   3.701  14.601  17.791 -0.2111  0.1134 -0.0995
11782W        W28630   5.291   5.212   5.314  0.1447  0.0580  0.3326
11783W        W28631  13.961  13.104   3.823 -0.2156 -0.0279 -0.1250
11784W        W28632  11.247   6.587   5.533 -0.2539 -0.1469 -0.1806
11785W        W28633  14.297  11.025   5.443  0.1062  0.0906  0.0428
11786W        W28634   9.139  13.888   1.611  0.2268 -0.1401  0.2164
11787W        W28635   2.054  16.046  16.263 -0.3372 -0.0958 -0.2411
11788W        W28636  12.884   2.219  15.839  0.2384 -0.0214 -0.1861
11789W        W28637  12.414   1.579   5.238 -0.1424  0.0626 -0.1547
11790W        W28638  12.334   6.145   1.861  0.1856  0.0941  0.0819
11791W        W28639   4.094   8.825  14.124 -0.1055  0.2812  0.2110
11792W        W28640  15.756   5.292   1.420 -0.3220 -0.1827  0.0257
11793W        W28641  14.935   6.433  17.385 -0.2195 -0.0107  0.0417
11794W        W28642  10.677   5.622  16.808  0.2200 -0.0014 -0.2103
11795W        W28643   3.309   9.300  13.146  0.1009  0.0540 -0.2551
11796W        W28644  12.527  11.925   3.036 -0.0099  0.2344 -0.1123
11797W        W28645   2.492   7.007  17.213  0.0548 -0.1945  0.1247
11798W        W28646   2.999   1.308  13.250  0.1969 -0.0876  0.0513
11799W        W28647  15.319   1.835  17.221 -0.3368 -0.2020  0.1803
11800W        W28648   7.471   4.022   5.589 -0.1456  0.1224  0.0356
11801W        W28649  17.060  10.850  17.156 -0.0007 -0.0571 -0.1205
11802W        W28650  14.655  14.398  17.360 -0.0586  0.1304 -0.1779
11803W        W28651  13.753  12.205  14.142 -0.2937  0.4053  0.0580
11804W        W28652   9.796  12.941  13.336  0.1609 -0.1421 -0.0162
11805W        W28653   5.794   6.613   3.790 -0.1231  0.1192  0.2597
11806W        W28654   8.933   7.164  15.760  0.2965 -0.0737  0.0164
11807W        W28655   9.357   9.120   1.463  0.1686  0.0617 -0.1123
11808W        W28656  11.012   0.628  15.970 -0.0432  0.0156  0.3962
11809W        W28657   7.105  14.220  16.862  0.2429  0.3395 -0.0968
11810W        W28658  10.636   0.218  17.440 -0.0224  0.2416 -0.3605
11811W        W28659  13.249  10.013   3.647  0.0007 -0.0893  0.2461
11812W        W28660   7.362  12.857   1.394  0.1409 -0.0423  0.0047
11813W        W28661  16.124   1.847   1.838 -0.1080  0.3262 -0.0672
11814W        W28662  10.313  10.503   0.048 -0.0737  0.2960 -0.0529
11815W        W28663   6.650  14.825  15.698  0.0368 -0.1393  0.2274
11816W        W28664  16.942   7.546   4.373 -0.0976 -0.2349 -0.0825
11817W        W28665  12.820   6.631   0.030  0.0209 -0.2624  0.1012
11818W        W28666   4.041  15.500  17.638 -0.1795  0.0955  0.1063
11819W        W28667  15.882   9.193  14.468  0.0674  0.0772  0.2352
11820W        W28668   1.750   2.259   1.086 -0.3339 -0.2311  0.1533
11821W        W28669   2.642   9.194   2.112 -0.0769 -0.1310 -0.1794
11822W        W28670   0.202   4.530  15.428  0.0996 -0.0781  0.0188
11823W        W28671  12.281  10.521  17.257  0.4370  0.1655 -0.1201
11824W        W28672  10.821   4.373   0.426 -0.1153  0.1121 -0.2434
11825W        W28673  10.893  11.166   2.289  0.0536  0.0491 -0.0310
11826W        W28674   6.234   1.364  14.767 -0.0811  0.1578  0.0113
11827W        W28675   2.865  12.220  15.941 -0.0797 -0.1992  0.1689
11828W        W28676  12.366  13.753   4.121 -0.2012  0.1114  0.3758
11829W        W28677  14.064   5.114   3.665 -0.2106  0.1254  0.2457
11830W        W28678   0.757  16.107   1.741  0.0934  0.1980 -0.0214
11831W        W28679   0.918   1.551  13.100  0.1071 -0.0356  0.2546
11832W        W28680   5.472  15.443  17.616 -0.0759  0.1887 -0.0904
11833W        W28681   0.372   8.741  14.123  0.0428 -0.2124  0.1210
11834W        W28682  11.858   9.639   4.528 -0.0897 -0.0956 -0.1413
11835W        W28683   1.883  12.759  17.382 -0.0961  0.1478 -0.2045
11836W        W28684  15.675   7.891   4.443  0.0330 -0.1671 -0.0775
11837W        W28685   8.670   3.324  14.209  0.0083 -0.2322 -0.0977
11838W        W28686  10.334   1.697  15.376  0.3257  0.2963  0.2235
11839W        W28687   2.007   8.583  15.091  0.0108  0.0441  0.1794
11840W        W28688   7.278  12.598  17.159  0.2950  0.0345  0.1078
11841W        W28689   7.095  14.367  15.025  0.0691  0.1278 -0.2851
11842W        W28690  13.868  14.067   1.041  0.2108 -0.0207 -0.0764
11843W        W28691  13.166  15.665  16.626 -0.4404  0.0388 -0.3310
11844W        W28692  13.258  10.500   3.908  0.0101 -0.0960 -0.0874
11845W        W28693   2.854   8.158   3.963 -0.1248 -0.3393 -0.0542
11846W        W28694  15.070  15.940   3.244  0.0662  0.2280 -0.2262
11847W        W28695  12.361   3.040  12.189 -0.0505  0.0141 -0.1990
11848W        W28696  16.255  11.384   0.740  0.0780  0.1019  0.2551
11849W        W28697  11.119   8.598  16.014 -0.0927 -0.1890  0.0249
11850W        W28698   0.173   4.504   3.653  0.1669  0.3683 -0.0934
11851W        W28699   4.148   3.143   6.034  0.0837  0.1028  0.0618
11852W        W28700   7.296   2.054  15.506 -0.0509 -0.0955 -0.3379
11853W        W28701  14.273   4.517   0.313 -0.1418 -0.0681  0.1087
11854W        W28702  12.701   9.735   2.021  0.3164  0.0526 -0.0175
11855W        W28703   7.161   7.179   4.958 -0.1365 -0.2192  0.0766
11856W        W28704   4.541  10.376   1.551 -0.1389  0.1409  0.1168
11857W        W28705   8.098  11.774  14.832 -0.0960  0.1825  0.2171
11858W        W28706   3.030  12.844   0.130 -0.1793 -0.1489 -0.1187
11859W        W28707  11.814   5.027   4.332  0.0411  0.1020 -0.2234
11860W        W28708   7.575  15.742   0.312 -0.1119  0.0512  0.1098
11861W        W28709   2.336  14.945   1.443 -0.1986  0.1528 -0.0276
11862W        W28710   1.432  14.235  15.033 -0.0220  0.0040 -0.1427
11863W        W28711  13.826   5.159  12.397 -0.2506 -0.2345 -0.3489
11864W        W28712   6.890   6.487   2.306 -0.1571  0.1976 -0.0793
11865W        W28713   6.354  16.489   4.484 -0.1417 -0.1437  0.0731
11866W        W28714  14.588   8.812   0.157  0.0021  0.0577  0.0532
11867W        W28715  16.278   7.084   1.621  0.1059  0.0877  0.0396
11868W        W28716   9.286  10.071   2.042 -0.1018 -0.2357 -0.3554
11869W        W28717   4.823   1.844  17.549 -0.1166 -0.0680 -0.2162
11870W        W28718   8.670   5.231  17.079  0.0793  0.1728  0.0078
11871W        W28719  11.639   6.104  13.707 -0.0564  0.0076  0.0286
11872W        W28720   0.537  14.307  13.997  0.1166 -0.0052 -0.2653
11873W        W28721  13.612   0.973  14.527  0.1617 -0.0530  0.2048
11874W        W28722   9.307   1.461  12.466 -0.0669 -0.1789  0.3082
11875W        W28723   2.356  15.706   5.452 -0.0173  0.1548 -0.0504
11876W        W28724  15.419  11.055   0.190 -0.3679 -0.0609 -0.1916
11877W        W28725   8.267   9.663   2.178 -0.1197 -0.0512 -0.1214
11878W        W28726  14.638  13.381   3.082 -0.0111  0.3183 -0.0818
11879W        W28727   7.902   3.731   4.770  0.0849 -0.3080 -0.2568
11880W        W28728  11.208  10.608   0.224  0.0556 -0.0164  0.0415
11881W        W28729  13.787   8.893   4.184 -0.2886 -0.0489 -0.1377
11882W        W28730  12.366   9.189  12.361 -0.2050  0.1097  0.1174
11883W        W28731  12.464  12.421  15.371 -0.3452 -0.1164  0.1749
11884W        W28732   5.107   9.194   3.330 -0.2154  0.0381 -0.0970
11885W        W28733   2.666   7.350   2.969 -0.1076 -0.0404  0.0391
11886W        W28734  16.110   5.131  12.802  0.0599 -0.2130 -0.0335
11887W        W28735   5.766   7.640  11.198 -0.0248  0.1014  0.0808
11888W        W28736  14.411  11.918  16.958  0.2201  0.0943 -0.0136
11889W        W28737  10.377   3.646  15.055  0.1653  0.2819 -0.0088
11890W        W28738   9.410   0.619  12.602  0.0076  0.0194 -0.0023
11891W        W28739   2.686   8.880  14.471 -0.0960  0.0810  0.0334
11892W        W28740  10.552  14.794   2.587 -0.3805  0.0987 -0.0878
11893W        W28741   3.173  13.035  14.455  0.3626  0.0546 -0.3769
11894W        W28742   6.293   2.096  15.532 -0.0741  0.2273  0.0132
11895W        W28743  12.174  13.380  12.175 -0.1536  0.1780  0.2078
11896W        W28744   1.804   0.243   4.583  0.1556  0.1386 -0.0134
11897W        W28745  11.524  16.143   0.361 -0.1690  0.0426  0.0396
11898W        W28746   2.805   6.287   4.817 -0.0299  0.1664 -0.0155
11899W        W28747   3.912  16.858   0.953  0.0410 -0.2320 -0.0091
11900W        W28748   7.962   9.096  17.297  0.2536  0.0271 -0.2008
11901W        W28749   7.433  16.477   2.948  0.1857  0.0521  0.1728
11902W        W28750   8.218   3.593   4.452  0.0688  0.0392  0.1070
11903W        W28751   2.133   1.274  12.873 -0.0672  0.4760 -0.2500
11904W        W28752   0.383   6.005   0.723  0.3397 -0.1478  0.1223
11905W        W28753   1.958   7.519  16.329 -0.3275  0.1280 -0.0318
11906W        W28754   8.191  13.110  14.881 -0.0060 -0.1501 -0.0005
11907W        W28755  13.126   0.558  13.305  0.2015 -0.0907 -0.1709
11908W        W28756   0.397   6.515  17.731 -0.0306  0.0121 -0.0088
11909W        W28757  16.627   4.043   1.684  0.1703  0.4620 -0.4637
11910W        W28758  12.329  15.696   2.577  0.0387 -0.1776 -0.0568
11911W        W28759  12.330  13.875  12.144 -0.1683 -0.1808 -0.0426
11912W        W28760   7.118  10.456   3.794 -0.0160 -0.1166 -0.2236
11913W        W28761  16.758   4.475  14.353 -0.0632 -0.2793  0.1470
11914W        W28762   2.014   8.701   0.809  0.3534 -0.2852 -0.0469
11915W        W28763  10.017   8.249   2.493 -0.0053 -0.0647 -0.0549
11916W        W28764  11.832   5.151   5.204  0.0903 -0.0100  0.0828
11917W        W28765   2.597   6.511  16.965 -0.2243  0.2567  0.0573
11918W        W28766   1.940   0.351  14.951  0.1304  0.1771 -0.0448
11919W        W28767   2.792   2.976  12.361  0.0648  0.0604 -0.1877
11920W        W28768  13.260   9.194  15.386 -0.2422  0.1059  0.0783
11921W        W28769   1.262   4.456   4.944  0.1453  0.1402 -0.0579
11922W        W28770  16.075   4.960  13.331  0.0212 -0.1804 -0.1659
11923W        W28771  14.730   8.423   2.906  0.0496  0.0673  0.0958
11924W        W28772   6.430  15.075   6.422 -0.1035  0.0408 -0.2237
11925W        W28773  11.243   2.514  17.048 -0.0060  0.2168  0.1795
11926W        W28774   5.358  10.636  12.860  0.1448  0.1813  0.0222
11927W        W28775  15.668   7.397  17.771  0.1066  0.3030 -0.0180
11928W        W28776  11.341   2.004   3.857  0.1311  0.0033  0.1222
11929W        W28777   8.887   9.489  15.467 -0.2468  0.2014  0.1257
11930W        W28778   7.162   2.891   2.594 -0.1394 -0.0966 -0.0502
11931W        W28779   0.812  13.932   0.897 -0.0914 -0.1220 -0.0255
11932W        W28780  15.150  12.480  12.503  0.2887 -0.2021  0.0231
11933W        W28781   5.907  12.621   5.716  0.1401  0.2050  0.1271
11934W        W28782  16.208  12.329   5.388 -0.0980  0.1149 -0.0032
11935W        W28783  14.746  15.005  16.610 -0.0240  0.0336 -0.1401
11936W        W28784   3.575  13.732   2.587 -0.2236 -0.2900 -0.5182
11937W        W28785  16.863  12.052   1.276 -0.0480 -0.0814  0.1771
11938W        W28786   5.762   7.229  16.666  0.1758  0.0206  0.0169
11939W        W28787   6.300   2.965   2.711  0.2126  0.4703 -0.1669
11940W        W28788  10.585  16.953   3.577 -0.1552 -0.0764  0.1109
11941W        W28789   1.328   6.165  16.463  0.1176 -0.1517 -0.1677
11942W        W28790   6.973   8.555   3.778 -0.2509 -0.0604 -0.0672
11943W        W28791   4.687  12.550  12.659  0.2159  0.1874 -0.3636
11944W        W28792   3.301  13.211  15.067  0.0857  0.0759 -0.0854
11945W        W28793  14.455   6.456  16.315  0.2372  0.1390 -0.0523
11946W        W28794  14.960   3.061  11.206  0.1650 -0.0621 -0.2075
11947W        W28795  10.528  12.676   1.937 -0.0053 -0.0375  0.1158
11948W        W28796   3.602   1.788   2.736  0.0954  0.0085 -0.1686
11949W        W28797  10.593  15.743  14.612  0.0167 -0.0711  0.1319
11950W        W28798  15.169   6.682   2.217  0.0045  0.0225  0.0795
11951W        W28799  13.573   2.724  12.408 -0.3853 -0.1500 -0.1687
11952W        W28800  15.232  15.616  16.941 -0.0234 -0.1386  0.0677
11953W        W28801  15.256  13.474  17.745 -0.1461  0.3476 -0.0957
11954W        W28802  16.290   6.800  11.360  0.2411 -0.0823 -0.0440
11955W        W28803   2.762  11.387  12.833 -0.0403 -0.0853  0.1934
11956W        W28804   2.478   0.946   3.640 -0.2269  0.0645  0.1397
11957W        W28805   6.418  14.308  16.611  0.1563  0.0254 -0.0704
11958W        W28806  13.218  12.956  15.798  0.0480  0.0113  0.0734
11959W        W28807  14.062   3.091  14.003  0.1466 -0.0124 -0.1298
11960W        W28808   0.784  15.072   2.022 -0.1013 -0.0645  0.1780
11961W        W28809   8.610  10.267  14.016  0.1941 -0.0822 -0.1689
11962W        W28810   2.838  12.627  14.449 -0.0470  0.1068 -0.1160
11963W        W28811   0.526  16.616  15.476  0.0278  0.0984 -0.3614
11964W        W28812   0.841   1.361  12.467 -0.0138 -0.1088  0.0702
11965W        W28813  11.648   0.769  11.199  0.1132 -0.1226 -0.4238
11966W        W28814   7.905  16.183  15.450 -0.4345 -0.2112  0.0682
11967W        W28815   1.275   8.033   1.559  0.0470 -0.2023 -0.0507
11968W        W28816  12.068   0.239   4.433 -0.0396  0.1139 -0.1236
11969W        W28817   6.048  10.075  15.114  0.0094 -0.0770 -0.0786
11970W        W28818  15.393   1.555   5.047 -0.4896  0.0266  0.2737
11971W        W28819  15.196   1.263   2.462  0.0297 -0.1975 -0.4132
11972W        W28820   1.847   5.231   4.383  0.3885 -0.0592  0.0329
11973W        W28821  15.319   2.158  15.176  0.1360 -0.0467  0.0529
11974W        W28822  15.978   1.283   5.060 -0.0790 -0.0221  0.1001
11975W        W28823   6.366   9.779  13.003 -0.1164  0.0768 -0.2297
11976W        W28824   3.350   1.216   4.899  0.1395  0.1821  0.0436
11977W        W28825  12.781  12.491   6.144  0.0159  0.2834 -0.1152
11978W        W28826   2.161   6.713  15.852 -0.1146 -0.3389  0.1480
11979W        W28827  17.036  15.108  17.239 -0.1583  0.1534 -0.0711
11980W        W28828  13.498   3.051   0.291  0.0279 -0.3079 -0.0552
11981W        W28829   4.123  17.013   3.710 -0.0483  0.0154  0.1927
11982W        W28830  12.598   2.963  14.439  0.1258  0.0949 -0.0045
11983W        W28831   0.895   4.243   1.117 -0.1960  0.2357 -0.0527
11984W        W28832   5.872  15.891  16.635  0.3839  0.3274 -0.0660
11985W        W28833  12.168   4.745   2.361  0.0829  0.0652 -0.1377
11986W        W28834  14.209   1.588   5.331 -0.0868 -0.3042 -0.1420
11987W        W28835   0.936  10.201   1.215 -0.0306 -0.0832 -0.1397
11988W        W28836   7.209  12.711  11.980  0.1008 -0.2994 -0.2128
11989W        W28837   7.628   4.526  15.753  0.0387  0.0653 -0.0136
11990W        W28838  13.014   9.596   3.426  0.0685  0.1972 -0.3055
11991W        W28839   4.931  12.640  17.747 -0.1366  0.1619 -0.1125
11992W        W28840   5.468   5.344   2.011 -0.1643  0.0664  0.0705
11993W        W28841   4.725  14.008   6.412 -0.1392  0.2770  0.1494
11994W        W28842  10.267  11.673   1.447  0.1054  0.0165 -0.0896
11995W        W28843   2.296  10.185   3.343  0.0022  0.1344  0.0803
11996W        W28844   9.574   9.493  16.555 -0.2949 -0.1352 -0.0208
11997W        W28845   8.284  12.103  12.638  0.0141  0.2118 -0.2147
11998W        W28846   1.393   9.541   1.248 -0.0930  0.1234  0.0394
11999W        W28847   2.651   4.293  14.504 -0.3456  0.0708  0.0752
12000W        W28848   9.880   9.649   6.087 -0.2320 -0.0105 -0.0250
12001W        W28849   8.002   2.710  17.266 -0.1078 -0.1994 -0.3386
12002W        W28850  12.686  13.950  12.623  0.5549 -0.3688  0.2068
12003W        W28851  13.405   7.501   3.900  0.0115 -0.2751 -0.1243
12004W        W28852  15.040  14.829   3.239 -0.1019  0.0403  0.2080
12005W        W28853   9.433  10.143   3.027  0.0277  0.1025 -0.1084
12006W        W28854   3.809   7.203  17.038  0.2225 -0.1978  0.0751
12007W        W28855   6.480  10.801   5.196  0.1525 -0.0929  0.1139
12008W        W28856  15.559  11.563  15.365 -0.1114 -0.0831  0.0410
12009W        W28857   5.428   4.869  17.793  0.0632 -0.1430 -0.2343
12010W        W28858   7.004   8.664   5.722  0.3163 -0.0092 -0.0166
12011W        W28859  14.742   8.054   6.187  0.1099  0.3122 -0.1670
12012W        W28860   2.428  14.497  16.513  0.1087 -0.0028  0.3070
12013W        W28861   5.189   0.355   3.140 -0.1201  0.1745 -0.1761
12014W        W28862  16.749   3.969  14.129  0.0149 -0.2058 -0.1772
12015W        W28863   8.699   5.848   1.220  0.0097  0.2304 -0.1385
12016W        W28864   2.218   7.143  17.571  0.1073 -0.1889  0.2295
12017W        W28865  13.158   0.039   0.231 -0.1469 -0.2386 -0.2673
12018W        W28866   7.504  15.619   3.741  0.0862  0.2341  0.0715
12019W        W28867   4.898   4.970  15.996  0.1804  0.1311  0.0041
12020W        W28868  13.278   2.376  16.111 -0.0008 -0.1472 -0.2959
12021W        W28869   2.507   5.605  17.188 -0.3554  0.2202 -0.1550
12022W        W28870   1.662   5.054  13.012  0.0564  0.2295  0.0276
12023W        W28871   3.837   7.764  15.281 -0.0698  0.0071  0.2053
12024W        W28872   5.356   1.699   1.869  0.0063  0.0674  0.1269
12025W        W28873   3.113   5.771   2.160 -0.0365 -0.0186 -0.4295
12026W        W28874   4.986   7.752  17.143  0.1773  0.2246 -0.0312
12027W        W28875   3.983  10.335  16.567  0.0335  0.0174  0.1166
12028W        W28876  10.295  14.480  15.079 -0.0736  0.1421  0.0210
12029W        W28877  14.257  13.179   0.437 -0.0602  0.0492 -0.2155
12030W        W28878  16.365  16.371  13.222 -0.1148 -0.0719  0.1821
12031W        W28879   2.526   3.829   0.917  0.2379 -0.1598 -0.2801
12032W        W28880   8.066   1.787  13.316  0.2504  0.1003 -0.0625
12033W        W28881  10.788  12.995  16.134 -0.0841 -0.0595  0.0815
12034W        W28882  10.049  11.483   2.793  0.1270 -0.1233  0.0169
12035W        W28883  14.615  11.768  12.391 -0.0706  0.0926  0.0359
12036W        W28884   9.796   6.684   0.333 -0.0403 -0.1809 -0.0870
12037W        W28885  11.266   8.419   2.065  0.0430  0.2030  0.1975
12038W        W28886  11.824  16.580   0.832 -0.0091  0.4332  0.0967
12039W        W28887   8.508   2.933   4.046 -0.0216  0.0525 -0.0431
12040W        W28888  17.016   4.131   1.289  0.1014  0.0145 -0.1559
12041W        W28889   9.851   3.280  13.513  0.0184 -0.1595 -0.0472
12042W        W28890  11.471  10.910   1.444  0.1894  0.1882  0.1533
12043W        W28891   6.997  12.389   2.620 -0.2268 -0.1180 -0.0136
12044W        W28892   9.076   0.340  13.011 -0.1844  0.1702 -0.3580
12045W        W28893   9.285   0.795   4.538  0.3360  0.0641  0.1424
12046W        W28894  16.423   5.543   3.262 -0.3814  0.1223  0.0935
12047W        W28895   5.095   9.811   1.026 -0.1384 -0.1506  0.0285
12048W        W28896   1.684   6.810  13.291 -0.0169  0.0828 -0.1350
12049W        W28897   1.775  16.866  12.072  0.0174  0.3016 -0.2173
12050W        W28898  10.046   9.129   3.585  0.0321  0.1258 -0.2090
12051W        W28899  14.715   5.114  12.582 -0.1111  0.2514  0.0759
12052W        W28900   6.200  16.491  17.434  0.3324 -0.1507  0.0483
12053W        W28901   2.175  14.733  17.830  0.0569  0.1306  0.2149
12054W        W28902  11.397  12.637  16.748  0.3938 -0.1441 -0.0722
12055W        W28903   9.950  11.486  16.680 -0.2469 -0.2105 -0.0012
12056W        W28904  12.207   3.235   0.031  0.0699 -0.1415 -0.1747
12057W        W28905   5.622   7.592   1.876  0.0313  0.0442 -0.2617
12058W        W28906  11.430   2.975   0.121  0.0173 -0.1032 -0.0216
12059W        W28907   2.839   4.661  12.740  0.0317  0.1724  0.0928
12060W        W28908   2.785  13.023   6.474  0.0291 -0.1203  0.0422
12061W        W28909   2.314   2.893   0.596 -0.0378 -0.2042 -0.1556
12062W        W28910   1.260   7.670  16.923  0.1366  0.3724 -0.0292
12063W        W28911   7.708   1.473   4.298  0.1986 -0.0439 -0.1681
12064W        W28912   7.792   3.361  13.863  0.2528 -0.0276  0.3182
12065W        W28913  13.805  12.993   0.434  0.0416  0.0504  0.0560
12066W        W28914   6.526   7.445  12.171  0.1659 -0.1556  0.0678
12067W        W28915  11.398   6.879   3.254  0.2799  0.2683  0.2614
12068W        W28916   5.632  17.032   4.453 -0.4013  0.0224 -0.1904
12069W        W28917  10.183   8.136   1.643 -0.1042  0.0727 -0.1652
12070W        W28918  16.331   9.823   4.768  0.0954 -0.1509 -0.1985
12071W        W28919   4.045   6.256   4.182 -0.2229  0.2051  0.1513
12072W        W28920   7.358  14.214   4.866 -0.0631 -0.0338  0.2017
12073W        W28921   6.376  15.024   1.824 -0.1097  0.0966 -0.0526
12074W        W28922   7.037  10.878   5.118  0.0836 -0.1615  0.3590
12075W        W28923  13.483   7.445   1.963 -0.3293 -0.2138  0.0952
12076W        W28924   1.289  16.937  17.662 -0.0060  0.1233 -0.0332
12077W        W28925   1.280   7.997  17.606 -0.2761  0.1832 -0.0033
12078W        W28926  13.684  14.091  16.100  0.1605  0.2524 -0.1531
12079W        W28927   3.132  14.220  16.531  0.3308  0.0101 -0.0466
12080W        W28928   8.162  16.230  15.915  0.0379 -0.3299  0.1898
12081W        W28929   0.116   3.039  12.626 -0.0984 -0.1640  0.4099
12082W        W28930  15.701  11.004   2.511  0.0145 -0.2208  0.2876
12083W        W28931   1.778  14.353   4.855  0.0125 -0.0051  0.0521
12084W        W28932  17.020   8.862  11.688 -0.0113  0.0470  0.0873
12085W        W28933   3.555   0.367  16.419 -0.0016  0.1520 -0.0018
12086W        W28934  16.765  13.133  16.083  0.4918  0.2197 -0.3487
12087W        W28935  16.590   0.946   0.326 -0.4408  0.1361 -0.1765
12088W        W28936   6.693  13.382  11.785  0.1605 -0.1217  0.3347
12089W        W28937   8.245   1.517   3.516 -0.0006  0.1837 -0.1253
12090W        W28938   8.755   4.146  12.967 -0.0527 -0.0640 -0.0131
12091W        W28939   5.247   7.111   4.799 -0.2035  0.2803  0.2945
12092W        W28940   3.950  12.163  17.001  0.0666 -0.3538  0.0998
12093W        W28941   8.533  12.107  14.876 -0.0194  0.1915 -0.0095
12094W        W28942   9.210   1.978   2.737 -0.0939  0.0178 -0.1247
12095W        W28943   8.091  14.873  12.506 -0.0813 -0.0346  0.3263
12096W        W28944   0.435  12.847  16.683 -0.2556  0.1976  0.0011
12097W        W28945   6.519  11.687  12.636  0.1544  0.2651 -0.0255
12098W        W28946   3.474   6.547   1.536  0.3032  0.4010 -0.2970
12099W        W28947   4.402   3.526   4.421  0.1452  0.2650  0.5460
12100W        W28948  11.233  11.799   1.130  0.0101  0.3825  0.0506
12101W        W28949   8.664   5.932  15.223  0.3393 -0.2406  0.0884
12102W        W28950  15.506  14.270  15.659 -0.3158 -0.2450  0.0966
12103W        W28951  15.107   7.218  12.834 -0.3054 -0.3591  0.0798
12104W        W28952   4.898   5.952  17.628 -0.1267 -0.1851  0.5277
12105W        W28953  16.701  10.596   0.430  0.2829  0.1391  0.0746
12106W        W28954  14.068  10.397   1.700  0.3451  0.2653  0.2723
12107W        W28955  16.667  10.010   1.778 -0.0874 -0.3069  0.1346
12108W        W28956   5.893   7.028  12.769  0.1987  0.0001  0.0537
12109W        W28957   2.444  12.226  17.788  0.1739 -0.1996  0.2063
12110W        W28958  11.319   3.087  17.091  0.4114  0.2310 -0.1019
12111W        W28959  12.645   4.690  15.644  0.1424  0.1194 -0.1643
12112W        W28960   9.485  15.042  12.434  0.0652  0.0992 -0.0934
12113W        W28961  13.030  11.083   1.216 -0.2124  0.0294 -0.1028
12114W        W28962   0.270  14.298  14.429 -0.0412 -0.1095  0.1458
12115W        W28963  14.174   0.859  14.579 -0.1145  0.1116  0.4174
12116W        W28964  15.763  12.368   2.833  0.0626  0.1959  0.0241
12117W        W28965   9.505   3.948   2.077  0.0045  0.2644  0.4261
12118W        W28966   2.808   8.419  16.113  0.1078 -0.1309  0.1421
12119W        W28967   4.264   4.878   5.171  0.2919  0.1755  0.1448
12120W        W28968  14.809  14.726   2.400 -0.3331  0.0896  0.1467
12121W        W28969  16.145   2.935  15.944  0.1117  0.0142  0.1744
12122W        W28970  11.329   3.222   1.046 -0.0618 -0.2655 -0.1126
12123W        W28971   1.157  16.965   0.784  0.2035  0.1740 -0.0482
12124W        W28972  11.532  11.269   2.122  0.0048  0.0871  0.2597
12125W        W28973   9.244  16.153  16.436 -0.2477  0.4264 -0.0469
12126W        W28974   9.640   5.549  11.983  0.0900  0.1083 -0.0075
12127W        W28975  13.932   0.327   5.693  0.0394 -0.1090  0.0065
12128W        W28976   5.114  10.526   1.564 -0.0435  0.1023 -0.1495
12129W        W28977   2.088   4.122  17.596  0.1964  0.2305 -0.2524
12130W        W28978   0.192   2.760   1.159  0.0004 -0.2383  0.2666
12131W        W28979   4.580  16.848   4.000 -0.1801  0.1019 -0.2412
12132W        W28980   3.649   9.487   6.234 -0.0705 -0.1900  0.0297
12133W        W28981   9.596   5.937  12.926  0.3374  0.1773 -0.2153
12134W        W28982   9.145  14.067  12.342  0.0146  0.1161 -0.2044
12135W        W28983  11.526  16.132  14.039 -0.2845  0.1018 -0.3723
12136W        W28984  12.715  14.687   4.201  0.0695  0.2289 -0.2117
12137W        W28985   8.439   7.664   0.260  0.3365 -0.0207  0.1061
12138W        W28986   0.047  15.791  17.261 -0.1352  0.2068  0.1110
12139W        W28987  12.118   3.415   4.759  0.2003  0.0900 -0.1311
12140W        W28988  12.932   4.515   3.485 -0.4278  0.2208 -0.2388
12141W        W28989   0.107   4.834   0.255 -0.3165  0.2366 -0.0766
12142W        W28990   2.062   1.758   4.842  0.2827  0.1686  0.0259
12143W        W28991  16.249  13.027  13.983  0.1147  0.0076  0.3325
12144W        W28992   1.736   1.168  14.348 -0.0221 -0.1902  0.3489
12145W        W28993   9.952   5.269   2.519  0.0840  0.3568  0.0298
12146W        W28994   7.747  12.577  13.262  0.1348 -0.0263  0.0480
12147W        W28995   7.266   7.211  13.905  0.0334 -0.2433  0.2646
12148W        W28996   5.771  12.582  14.690  0.0239 -0.1785 -0.2728
12149W        W28997  16.005   0.819  15.710  0.0005 -0.0604 -0.1899
12150W        W28998  13.050   5.349  16.311  0.1321 -0.0705  0.1789
12151W        W28999  14.813  10.935  16.719  0.3020  0.1661 -0.0369
12152W        W29000  11.838   2.820   5.418 -0.0604 -0.0294  0.0939
12153W        W29001  16.259   5.707   2.754 -0.0085  0.1957  0.2270
12154W        W29002  11.495   5.891   2.261 -0.0538 -0.3464  0.1256
12155W        W29003   4.261   8.495   5.653 -0.1400 -0.1733 -0.0568
12156W        W29004  16.132   3.613  17.041 -0.1082 -0.2988  0.1271
12157W        W29005  10.971  10.709   2.404 -0.2602  0.3617 -0.0127
12158W        W29006   1.726   6.767  16.289 -0.0519 -0.1937 -0.1277
12159W        W29007  13.238  13.884   0.413  0.1119  0.2250  0.1529
12160W        W29008   4.714  11.205   2.254  0.0163  0.1996  0.1120
12161W        W29009   6.130  12.239  12.117 -0.0080 -0.1860 -0.1587
12162W        W29010   6.716   1.168  13.773  0.1819 -0.0293 -0.0780
12163W        W29011   2.173  14.105   2.840  0.2431  0.0848 -0.1550
12164W        W29012  14.717  16.115   2.766 -0.0102  0.2958 -0.0469
12165W        W29013  14.473   1.161  16.436  0.1563 -0.0537 -0.0408
12166W        W29014  15.336  15.764   0.094  0.1994 -0.0138  0.1656
12167W        W29015   4.063   7.276   4.896  0.3015  0.1392  0.4151
12168W        W29016  16.730   6.378  15.642 -0.0894 -0.3169  0.0485
12169W        W29017   3.021  12.946   3.058  0.1560  0.0190  0.0460
12170W        W29018  16.616   5.702   6.101  0.0562  0.1084 -0.0438
12171W        W29019   1.761   0.034   0.888  0.1159  0.4376 -0.2304
12172W        W29020   7.006  11.513   5.018  0.1668  0.0185 -0.2711
12173W        W29021   4.711   0.578  16.800  0.2653  0.1090 -0.0539
12174W        W29022   8.545   4.513  17.552  0.0125 -0.0134 -0.3373
12175W        W29023   7.093   7.395  14.400  0.2123 -0.4241  0.1657
12176W        W29024  11.713  13.543   3.033  0.2545 -0.0585  0.4710
12177W        W29025   3.264   8.500  16.904 -0.2230 -0.2632 -0.0652
12178W        W29026  14.782  11.810  17.265  0.0851 -0.1118 -0.1112
12179W        W29027  12.247   7.566   2.507 -0.3838 -0.3161 -0.3538
12180W        W29028  11.993   8.128   2.092  0.2007  0.1546 -0.0509
12181W        W29029  12.409   2.630  13.571  0.2450 -0.1597 -0.0046
12182W        W29030   2.859   0.753  17.493 -0.0338 -0.3196 -0.0204
12183W        W29031  14.067   4.340   3.928  0.1261 -0.3681 -0.1077
12184W        W29032  10.139   5.491   2.080  0.1020  0.0922 -0.1292
12185W        W29033  12.933   5.805  14.897 -0.0776  0.0129 -0.0474
12186W        W29034  10.515   8.514  15.146  0.1455 -0.3548 -0.1143
12187W        W29035   6.865  15.512  13.376  0.1274 -0.1142 -0.0290
12188W        W29036   3.363   4.057   0.439  0.0108 -0.0197  0.0618
12189W        W29037  16.118  14.873   4.477 -0.1340  0.0168 -0.0560
12190W        W29038   0.882   9.279   5.671 -0.2266  0.0833  0.0485
12191W        W29039  12.177   5.432  17.254  0.0637 -0.3695  0.1387
12192W        W29040   2.967   3.145   3.205  0.0775 -0.2751 -0.2363
12193W        W29041  16.096  16.252  15.971 -0.2309 -0.1361 -0.0777
12194W        W29042   4.634   4.582   5.374 -0.0397 -0.0431 -0.0606
12195W        W29043  15.483  13.262  17.290  0.2875 -0.0274 -0.0727
12196W        W29044  16.364  13.800  14.404  0.1997 -0.0916  0.0492
12197W        W29045  15.222   6.628   5.003  0.3901  0.1153 -0.2257
12198W        W29046   0.050   2.786   5.497 -0.2718 -0.1214  0.0339
12199W        W29047  13.512   9.332  16.576 -0.2234  0.1831 -0.1010
12200W        W29048   8.885   0.453   1.075 -0.1411  0.0359  0.2081
12201W        W29049  12.041  14.067   4.791 -0.1817  0.1069  0.0135
12202W        W29050  15.536   9.222   6.527  0.3811  0.2311 -0.3276
12203W        W29051   8.837   0.478   0.003  0.4214  0.2796 -0.0381
12204W        W29052   3.806  12.065  13.014 -0.0553 -0.0675 -0.3689
12205W        W29053   3.373   5.892  13.176  0.0316  0.2848 -0.0537
12206W        W29054   4.849   3.640   4.305 -0.1692 -0.0214 -0.1335
12207W        W29055  11.049  16.217  15.317 -0.0370  0.2697 -0.2530
12208W        W29056   3.124  12.842  15.841 -0.0682 -0.1288  0.1062
12209W        W29057  16.512  15.599   2.629 -0.2147 -0.0691  0.1430
12210W        W29058   0.806   8.196  17.697  0.1147 -0.0222  0.0807
12211W        W29059   4.414  15.591   3.956  0.1840 -0.1125 -0.1190
12212W        W29060  12.812  15.860   3.369 -0.2047 -0.2559 -0.0430
12213W        W29061   4.418  14.589  14.794 -0.1267 -0.3436 -0.0146
12214W        W29062  11.132  14.970  17.807 -0.0664  0.0525 -0.0090
12215W        W29063  10.806   4.492   2.666  0.1295  0.2030  0.1756
12216W        W29064  10.005   5.752   5.068  0.1066  0.2364  0.0801
12217W        W29065   4.059   9.842  12.199  0.1293  0.0932 -0.2809
12218W        W29066  16.057  13.902  14.919  0.0616 -0.0251  0.1475
12219W        W29067  10.899   6.895  16.479  0.1540  0.1497  0.0018
12220W        W29068   0.338  13.186  16.236 -0.0118 -0.0524 -0.1002
12221W        W29069   9.152  14.152   2.725 -0.0919 -0.1670 -0.1019
12222W        W29070   9.767  10.079  15.726 -0.0414  0.2047 -0.0820
12223W        W29071   3.605  10.353   4.239 -0.1043  0.0326  0.0244
12224W        W29072   5.998   6.172  16.390 -0.0024 -0.0655 -0.1481
12225W        W29073   3.561   5.536   5.535 -0.1104  0.0821 -0.0532
12226W        W29074  16.410   6.269  17.176 -0.2529 -0.0826  0.1444
12227W        W29075   4.041   0.304   6.540  0.1209 -0.0547  0.0071
12228W        W29076  10.756   0.358  16.455  0.1079 -0.1807  0.0867
12229W        W29077  13.085  13.221   5.536  0.0380 -0.1302 -0.0226
12230W        W29078   7.286   8.184  17.671  0.2801  0.2935  0.0399
12231W        W29079  15.340  10.280   1.355  0.0807  0.1074  0.0809
12232W        W29080   2.831  10.243  14.068 -0.2155 -0.0669 -0.2326
12233W        W29081   8.628   3.964  17.608  0.0563 -0.1636 -0.0341
12234W        W29082   8.415  15.854   1.250  0.1751 -0.2989 -0.0052
12235W        W29083  16.040   8.322  14.459 -0.1428 -0.1111  0.0514
12236W        W29084   3.806  13.005   3.808  0.0850  0.2449 -0.1120
12237W        W29085   2.348  13.577   4.680 -0.0400 -0.2571  0.1382
12238W        W29086  13.172  12.294   0.104 -0.3139 -0.0565  0.1840
12239W        W29087   1.894   4.296   1.092  0.1084 -0.1627  0.2026
12240W        W29088  16.663  16.023  16.147  0.0015  0.1947  0.0413
12241W        W29089  14.014   9.653   1.059 -0.1141 -0.0052 -0.3081
12242W        W29090   9.944   7.975  17.245 -0.0266 -0.0122  0.1834
12243W        W29091  10.913   8.861  17.152  0.1340 -0.1580 -0.1213
12244W        W29092   5.432  16.372   6.285 -0.4497 -0.0090 -0.1081
12245W        W29093   6.363  10.100  14.718 -0.0696 -0.2219  0.1089
12246W        W29094  12.874  12.555  15.103  0.0887  0.0449 -0.1130
12247W        W29095   1.845   9.563   5.486 -0.0748  0.0603 -0.0586
12248W        W29096   0.259  12.411  16.624  0.2249 -0.1604 -0.0780
12249W        W29097  14.730   1.354  17.592  0.2275  0.0119  0.0439
12250W        W29098   5.366   4.496   3.777  0.0801  0.0873  0.0820
12251W        W29099  10.118  16.156   3.303  0.2275  0.1082  0.2346
12252W        W29100  16.100   3.203  12.266  0.0559 -0.2183 -0.1847
12253W        W29101   5.832  15.540   3.474  0.0462 -0.0156  0.2228
12254W        W29102  13.598  11.524   3.510  0.0846  0.1242  0.2558
12255W        W29103  11.086   7.055   2.023  0.1035 -0.1755 -0.3245
12256W        W29104   9.740  13.474  13.415  0.0701  0.0684  0.0836
12257W        W29105   5.618  10.510  14.455  0.0813 -0.1918 -0.3714
12258W        W29106   5.863   3.142   2.489 -0.3585  0.0498 -0.1520
12259W        W29107  13.276  16.875  17.614  0.1142  0.2419 -0.2092
12260W        W29108   4.117  10.462   4.229  0.0467 -0.3205 -0.1708
12261W        W29109   9.287  12.783  14.023 -0.0742 -0.3828 -0.1096
12262W        W29110  15.187   0.807  13.773 -0.0675  0.1589 -0.1470
12263W        W29111  11.669  13.962  15.401  0.1748  0.3455 -0.3840
12264W        W29112  12.700  16.899  16.637 -0.3375 -0.2258  0.1337
12265W        W29113  12.703   7.050   2.479  0.0704 -0.0513 -0.1486
12266W        W29114  16.108   6.896  12.808  0.1896  0.2964 -0.1207
12267W        W29115   9.484   5.440  17.630  0.0540 -0.3198 -0.0455
12268W        W29116  12.761  14.799   2.722  0.1233  0.4710  0.0216
12269W        W29117   8.140   0.326  11.036  0.1894 -0.2323  0.0112
12270W        W29118   0.814   8.592  15.539 -0.1906  0.0884  0.2522
12271W        W29119   6.522  11.158  17.318  0.2321  0.2017 -0.1214
12272W        W29120   3.971   2.829   2.510  0.1291  0.1338  0.0116
12273W        W29121  11.119  16.081   2.713 -0.0416  0.1315 -0.0863
12274W        W29122  15.986  17.063  16.203  0.0095  0.0394 -0.1947
12275W        W29123   2.339  13.953   0.942  0.0628 -0.1367  0.0611
12276W        W29124   9.141   2.442  15.857  0.1833 -0.2975  0.2049
12277W        W29125  12.279   0.157   5.529 -0.1866 -0.3517  0.1968
12278W        W29126   2.438   5.589  14.691 -0.1312 -0.0640  0.0573
12279W        W29127   8.079  16.188   0.995  0.1215  0.0393 -0.0946
12280W        W29128  14.923  11.377  16.378  0.2376 -0.0739  0.0810
12281W        W29129   4.678   8.399   5.873 -0.0681 -0.0954  0.1839
12282W        W29130   9.030  10.119  14.283  0.0437  0.0146  0.0729
12283W        W29131  11.505   2.239   6.238 -0.1164  0.0495  0.0849
12284W        W29132  12.874  13.103   4.350 -0.1198 -0.0803  0.0690
12285W        W29133   1.010   2.413   0.408  0.0741 -0.0223  0.1608
12286W        W29134   2.412   3.040  16.795 -0.0872  0.0041 -0.0128
12287W        W29135   7.476  15.901   4.454  0.1031  0.1383  0.0955
12288W        W29136  13.489  10.295   0.055  0.3987 -0.1914  0.1494
12289W        W29137   1.456  12.567  16.540  0.3323 -0.1520 -0.0919
12290W        W29138  10.938   0.262   4.006 -0.0600 -0.0009  0.3235
12291W        W29139   1.619  12.870  13.547 -0.2195  0.4793  0.2445
12292W        W29140   8.893   5.295   4.605 -0.0248 -0.3112  0.1499
12293W        W29141   7.381  12.710  15.342  0.0272  0.0566  0.0176
12294W        W29142  16.934  12.874   4.699 -0.0331 -0.2118  0.1822
12295W        W29143  15.911  14.243  16.502 -0.0551 -0.2730  0.1055
12296W        W29144   9.317  11.332   3.851  0.4468  0.0410 -0.1324
12297W        W29145   6.752  12.271   3.905  0.0320  0.0343  0.1212
12298W        W29146   1.821   2.596  12.773  0.0280 -0.2399  0.0319
12299W        W29147  14.131   8.065  14.044  0.1815  0.0954 -0.2586
12300W        W29148  11.168  15.063  16.215  0.1039 -0.2516 -0.1376
12301W        W29149   0.300   6.472   3.499  0.0484  0.0253 -0.3692
12302W        W29150   3.567  16.395  13.643  0.0467 -0.0388  0.2379
12303W        W29151   2.352  10.462   6.069 -0.2711 -0.2493 -0.0399
12304W        W29152  10.260   1.517   1.782  0.1957 -0.0289  0.1933
12305W        W29153   9.402  16.931  17.767  0.0287  0.0070 -0.1141
12306W        W29154   3.155  11.612   3.939  0.2808  0.0764  0.1950
12307W        W29155  14.266  11.652  16.471  0.1364 -0.1232  0.0248
12308W        W29156   8.461   7.515  12.815  0.2683 -0.1602 -0.0962
12309W        W29157  16.432   9.064   1.393  0.2813  0.1004  0.0515
12310W        W29158   8.576   7.398  15.293  0.0498 -0.1814  0.1819
12311W        W29159   9.912   7.248  16.788  0.1760  0.3906  0.1344
12312W        W29160   7.615   7.944  13.283 -0.0861  0.2511 -0.0611
12313W        W29161   2.569   8.081  12.812  0.2832  0.1049 -0.0673
12314W        W29162   0.916   5.282   4.787 -0.2792 -0.4641  0.2624
12315W        W29163  13.488   9.881  16.715 -0.0148 -0.1077 -0.2726
12316W        W29164   5.734  10.388   0.483  0.1811  0.3782 -0.1304
12317W        W29165  12.635   5.714  13.589 -0.0604 -0.0761 -0.4313
12318W        W29166  13.627   4.155   0.241  0.0227 -0.2682 -0.0113
12319W        W29167   5.416   6.892  13.879 -0.1151  0.2692 -0.1877
12320W        W29168   9.614   9.220  17.490 -0.1537  0.2117 -0.0779
12321W        W29169   5.633  11.937  16.454  0.2103 -0.0311  0.2059
12322W        W29170   2.114  14.300   5.234 -0.1748  0.0582  0.1437
12323W        W29171  12.688  10.163   1.785  0.1635 -0.1505  0.0353
12324W        W29172  15.754   8.567   1.039 -0.1824  0.3334 -0.1347
12325W        W29173   8.870  16.496  14.033 -0.1178 -0.0063  0.0924
12326W        W29174  13.338   4.344  13.643  0.0267 -0.1559  0.2152
12327W        W29175  15.094   2.129   0.806 -0.1030  0.0073 -0.0657
12328W        W29176  11.940  15.726   1.189 -0.0796 -0.0993  0.0877
12329W        W29177   5.511   7.508  17.444  0.0891 -0.2532 -0.1160
12330W        W29178  13.921  14.552   1.814  0.1006  0.0249  0.0638
12331W        W29179   1.880   7.540   3.409  0.0627  0.1504  0.1841
12332W        W29180  11.978  13.807   3.716  0.1882  0.0924  0.0967
12333W        W29181  15.223   6.255   5.458 -0.2248  0.2116 -0.0012
12334W        W29182   1.798  10.984   3.301 -0.0032  0.0919  0.2643
12335W        W29183  16.760   2.488  16.441 -0.1086  0.2600  0.2136
12336W        W29184  16.541   3.440  11.241 -0.0067  0.0633 -0.0085
12337W        W29185   3.491   3.137   5.321 -0.2590  0.2810  0.1192
12338W        W29186  11.292   2.237  12.637  0.1476 -0.0327 -0.0364
12339W        W29187   6.489   2.208   0.666 -0.0293 -0.3074 -0.0815
12340W        W29188   7.151  13.457   1.006 -0.5602  0.2521  0.0319
12341W        W29189  10.665   6.354  13.177  0.1127  0.1420 -0.0891
12342W        W29190  12.755   2.505   0.646  0.0044 -0.2489 -0.0726
12343W        W29191  14.678  11.739  16.167 -0.0245 -0.3678  0.0475
12344W        W29192   0.292  15.439  16.361  0.0889  0.2426  0.0694
12345W        W29193  15.678  11.599   4.560  0.1262 -0.1871  0.2300
12346W        W29194  16.479   8.057   5.337 -0.1425 -0.0327 -0.3212
12347W        W29195  12.196  12.673  15.846  0.0043 -0.1620  0.0815
12348W        W29196  14.756   7.801  16.263 -0.3999 -0.2004  0.3329
12349W        W29197   5.204   6.668  14.481 -0.1689 -0.0846  0.0681
12350W        W29198  15.444   5.727   0.228 -0.4892 -0.0222  0.0644
12351W        W29199   2.350   9.748   5.268  0.1580  0.2072 -0.0238
12352W        W29200   5.873  12.946  13.795 -0.0212 -0.3083 -0.3733
12353W        W29201  14.136   3.313  17.214 -0.0918 -0.0030  0.2374
12354W        W29202   6.152   1.094   0.731  0.0827 -0.0022  0.0281
12355W        W29203   8.848   9.166  14.526 -0.0679 -0.0687 -0.1779
12356W        W29204   6.960   9.003   2.544  0.2497  0.0471  0.2950
12357W        W29205   2.398  12.888   4.201 -0.0713  0.1256  0.0407
12358W        W29206  13.741   8.389  16.695 -0.0324  0.1375  0.2697
12359W        W29207   2.186  13.102   4.625  0.3478  0.4870  0.1043
12360W        W29208   3.742   1.013  12.413 -0.3030 -0.0584  0.0464
12361W        W29209   6.903  14.276  12.147  0.2014 -0.0811 -0.0867
12362W        W29210   5.265  16.848  16.484  0.0300  0.0840 -0.1220
12363W        W29211  14.874  11.106  14.145 -0.0060 -0.0780 -0.0566
12364W        W29212  15.204   6.867   2.742 -0.0947 -0.0489  0.0311
12365W        W29213   2.185  15.284  17.006  0.1664  0.3812 -0.1130
12366W        W29214  12.904   3.216  12.786 -0.1964 -0.2079 -0.2930
12367W        W29215   2.711  13.314   5.502  0.0496 -0.3471  0.1577
12368W        W29216   5.611   8.161   2.028 -0.4298  0.1753  0.0696
12369W        W29217  12.585  11.922   5.453  0.0910  0.0187  0.1766
12370W        W29218   8.163  14.043  16.309 -0.1913 -0.0527 -0.1611
12371W        W29219  14.526   2.877   0.691 -0.1065  0.2114 -0.1332
12372W        W29220   2.539  12.224   1.920 -0.1548  0.0971  0.2388
12373W        W29221   1.757   2.107  15.627 -0.2376  0.0093 -0.1362
12374W        W29222  15.925   5.769  17.819  0.0907 -0.0907  0.0537
12375W        W29223  12.314  11.965  12.291 -0.1350  0.1759 -0.0075
12376W        W29224   3.413   4.746   1.448  0.1778 -0.0703 -0.0725
12377W        W29225  12.716   9.097  12.048 -0.0911 -0.1277 -0.1091
12378W        W29226  15.986   4.278   3.186 -0.1438  0.2018 -0.0959
12379W        W29227  15.785  15.788   0.615  0.1600  0.0567 -0.2409
12380W        W29228   3.816   3.094  15.093  0.2519  0.1437  0.0735
12381W        W29229  16.740   8.569   1.577  0.0660 -0.3344  0.0579
12382W        W29230  14.071  15.777  14.985 -0.0944 -0.2315  0.3557
12383W        W29231   9.412   4.449   1.512 -0.0243  0.1934 -0.2571
12384W        W29232  14.678  12.868   0.211 -0.0211  0.0752 -0.0856
12385W        W29233   6.371   8.571   1.914  0.2714 -0.1535 -0.1493
12386W        W29234  11.767   1.707  12.318 -0.2095 -0.3836 -0.2984
12387W        W29235   9.995   2.888   5.287 -0.1297  0.0425 -0.1963
12388W        W29236   4.067  13.700  12.548  0.3688 -0.0731 -0.0746
12389W        W29237   6.096   7.862  17.141 -0.1218 -0.1185  0.1520
12390W        W29238  12.439  16.094   2.005 -0.0573 -0.0250  0.0018
12391W        W29239   9.264  10.851  13.814 -0.0118 -0.0186 -0.0444
12392W        W29240  16.009   4.323  15.013  0.4636 -0.0019  0.2292
12393W        W29241   3.149  15.127  14.057  0.1545  0.0645  0.4820
12394W        W29242   5.563   5.363   1.336  0.1331 -0.0821  0.1043
12395W        W29243   1.542  15.642   5.241  0.0105 -0.2461  0.0454
12396W        W29244   5.679  16.844   4.938  0.1219 -0.1746  0.1280
12397W        W29245   5.070   0.977  12.482 -0.1986  0.3068  0.0936
12398W        W29246   1.769   1.815   0.085 -0.1387 -0.4395  0.3900
12399W        W29247   5.142   4.347   1.210 -0.1038  0.0191 -0.2913
12400W        W29248   5.908  13.733  17.145  0.2553 -0.1004  0.1768
12401W        W29249   7.469   8.253  12.689  0.2035  0.1058  0.5314
12402W        W29250  12.329  10.042  11.698 -0.2269  0.1730  0.0582
12403W        W29251   2.314   7.204  16.046  0.0563 -0.1061 -0.0709
12404W        W29252   3.412   6.929  16.932 -0.0387  0.0088 -0.0023
12405W        W29253  11.109   0.995   1.663 -0.1911  0.0068  0.1743
12406W        W29254   3.707  14.020  17.423 -0.0251 -0.3886 -0.1816
12407W        W29255   2.122   9.025   4.671 -0.0459  0.0010  0.2014
12408W        W29256  10.274   7.973  14.043  0.0538  0.0371 -0.1142
12409W        W29257  15.161   1.310  12.334 -0.1710 -0.0493 -0.0072
12410W        W29258  14.758   4.283   1.750  0.2533 -0.2449 -0.2351
12411W        W29259   8.410   2.670   3.599  0.1671 -0.0879 -0.1159
12412W        W29260  12.738  16.389   3.348  0.1139 -0.0387  0.1942
12413W        W29261  14.775   4.357   3.301 -0.1401 -0.0176 -0.0942
12414W        W29262   7.021   2.321  15.083 -0.0377 -0.1112 -0.0998
12415W        W29263  11.005   9.589   5.615  0.4432 -0.0350 -0.1202
12416W        W29264  10.331   4.635   4.588 -0.2049 -0.1811 -0.2566
12417W        W29265   4.571   1.449  15.697  0.0164  0.1001  0.0278
12418W        W29266   8.808  14.676   1.878  0.0310  0.0275  0.1506
12419W        W29267   5.448   9.141  16.871  0.0945  0.2814  0.0986
12420W        W29268   2.716   6.960   3.685 -0.2534  0.0942  0.1781
12421W        W29269   9.223  11.034   4.752  0.0134  0.1451  0.0932
12422W        W29270  11.589   9.405   0.813 -0.2513  0.1623  0.1466
12423W        W29271   3.856  10.450  15.586 -0.0387  0.0851 -0.1831
12424W        W29272  13.547  12.904  12.453  0.1292  0.0001  0.2378
12425W        W29273  12.809  11.839  16.012 -0.2976  0.0848 -0.1830
12426W        W29274   9.081   6.321  17.623  0.0347  0.0735  0.1368
12427W        W29275   6.040   1.160  11.592  0.1626 -0.1445 -0.1935
12428W        W29276   9.429   4.704   5.624 -0.0074  0.2021  0.1522
12429W        W29277  15.656  10.572  14.193 -0.2131  0.0166 -0.0010
12430W        W29278   3.027   8.403  12.980 -0.0693 -0.3032  0.0784
12431W        W29279  10.183  15.823  17.093 -0.2352 -0.0029 -0.2489
12432W        W29280  11.281  16.075  13.574 -0.0628  0.0174 -0.0918
12433W        W29281   8.080  16.148  12.874 -0.1723  0.3248 -0.0315
12434W        W29282   0.155   3.657   2.842  0.0881 -0.1441 -0.1773
12435W        W29283   7.332   1.620  15.804  0.1552  0.2090  0.0060
12436W        W29284   0.452   0.879  14.344 -0.1508 -0.1991 -0.0990
12437W        W29285  11.856  11.464  14.813  0.0189  0.0687 -0.0268
12438W        W29286   1.703   8.456  16.612  0.3726 -0.1494 -0.0197
12439W        W29287  11.055   3.036   0.402  0.2589  0.0393  0.3037
12440W        W29288   7.916   4.717  13.458  0.1262  0.0523 -0.2331
12441W        W29289   4.687   0.648   4.999  0.0293  0.0190 -0.0859
12442W        W29290   7.525  13.582  17.337  0.0444 -0.0467  0.5304
12443W        W29291   1.004   6.271  13.708  0.1010  0.1337  0.2573
12444W        W29292   9.037  11.842   4.526 -0.0727  0.1758  0.0533
12445W        W29293  10.855  14.498   4.678 -0.1138  0.0366  0.1113
12446W        W29294   7.449  11.644  12.569 -0.0413 -0.0825  0.0318
12447W        W29295   5.843  15.107  16.823  0.1460 -0.1360  0.0429
12448W        W29296   0.541  10.947   0.857  0.0796  0.2124 -0.0136
12449W        W29297  15.218  16.265  13.894 -0.1009  0.0498 -0.1002
12450W        W29298   8.267   8.316  16.855 -0.0966 -0.1964 -0.0733
12451W        W29299  12.797   9.690  14.671  0.0583 -0.2149 -0.1034
12452W        W29300  16.198   1.569  11.736 -0.1564  0.0678  0.0967
12453W        W29301  15.233   0.796   4.650  0.0442  0.0589  0.1049
12454W        W29302   0.099  10.426   0.185 -0.1339 -0.0307 -0.0074
12455W        W29303  11.116  11.535  13.974 -0.0081  0.0891  0.1358
12456W        W29304   6.611   9.465  12.584  0.0315  0.1873 -0.1484
12457W        W29305  10.469   2.104  13.723 -0.0521 -0.3797 -0.0840
12458W        W29306   1.813  14.687   3.503  0.1316 -0.0367 -0.1928
12459W        W29307  11.375  11.263  17.646 -0.1185 -0.1863  0.0107
12460W        W29308   5.467   5.841   0.420 -0.0146  0.1240 -0.0726
12461W        W29309   3.186   5.184  16.837  0.1048  0.4063 -0.0876
12462W        W29310   7.951   0.094   3.508 -0.0504  0.0536 -0.1635
12463W        W29311   7.212   8.890   4.022 -0.2964  0.2815 -0.0724
12464W        W29312   3.715   0.862  16.270  0.3514 -0.0996  0.0390
12465W        W29313   8.056   0.041  15.384 -0.0378 -0.5240 -0.0938
12466W        W29314   4.512  15.708   3.108  0.0404 -0.1433 -0.2096
12467W        W29315  12.726   3.047   5.360  0.1883  0.1789 -0.0305
12468W        W29316   6.827  14.509   1.791 -0.3135  0.1319  0.1698
12469W        W29317   0.024   1.119   1.591 -0.0339  0.0315  0.1370
12470W        W29318   2.475   0.393  14.905 -0.1214 -0.1040  0.2004
12471W        W29319   5.106  10.378  17.550 -0.0636 -0.3059  0.1268
12472W        W29320   2.203   6.271  12.504 -0.0995 -0.1795 -0.1490
12473W        W29321  15.474   3.723   4.749  0.0218 -0.1850  0.0749
12474W        W29322  14.609   8.729   1.474  0.3340  0.4233  0.1797
12475W        W29323   4.793   5.960   1.069  0.0112  0.0291 -0.1945
12476W        W29324   2.408   6.782  13.364  0.0172 -0.0129  0.0348
12477W        W29325  15.517  13.839  12.083  0.0979 -0.2682  0.1609
12478W        W29326   5.868   9.884  14.691  0.1687  0.2092 -0.2754
12479W        W29327  10.060  10.615  13.322 -0.0635  0.2101  0.3379
12480W        W29328   9.068   4.695   0.475 -0.2129  0.0131 -0.3697
12481W        W29329   5.135   6.327  16.908 -0.2963 -0.2344 -0.1293
12482W        W29330  16.438  12.223   4.282  0.2584  0.0460 -0.0281
12483W        W29331  17.003   1.612  13.026  0.0212 -0.0232  0.0965
12484W        W29332   6.168  15.870   3.391  0.1004 -0.2104  0.1619
12485W        W29333   9.570  15.803  15.254 -0.1631  0.2129 -0.0563
12486W        W29334   6.606   6.057  12.461  0.0773 -0.3240 -0.0140
12487W        W29335  16.006  14.439  12.423  0.0119  0.1265  0.0149
12488W        W29336  10.350   5.061  16.135  0.1403  0.1882 -0.0778
12489W        W29337   7.915   6.434   0.260 -0.0294 -0.1841  0.1669
12490W        W29338  16.856  13.011   4.172  0.0523 -0.1920  0.3255
12491W        W29339   1.118   9.056  16.121 -0.0087 -0.2674  0.0174
12492W        W29340   4.230  17.037   2.853  0.0690  0.2234  0.0819
12493W        W29341   1.496   7.351   0.776  0.1224 -0.0748  0.1026
12494W        W29342  13.555  14.860  17.576 -0.0151  0.0418 -0.1397
12495W        W29343  14.551   3.830  13.027 -0.0811  0.1383  0.2307
12496W        W29344   8.297   1.085  14.900  0.0103  0.0332 -0.0921
12497W        W29345   6.455   9.179   0.417 -0.2427 -0.0947 -0.1618
12498W        W29346   8.047   1.134   0.625 -0.0198 -0.3421  0.2469
12499W        W29347  12.296   5.289  14.933  0.0893  0.1681  0.0346
12500W        W29348   8.242   2.173   5.660 -0.0139  0.0112  0.2626
12501W        W29349   8.687   0.653   4.324  0.0790  0.0027  0.1263
12502W        W29350   8.084  15.454   2.401 -0.2052 -0.0030  0.2046
12503W        W29351   9.727   1.229  13.213 -0.0070  0.0571  0.0086
12504W        W29352   7.027   4.652   4.520  0.0978 -0.1290  0.1570
12505W        W29353   9.538  15.924   3.405 -0.0180  0.0546  0.0393
12506W        W29354   0.028   2.865   0.654 -0.0949 -0.1403  0.2117
12507W        W29355  13.454  17.025  15.010  0.1173  0.2830 -0.0002
12508W        W29356   6.124   4.598   2.262 -0.4690  0.0488 -0.1589
12509W        W29357  10.681  10.646  13.810 -0.0752  0.2095  0.0666
12510W        W29358   8.495   9.679  12.839  0.2586  0.1443 -0.1202
12511W        W29359   6.445   1.584   2.656 -0.2391  0.2386 -0.2379
12512W        W29360  13.414   5.806  13.665  0.0527  0.3445  0.1447
12513W        W29361   6.324   4.329   3.329 -0.1304 -0.1945  0.2126
12514W        W29362   7.470   7.001  16.827 -0.0708  0.1544 -0.1473
12515W        W29363  12.965  11.354  12.674 -0.1944 -0.0059  0.0369
12516W        W29364   6.336   5.108   1.417  0.1733 -0.2505 -0.0719
12517W        W29365   4.785   1.012  16.644  0.2437 -0.0272 -0.2465
12518W        W29366   6.530   3.080  12.948 -0.1026 -0.0955 -0.3311
12519W        W29367  15.494   5.507   3.337 -0.0825  0.1042  0.1632
12520W        W29368   0.258   1.165   1.132  0.0149 -0.0352 -0.3781
12521W        W29369  10.831   2.151   2.897  0.0991 -0.1686  0.0965
12522W        W29370  10.116  13.110  14.253  0.0559 -0.3607 -0.2353
12523W        W29371   6.444  14.337  13.864  0.1468  0.2581 -0.1970
12524W        W29372   6.438  14.566  12.309  0.3615  0.0445  0.0839
12525W        W29373   4.529  15.208  16.940  0.0194  0.0196 -0.0340
12526W        W29374   1.725   8.390   5.296  0.0402  0.2423 -0.0378
12527W        W29375  10.149   9.232  17.489  0.2381 -0.1372 -0.1586
12528W        W29376   6.153   0.201  13.269 -0.3548  0.0723 -0.3394
12529W        W29377   1.965  14.524  16.304 -0.1970 -0.0449 -0.2609
12530W        W29378   4.704   7.115  12.397 -0.2383 -0.1701  0.5226
12531W        W29379   1.387  11.149  17.197 -0.3806  0.1787 -0.0195
12532W        W29380   1.798   7.849   2.955 -0.2377 -0.2469  0.0691
12533W        W29381  14.912   1.025   1.935 -0.0223  0.0623  0.2400
12534W        W29382  10.953   2.089   3.348  0.0693 -0.0143 -0.0562
12535W        W29383   0.473   1.335  16.716 -0.0131  0.4074 -0.0298
12536W        W29384   5.764  16.477   2.254  0.0984  0.0456  0.1116
12537W        W29385  17.027  13.763  15.535  0.1040 -0.0392  0.1950
12538W        W29386   1.436   5.514   4.660  0.1732 -0.2033  0.0134
12539W        W29387  11.191   5.439   1.243  0.0391 -0.2835 -0.2158
12540W        W29388   5.371   3.156  15.199 -0.3384  0.1836 -0.2405
12541W        W29389   4.676   4.865   2.152  0.0983 -0.3505  0.1771
12542W        W29390   2.169   7.916  16.495 -0.0129  0.2395 -0.0541
12543W        W29391   4.468   1.281  16.977  0.1078  0.0326 -0.0924
12544W        W29392   7.875  15.042   5.667  0.1096  0.2257  0.0498
12545W        W29393  12.815  13.450  12.700 -0.0607  0.1161 -0.1871
12546W        W29394   3.990   6.483   3.304  0.0162 -0.1648  0.0616
12547W        W29395   9.405   5.999  14.480 -0.3632  0.0400  0.4476
12548W        W29396   1.673   8.188   4.661 -0.1712  0.1255  0.0391
12549W        W29397  12.905   0.992   0.842 -0.2129  0.0527  0.1139
12550W        W29398   8.587   9.207  17.189 -0.1824  0.1550  0.0988
12551W        W29399   5.947   1.685   3.983  0.2440  0.0576  0.1456
12552W        W29400   6.855   0.042  15.553  0.1370  0.1604 -0.1492
12553W        W29401   5.134   9.507  17.008 -0.1359  0.0249 -0.3493
12554W        W29402   6.057  16.341  14.664  0.2007  0.2270  0.2951
12555W        W29403  10.808   9.416   0.863 -0.1479  0.0124 -0.0133
12556W        W29404  14.827  11.245   4.777  0.0878  0.0413  0.0913
12557W        W29405  11.284  10.275  17.722 -0.0411 -0.0641 -0.1757
12558W        W29406  11.412   7.433  15.035  0.0554  0.0469 -0.0372
12559W        W29407   1.001  11.065   1.430 -0.2130 -0.1556  0.0464
12560W        W29408   3.087  11.322  13.413  0.0109  0.0758 -0.0980
12561W        W29409   9.717   2.137   2.985 -0.4400  0.2024 -0.0227
12562W        W29410  15.653   7.733   4.880 -0.0680 -0.0001  0.2099
12563W        W29411   5.688  11.723  15.358 -0.0438 -0.0859  0.2010
12564W        W29412   2.656   2.611  16.740 -0.0830  0.0192 -0.0993
12565W        W29413  13.272  11.135  12.951  0.3137  0.1273 -0.0659
12566W        W29414  12.161   4.282  16.861  0.0478 -0.0071 -0.1902
12567W        W29415   6.680  11.576  12.182  0.1560 -0.3547 -0.0509
12568W        W29416  11.875   3.345  17.321  0.1118 -0.0568 -0.1103
12569W        W29417  16.045   3.470  13.235 -0.5230  0.1473 -0.2161
12570W        W29418   7.360   5.954   3.464  0.2232 -0.1274  0.1502
12571W        W29419  10.090  11.650   1.988  0.0801  0.3762 -0.1659
12572W        W29420  14.539   0.446   0.682  0.0201  0.0846  0.2294
12573W        W29421   0.738  10.150  14.159  0.0590  0.1973 -0.3316
12574W        W29422  12.082  16.236  15.299  0.4567 -0.1650 -0.0263
12575W        W29423   2.424  16.071   5.032 -0.0632  0.1051  0.0362
12576W        W29424   7.376   5.770   5.900  0.0903  0.2111  0.1439
12577W        W29425   4.364   1.474  15.164 -0.3278  0.1764 -0.1542
12578W        W29426   5.381   0.057   0.291  0.1886 -0.0420 -0.1215
12579W        W29427  11.381   0.963  15.945 -0.0954  0.2644 -0.0071
12580W        W29428   0.979   0.836   2.010 -0.5074 -0.1654 -0.1009
12581W        W29429   5.269  14.214  17.831 -0.1311 -0.0799 -0.1361
12582W        W29430   1.542   2.138  13.599  0.2375  0.0860  0.1786
12583W        W29431   6.591   7.313   1.375  0.0315  0.0770  0.0197
12584W        W29432   0.842   8.949  11.689  0.2194 -0.0622  0.2911
12585W        W29433  12.171  10.923  13.367  0.1783  0.0836  0.0418
12586W        W29434   7.352  15.086   1.771  0.0350  0.1424  0.0809
12587W        W29435   7.494  10.555   3.283  0.1325  0.0301 -0.2011
12588W        W29436  15.016  16.434   1.579  0.1203  0.1748  0.0686
12589W        W29437   9.336   8.035  12.552  0.1818 -0.3306 -0.2254
12590W        W29438   8.822  10.056  15.452 -0.0489 -0.3508  0.4415
12591W        W29439  14.059   1.472  16.151  0.0833 -0.1287 -0.3420
12592W        W29440  14.873   9.396  17.203 -0.1272  0.1549  0.2102
12593W        W29441   5.955  16.716  14.311 -0.2313 -0.2886 -0.1259
12594W        W29442   4.648   1.490   1.243  0.0531  0.1249 -0.0215
12595W        W29443   9.784  13.422  15.697 -0.3183  0.1359 -0.1130
12596W        W29444   4.425  11.677   4.184  0.0354 -0.3866  0.2160
12597W        W29445  10.419   9.006   1.127  0.3323  0.1089 -0.0604
12598W        W29446  14.697   9.573  16.672  0.0399  0.0680  0.0132
12599W        W29447   7.294   5.050  16.994  0.0221 -0.1060 -0.1707
12600W        W29448   9.047   7.881  14.608 -0.1753 -0.0446 -0.0576
12601W        W29449   4.201   8.972  17.063 -0.2760  0.0187 -0.0315
12602W        W29450  16.463   1.765  17.014  0.1937 -0.2138  0.0635
12603W        W29451   5.654   3.387  14.799  0.3726 -0.0437  0.3486
12604W        W29452   9.631   4.430   3.551 -0.1426 -0.0273 -0.0592
12605W        W29453   7.757  11.647  17.485 -0.1921 -0.1931  0.3549
12606W        W29454   3.267   5.974  14.803 -0.1358 -0.0873  0.1200
12607W        W29455   5.052  14.650   0.313  0.3200 -0.1972 -0.2674
12608W        W29456   7.114   5.161   4.449  0.0862 -0.3355 -0.0087
12609W        W29457   7.777   6.851   2.790 -0.0611  0.0831  0.3007
12610W        W29458   5.265   4.833   3.388  0.2200 -0.3746  0.1386
12611W        W29459  15.611   0.473   4.618 -0.0434 -0.2101 -0.0744
12612W        W29460  10.905  15.027  12.726 -0.0723  0.0975  0.0031
12613W        W29461   4.807  15.861   1.764  0.0251 -0.1683  0.2069
12614W        W29462   1.495  14.403   0.151  0.1246  0.3257 -0.0625
12615W        W29463  13.375   4.565  13.117 -0.3449 -0.3941 -0.0501
12616W        W29464   5.344  15.671  12.600 -0.3056  0.0871  0.1123
12617W        W29465   4.594   3.095   5.742 -0.2075 -0.1582  0.0692
12618W        W29466  14.475   0.209  12.789  0.1403 -0.2502  0.0285
12619W        W29467   3.135   4.379  14.521 -0.4320 -0.2624 -0.2177
12620W        W29468  11.635  10.007   1.467  0.0310  0.0753  0.0972
12621W        W29469   1.892   5.751   4.776  0.1491  0.4782 -0.2627
12622W        W29470   8.006  13.735  12.953 -0.3324 -0.2390 -0.1205
12623W        W29471  12.450  14.742  14.924  0.4570  0.2370  0.2420
12624W        W29472   1.905  10.656   0.399 -0.0093 -0.0335 -0.1131
12625W        W29473  12.497   3.109   2.797  0.0105 -0.0159  0.5366
12626W        W29474  12.305  10.051   3.636 -0.0205 -0.0160 -0.0091
12627W        W29475   8.009   3.581  15.678  0.2347  0.0430 -0.3375
12628W        W29476   3.331  11.577  17.507  0.1136 -0.2311 -0.0133
12629W        W29477   8.035   8.877  15.820  0.0209  0.3647  0.0648
12630W        W29478   4.179   7.607   0.303  0.1532  0.1084 -0.0989
12631W        W29479   7.309  12.206  15.254  0.0645 -0.0730  0.2162
12632W        W29480  10.498   5.770  15.352 -0.2580  0.1248 -0.1706
12633W        W29481  14.301   4.447   4.939 -0.1425  0.0091 -0.1697
12634W        W29482   6.044  10.790  16.275  0.2077 -0.1572 -0.0465
12635W        W29483  13.370  15.220   1.357 -0.1970 -0.2684  0.1466
12636W        W29484  14.255  11.469   4.907 -0.0191  0.0049 -0.3374
12637W        W29485  15.483   7.352  15.203  0.0340  0.1209 -0.0849
12638W        W29486  14.378   0.179   1.506 -0.1821 -0.0823  0.2890
12639W        W29487   6.187  11.984  13.492  0.1853  0.0569 -0.1042
12640W        W29488  15.459  10.400   5.041 -0.6180 -0.0547 -0.1307
12641W        W29489  16.528  10.854  17.651 -0.1222 -0.2568  0.0753
12642W        W29490   9.680   4.697   2.359 -0.1051 -0.0312  0.0432
12643W        W29491  12.160  16.287  16.955 -0.1807  0.0513 -0.1777
12644W        W29492   9.804  17.044  14.543 -0.1879  0.0954  0.3053
12645W        W29493   4.613   0.299  13.634 -0.0316 -0.2014 -0.1343
12646W        W29494  11.490   4.145   4.883  0.0537  0.2147 -0.4135
12647W        W29495  16.775  15.585   4.042 -0.0496  0.0968 -0.1959
12648W        W29496  10.204   4.695  11.212  0.3272  0.1614 -0.1478
12649W        W29497   4.639   0.034   0.565 -0.1743 -0.0405 -0.0686
12650W        W29498   5.342  14.066   0.444 -0.1432 -0.2627 -0.1065
12651W        W29499   2.008  15.363   0.784 -0.0014 -0.0033  0.0534
12652W        W29500   8.569  12.515   3.749  0.1315 -0.0825  0.3857
12653W        W29501  14.290   8.908  15.533  0.0363 -0.2015  0.1029
12654W        W29502  14.335   4.103   2.192 -0.2458 -0.2009 -0.0143
12655W        W29503  13.316   1.692   3.245 -0.2737 -0.0004  0.1026
12656W        W29504   5.883  12.430   4.072 -0.1196  0.2007  0.2352
12657W        W29505   4.211   8.155  12.910 -0.0736 -0.0105 -0.2077
12658W        W29506  12.255  14.623   3.882  0.2905 -0.0567 -0.3478
12659W        W29507   2.236  15.366  13.893  0.0788 -0.0949  0.3517
12660W        W29508   3.299  11.419  14.691 -0.1441 -0.1513  0.1966
12661W        W29509  13.803   4.578   4.690  0.0695 -0.3716  0.2763
12662W        W29510  12.416   3.260   1.494 -0.3764 -0.1837  0.3058
12663W        W29511  16.454  14.013  15.367  0.3681 -0.0521  0.0121
12664W        W29512  12.353   9.380   4.395 -0.1269 -0.0425  0.4139
12665W        W29513   1.637  13.639  17.203 -0.1189  0.3425  0.0686
12666W        W29514  13.106   0.018  14.417 -0.1336  0.1479 -0.0315
12667W        W29515  15.259  12.383   3.468  0.1312  0.4080  0.0969
12668W        W29516   6.090   0.080   5.596 -0.4779 -0.1180 -0.2043
12669W        W29517  12.402   6.047   1.313 -0.0775  0.0622  0.0865
12670W        W29518  16.598   2.880  12.807  0.2949 -0.0222 -0.0321
12671W        W29519   1.372   1.835  14.348 -0.3723 -0.2053  0.0335
12672W        W29520   4.223   1.748   1.056 -0.0917 -0.0417  0.0374
12673W        W29521   9.798   2.136   4.701  0.2352  0.1618  0.1025
12674W        W29522   9.724  15.324   1.491 -0.2892 -0.3291 -0.2559
12675W        W29523  13.496  10.410   5.430  0.2486  0.0645 -0.0954
12676W        W29524   0.942  16.971  17.318  0.0994 -0.0060  0.0832
12677W        W29525   1.361   9.081   1.726  0.0023  0.1780 -0.0714
12678W        W29526  17.016  16.849   2.961  0.0614  0.0020  0.2694
12679W        W29527   7.146  10.247  13.412 -0.0669 -0.0770 -0.0422
12680W        W29528   3.336   3.206   4.857  0.1569 -0.0959  0.1516
12681W        W29529  14.896   1.051  16.132 -0.0102 -0.4220  0.0697
12682W        W29530   6.159  11.473   1.230 -0.0738  0.1150 -0.0909
12683W        W29531  13.998   4.456  15.498  0.1365 -0.0139 -0.0207
12684W        W29532   5.000  12.414   6.630 -0.2892  0.0406  0.0746
12685W        W29533  12.209   6.624  16.500  0.3952 -0.0850  0.1677
12686W        W29534   2.771  15.118   2.268 -0.0195  0.0773 -0.0725
12687W        W29535   9.270   0.279  15.656  0.0904  0.0693 -0.2464
12688W        W29536  14.928  13.158   1.072 -0.2448  0.1073 -0.1872
12689W        W29537  11.152   2.520  16.106  0.0635 -0.1106 -0.1749
12690W        W29538   2.569  12.729   3.718  0.2552  0.1321 -0.1113
12691W        W29539   0.240   6.450   0.869 -0.1150  0.0485  0.2969
12692W        W29540   5.125   0.233  13.552  0.0653 -0.2175 -0.0384
12693W        W29541   1.760  15.599   1.570  0.1111 -0.1845 -0.2720
12694W        W29542  12.313   8.745  17.756  0.0834  0.0337 -0.1836
12695W        W29543   0.035   3.583  14.662  0.1526 -0.0566  0.1518
12696W        W29544   5.885   5.344   0.431 -0.0789 -0.0672 -0.4064
12697W        W29545   6.147  16.216   1.979  0.2113  0.0105 -0.0988
12698W        W29546   4.421   7.099   1.604  0.4003  0.1333 -0.1308
12699W        W29547  14.845   4.399   4.563 -0.0948 -0.0254 -0.1399
12700W        W29548   4.645   5.833   4.736 -0.2343  0.1332  0.2117
12701W        W29549  15.811  11.262  17.406 -0.0909 -0.2503  0.0430
12702W        W29550   5.254   2.248  12.734  0.0049  0.0925 -0.0296
12703W        W29551  14.938   4.952   0.337 -0.0566  0.2431  0.0969
12704W        W29552   2.892   1.122  16.274  0.1596  0.3005  0.5828
12705W        W29553  15.902  10.288   0.562  0.0730  0.1711 -0.1195
12706W        W29554   6.019   9.839  13.347  0.2218  0.0169 -0.0277
12707W        W29555   7.952  12.739  15.233 -0.0183  0.2967  0.1066
12708W        W29556  16.834   2.753   2.492 -0.1195  0.1390  0.0427
12709W        W29557   5.616  11.357   4.881 -0.3727 -0.2837  0.1048
12710W        W29558  14.728  12.944   2.359 -0.1291  0.2354  0.0750
12711W        W29559  13.246  11.066   2.387 -0.2389 -0.0521 -0.0038
12712W        W29560   4.421   5.912   3.393  0.2571  0.0809  0.1021
12713W        W29561   9.405  12.897   4.263  0.0691 -0.1225  0.0501
12714W        W29562   6.613   1.549  12.098 -0.3801 -0.2270 -0.0689
12715W        W29563  12.984   8.147  15.632 -0.1251 -0.3288 -0.0906
12716W        W29564   1.944  14.647  14.570 -0.1696  0.0954  0.0554
12717W        W29565   4.965   7.681   5.490 -0.0186  0.0391 -0.0292
12718W        W29566   3.179  10.053   4.052  0.0653 -0.2144  0.1190
12719W        W29567   9.522   8.559   1.498 -0.1493  0.0511  0.0802
12720W        W29568  10.768   8.932  15.295 -0.0888 -0.0125 -0.1221
12721W        W29569   6.584  11.846   0.474 -0.0082 -0.1698 -0.0691
12722W        W29570   3.824   0.405  12.976 -0.0588  0.0285 -0.1432
12723W        W29571  15.136  12.595   2.121  0.2337 -0.1034 -0.1108
12724W        W29572   6.344  15.131   2.687 -0.2172 -0.0867  0.1467
12725W        W29573   7.920   5.582  13.093  0.0857  0.1599 -0.2104
12726W        W29574   2.912   8.888  16.867  0.0245 -0.1793 -0.3278
12727W        W29575  15.362  10.189  17.683 -0.0659  0.1802  0.0091
12728W        W29576   4.331   6.951  16.976  0.2803 -0.2733  0.2752
12729W        W29577   5.816  12.468  12.925 -0.0783 -0.0835 -0.3419
12730W        W29578   2.661  14.832   5.808  0.0048 -0.1470  0.0606
12731W        W29579   3.838   0.967  17.597 -0.0666 -0.1317 -0.2495
12732W        W29580  16.699  12.247  15.792 -0.2700 -0.0957 -0.2195
12733W        W29581  12.394  10.955  17.102 -0.3424 -0.1922 -0.0919
12734W        W29582   7.040   1.233  13.180 -0.0860 -0.1225 -0.0816
12735W        W29583   6.428   8.212  17.213  0.0615  0.0648  0.1099
12736W        W29584  13.239   0.644  11.967  0.0898 -0.3190 -0.2817
12737W        W29585  11.717   4.713   1.515  0.0107 -0.0604 -0.2327
12738W        W29586   7.992  16.570  14.361 -0.1053  0.0103 -0.2154
12739W        W29587   9.580   1.251   4.272  0.4243 -0.1884 -0.0583
12740W        W29588  13.852   6.179   1.392 -0.0521 -0.2568 -0.0768
12741W        W29589   9.445  15.029  17.177 -0.0598  0.2137 -0.0364
12742W        W29590   8.005   0.542  17.207  0.1635  0.0694  0.1305
12743W        W29591   9.097   3.681   5.791 -0.1550  0.0732  0.2913
12744W        W29592   6.233  12.056   4.397 -0.0479 -0.2310  0.0504
12745W        W29593   5.729   0.340   5.885  0.1487 -0.0853 -0.0601
12746W        W29594   2.868   0.680   3.848  0.1794  0.1595  0.2887
12747W        W29595  16.780   0.523   4.173  0.0186  0.1987  0.1959
12748W        W29596  15.038  12.807  14.797 -0.2922 -0.2590  0.0114
12749W        W29597   2.149  15.426  16.480 -0.2899 -0.1470 -0.0603
12750W        W29598   6.346   4.091   0.963  0.2654  0.1680 -0.2271
12751W        W29599  16.936   4.157   5.523  0.0590 -0.0999  0.1092
12752W        W29600  15.659   2.162  15.547 -0.1700  0.1342  0.1073
12753W        W29601   6.609   9.967   2.128 -0.1166  0.1292 -0.0398
12754W        W29602  11.550  13.814  16.029 -0.3799 -0.0808 -0.0849
12755W        W29603   5.122   6.524   2.884 -0.1418  0.0222 -0.3077
12756W        W29604   4.148  11.408   0.201  0.1403 -0.0730 -0.1646
12757W        W29605  15.296  14.027  12.477 -0.0656 -0.1124 -0.0877
12758W        W29606  11.848  13.531  16.884  0.0527  0.1542  0.1805
12759W        W29607   7.247  11.553  15.819  0.1364  0.3324  0.1792
12760W        W29608   2.420   6.494   0.078 -0.2678 -0.1384  0.0418
12761W        W29609   8.850  13.881   5.765  0.0993 -0.0315  0.0513
12762W        W29610  15.604  10.347  12.355  0.0223  0.1470 -0.1634
12763W        W29611   8.866   4.353   1.467 -0.2148  0.1384 -0.1697
12764W        W29612  14.323   3.713  14.326 -0.0460  0.0099  0.3818
12765W        W29613   3.168  14.880   5.846 -0.3493  0.1450 -0.1980
12766W        W29614  14.770   0.124  15.758  0.1051 -0.2479 -0.1965
12767W        W29615  12.267  11.964  15.557  0.2494 -0.2086 -0.1250
12768W        W29616  16.546   5.078   3.106  0.0356 -0.1273 -0.0341
12769W        W29617  12.041   0.711   2.562 -0.3869 -0.2038 -0.0866
12770W        W29618   6.778   9.759   3.970  0.1531 -0.1373 -0.1716
12771W        W29619  14.185   0.055  17.537  0.1322  0.0976  0.0269
12772W        W29620  16.671  12.475  17.036  0.0781 -0.1141  0.0233
12773W        W29621   3.086   8.409   2.466  0.0675  0.1617  0.0824
12774W        W29622  13.717  15.719  12.155 -0.0194 -0.2302 -0.0771
12775W        W29623   7.970  10.099   2.308 -0.1697 -0.0346 -0.3953
12776W        W29624  13.078   6.820   1.443 -0.1195 -0.1619 -0.4955
12777W        W29625   8.211   6.401  14.514  0.2963  0.0725  0.3473
12778W        W29626  16.283  12.997  16.121 -0.2200  0.0571 -0.5241
12779W        W29627  15.310   1.321  15.259 -0.0092 -0.0947  0.1846
12780W        W29628   5.034   5.726  15.272  0.0709 -0.2603 -0.1925
12781W        W29629  12.412   7.998  14.291 -0.1254 -0.0832 -0.0985
12782W        W29630  13.590  13.519  17.398 -0.0008 -0.1000 -0.0809
12783W        W29631   7.564   7.558   3.492 -0.0230 -0.1558 -0.0463
12784W        W29632   6.571   2.473   3.995 -0.2142 -0.0339 -0.2031
12785W        W29633  16.543   7.580   5.443  0.0920  0.3430  0.0734
12786W        W29634   8.360   5.622  12.759  0.1893 -0.2035  0.1733
12787W        W29635  16.430   2.275  17.225  0.3097 -0.1767  0.2205
12788W        W29636   1.864   9.842  13.301  0.3127 -0.0983  0.1698
12789W        W29637  15.885   6.109  15.526 -0.1042 -0.1939 -0.2823
12790W        W29638   7.763  14.171  15.455 -0.0774 -0.2809 -0.1236
12791W        W29639   7.955   8.712   4.550  0.0298  0.1432  0.0389
12792W        W29640  15.240   1.561   2.907 -0.0162  0.0006  0.4413
12793W        W29641   7.650  11.498  16.543 -0.1283 -0.3010 -0.2609
12794W        W29642   8.592   6.120   5.178  0.0054 -0.0185  0.0759
12795W        W29643   6.174   1.249  17.143  0.1680  0.5413  0.1920
12796W        W29644  11.792   6.835   4.551  0.3508 -0.0248  0.0641
12797W        W29645   6.262   0.022  11.467 -0.0507 -0.3354 -0.4282
12798W        W29646   6.886   3.300   3.966 -0.3301  0.1136  0.1493
12799W        W29647   6.025   5.698   3.193  0.1728 -0.0022 -0.0842
12800W        W29648   2.852   4.729   0.233 -0.2202  0.0134 -0.0493
12801W        W29649   0.516  11.737  12.419  0.0119  0.2134  0.1733
12802W        W29650   9.275   0.950   2.634  0.0762  0.0042 -0.1305
12803W        W29651   8.641  13.432   2.783 -0.3429  0.1737  0.0608
12804W        W29652   8.795   6.739  16.137 -0.0022 -0.2000  0.0355
12805W        W29653  13.172   4.765  14.929 -0.0773 -0.1278  0.1642
12806W        W29654  13.182   6.206   0.807  0.1184 -0.1785  0.0454
12807W        W29655  10.625  14.585   1.052  0.3214  0.2899 -0.2311
12808W        W29656   3.141  11.228  17.154  0.1846 -0.3758 -0.2024
12809W        W29657  12.000  16.106   2.687  0.1013  0.2981  0.0947
12810W        W29658   1.892   9.824  13.832 -0.0089  0.1160 -0.4286
12811W        W29659   5.180  14.604  16.676 -0.0194 -0.1733  0.0893
12812W        W29660  14.958   1.245   3.232  0.1822  0.1545  0.1290
12813W        W29661  10.659  16.079  15.684  0.0710 -0.0410 -0.4048
12814W        W29662   1.427   0.387   3.132  0.0855 -0.0203  0.2186
12815W        W29663   5.498   4.056  12.736 -0.0781 -0.0505  0.0326
12816W        W29664   2.921  14.905  13.290  0.0706  0.2566 -0.2826
12817W        W29665   6.731  12.579  17.205  0.2531 -0.1072  0.2960
12818W        W29666   5.497   1.221   2.039  0.0270 -0.2909  0.2371
12819W        W29667   3.820  14.023  15.955  0.0437  0.1531  0.0002
12820W        W29668   5.900   7.038  17.527  0.0085 -0.2478  0.3967
12821W        W29669   9.311  15.537   1.697  0.4753  0.1080  0.4409
12822W        W29670  11.087   9.936   4.099  0.2059 -0.1389  0.0173
12823W        W29671  11.432   0.644  14.607  0.0668  0.1321  0.0311
12824W        W29672  10.662  11.960  11.907  0.2436 -0.2723  0.5785
12825W        W29673   8.536   8.752   0.200 -0.0049  0.1564  0.0933
12826W        W29674   5.807  14.014   0.619 -0.0235 -0.0846  0.2911
12827W        W29675   2.676  16.877   4.923 -0.0712  0.1797  0.0693
12828W        W29676  10.815   4.813   5.849 -0.2856  0.1232  0.0061
12829W        W29677  12.311   0.716   1.598  0.2330  0.1179  0.2035
12830W        W29678   3.199   5.007   1.821  0.1724  0.1710  0.1238
12831W        W29679   8.290   3.432   0.593  0.3034  0.2013  0.0282
12832W        W29680  11.261   6.262   1.977  0.0823 -0.1743  0.1227
12833W        W29681   5.804  10.395  16.495 -0.1451  0.0427 -0.3031
12834W        W29682  13.533   3.757  15.430 -0.1533 -0.1354 -0.3561
12835W        W29683  14.155  16.337  16.763  0.0256 -0.0595 -0.2427
12836W        W29684  15.324  10.209  17.016  0.1976  0.1776 -0.1152
12837W        W29685   3.234   0.714   3.079  0.1594  0.2694 -0.0613
12838W        W29686   7.802  14.642  15.466  0.1303  0.0018  0.3279
12839W        W29687   6.104  15.547   0.722  0.1206  0.1271  0.0183
12840W        W29688   1.085  13.449  17.381  0.2586 -0.1104 -0.0394
12841W        W29689   0.224   2.642  16.070 -0.0254  0.0779 -0.1157
12842W        W29690   6.598   8.928   2.936 -0.0441 -0.0118  0.3025
12843W        W29691  13.841  13.138  15.183 -0.3062 -0.1370 -0.0057
12844W        W29692  10.966   1.982  13.948  0.2778 -0.1348  0.1384
12845W        W29693   3.993   1.504   0.483  0.1196 -0.0168  0.0693
12846W        W29694   0.764  13.382   0.025  0.1497 -0.1517  0.0233
12847W        W29695   1.089  15.668   4.136 -0.0051 -0.3765 -0.0004
12848W        W29696   4.612  15.151   2.985 -0.1711 -0.2334 -0.3687
12849W        W29697   5.929   7.237   2.126  0.0364  0.0730  0.0271
12850W        W29698  14.139  10.002   0.604 -0.1098  0.1316  0.1057
12851W        W29699  16.457   5.436  15.194  0.0472  0.1117  0.0510
12852W        W29700  13.796  14.854  16.763 -0.2925 -0.1420  0.0000
12853W        W29701  14.627   6.678  13.803  0.0321  0.1268 -0.0346
12854W        W29702  14.553  15.826  17.532 -0.5108 -0.0340 -0.2012
12855W        W29703   2.121  15.448  14.899  0.2792 -0.0350 -0.1524
12856W        W29704   5.568   2.458   3.997 -0.1655 -0.1772 -0.1348
12857W        W29705   1.571  16.202  12.465  0.0276  0.0711 -0.2779
12858W        W29706  15.975   6.103   1.852  0.0584 -0.1470 -0.0178
12859W        W29707  10.287  11.205   0.245  0.3316  0.1457 -0.1776
12860W        W29708   3.726   9.178   3.894 -0.1052  0.0444  0.0155
12861W        W29709  15.742   7.022  16.349 -0.0065  0.1737  0.1205
12862W        W29710  11.837  12.458   3.343 -0.0369 -0.0387  0.0238
12863W        W29711  10.391   9.923   6.698  0.3789 -0.1040 -0.0531
12864W        W29712   3.764  15.903   1.718 -0.3113  0.2056 -0.2667
12865W        W29713   7.696   0.685  12.199 -0.0400  0.0578 -0.2346
12866W        W29714  10.795  15.220   5.437 -0.0275 -0.2795  0.1492
12867W        W29715  16.879   1.212  13.870  0.0651  0.1250  0.0641
12868W        W29716   9.617  11.770  13.979 -0.3492  0.2165 -0.2685
12869W        W29717   4.355  10.845  14.582  0.0172  0.2182 -0.0632
12870W        W29718  16.947  12.121  11.800 -0.0017 -0.0085 -0.0959
12871W        W29719   9.102  11.269  17.038  0.1712 -0.0627  0.1314
12872W        W29720   6.892   9.441  13.057 -0.4367 -0.0295 -0.3426
12873W        W29721   8.010   0.240   0.411 -0.0486 -0.0617  0.1371
12874W        W29722   2.209   3.277   0.262 -0.3122 -0.0633  0.1814
12875W        W29723   2.409   8.554  17.329 -0.0613  0.3349  0.2629
12876W        W29724   6.415  14.121   1.681 -0.2021 -0.2008  0.1999
12877W        W29725  15.356   4.112  17.188 -0.0718 -0.1781  0.0632
12878W        W29726  15.029   3.380   3.808 -0.0743  0.0065  0.2212
12879W        W29727  10.475  13.022  17.477 -0.0947 -0.1678  0.0321
12880W        W29728   9.971  13.787   2.491  0.0492  0.1620 -0.2538
12881W        W29729   7.023   9.929  15.613  0.1516  0.1168  0.0818
12882W        W29730  15.599   1.328  12.751 -0.0630  0.0358  0.0418
12883W        W29731  15.121   4.163   1.256  0.0317 -0.1676  0.2623
12884W        W29732   3.563   2.526  12.674 -0.0545  0.1150 -0.1447
12885W        W29733  11.951   0.194  17.153  0.0031 -0.1804 -0.0213
12886W        W29734   9.935  15.417   4.834  0.2291 -0.1026 -0.4207
12887W        W29735  12.821  11.247  13.637  0.2591 -0.1222 -0.0587
12888W        W29736  14.694  16.603   2.815  0.0015 -0.0967  0.2709
12889W        W29737   0.780  16.053   0.892  0.1342 -0.1730  0.1861
12890W        W29738   9.445  16.645  12.620 -0.1982  0.1318  0.1852
12891W        W29739   5.059  16.548   5.791 -0.2939 -0.1001  0.0983
12892W        W29740  15.707  13.366  14.948  0.2919  0.2921  0.2549
12893W        W29741  14.451  12.900   2.911 -0.1754 -0.0616  0.0588
12894W        W29742   5.701   2.335   2.211  0.2252  0.0323  0.0701
12895W        W29743  10.378   3.642   0.109 -0.0776  0.0744  0.0314
12896W        W29744  12.716   1.420   3.736  0.3524  0.1520 -0.0950
12897W        W29745   9.478   5.019  14.416 -0.0206  0.2444 -0.0713
12898W        W29746   9.499   8.188  14.224  0.3318  0.0470  0.1050
12899W        W29747   1.693   7.769   0.939 -0.2789 -0.2858 -0.0655
12900W        W29748  14.359   6.009  12.438  0.1112 -0.1749 -0.1932
12901W        W29749   1.247   5.435  15.565  0.0169 -0.0257  0.0427
12902W        W29750   4.875  13.953   1.515  0.0907 -0.0625  0.0239
12903W        W29751   3.002   5.249   0.046 -0.0493 -0.0485  0.0119
12904W        W29752   3.190  15.062  15.342 -0.1351 -0.0538  0.1940
12905W        W29753  10.858   0.952   3.329  0.2325  0.0720 -0.0007
12906W        W29754   7.955  14.671   4.705  0.0336 -0.0616  0.4202
12907W        W29755   3.982  15.485  15.561  0.2966  0.0226  0.0913
12908W        W29756   2.509  10.539  14.873  0.0750  0.1880 -0.0093
12909W        W29757  14.688   6.653   4.248 -0.1774 -0.1726  0.2805
12910W        W29758  12.342  15.183   1.640  0.2056 -0.4337 -0.0212
12911W        W29759   0.466   4.005   1.950  0.0070  0.0695 -0.0884
12912W        W29760   7.071   4.280  14.608  0.1788 -0.0312  0.1449
12913W        W29761  16.453   8.946   0.176 -0.0752 -0.0304  0.2561
12914W        W29762  12.259  13.551   0.882 -0.1233 -0.0726  0.0071
12915W        W29763   8.948  12.480  14.913  0.1536 -0.0494 -0.0340
12916W        W29764  12.728  16.307  17.178 -0.0551 -0.0267  0.0418
12917W        W29765  15.545   9.323   3.851 -0.2730 -0.1469  0.2585
12918W        W29766  14.492  16.082  15.837 -0.2417 -0.2454 -0.2474
12919W        W29767  16.072   2.014  16.618 -0.3637  0.0516  0.0624
12920W        W29768   7.040   2.108   0.540 -0.0158  0.0193 -0.0214
12921W        W29769   3.514   9.050   5.037 -0.2051 -0.3472 -0.1627
12922W        W29770  17.006   1.073   4.782 -0.2649  0.0232  0.2036
12923W        W29771  14.833  15.781  15.580  0.2618  0.2101 -0.2039
12924W        W29772   3.928   8.250  14.959  0.0289 -0.2389  0.0027
12925W        W29773   4.676   6.830   3.810 -0.4996 -0.0742  0.1520
12926W        W29774   2.267  10.236   0.678 -0.1281 -0.1023 -0.0147
12927W        W29775   9.790   6.777   4.368 -0.1728  0.1708  0.1487
12928W        W29776   7.957   7.367  16.151  0.0707 -0.1165  0.1378
12929W        W29777  13.561   9.918   1.937  0.0545  0.1251  0.1762
12930W        W29778  10.108  16.897  15.334 -0.2557  0.1454 -0.1723
12931W        W29779   5.638   2.018   5.872  0.2930 -0.1194  0.2594
12932W        W29780  16.465  15.140   4.251 -0.0686  0.1784  0.2434
12933W        W29781   9.218   4.965  10.874 -0.1673  0.2455  0.2456
12934W        W29782  14.128  14.172  17.548  0.0245  0.1289  0.1574
12935W        W29783   9.949  13.410   1.578 -0.0997 -0.1828 -0.2490
12936W        W29784  12.479   6.551  17.446  0.1153 -0.0449  0.1812
12937W        W29785   7.429   1.601  14.020 -0.3650  0.0728 -0.2214
12938W        W29786   7.067   6.062   1.591 -0.0733  0.2682  0.1753
12939W        W29787  14.848   5.623   5.643 -0.4016  0.1941  0.2479
12940W        W29788   9.492  12.707  12.275  0.1165  0.0669 -0.1518
12941W        W29789  16.724  16.540   5.433  0.1676 -0.2119 -0.0645
12942W        W29790   2.466  15.853  11.967 -0.1970  0.0614 -0.3532
12943W        W29791  16.049   7.090   2.393  0.0768  0.1490  0.2499
12944W        W29792  14.963   8.589   6.784 -0.0580  0.0030 -0.1876
12945W        W29793   9.512   9.075  13.760  0.1462  0.4615  0.1877
12946W        W29794  16.517   9.476  16.347  0.4082  0.2805  0.2176
12947W        W29795   9.640   9.940   3.968  0.0714 -0.0480 -0.1385
12948W        W29796   6.185   5.232  15.953 -0.1933  0.1022  0.0221
12949W        W29797  16.977   7.985  11.567 -0.0002  0.1569 -0.0631
12950W        W29798   0.722  14.208  12.696 -0.0173 -0.2198  0.3315
12951W        W29799   6.834   8.117   1.547 -0.0235  0.1087 -0.0836
12952W        W29800   0.071   4.453  12.917 -0.2949 -0.1326  0.3302
12953W        W29801   0.757   3.045   2.388 -0.1580  0.1829 -0.1103
12954W        W29802   8.147   9.084   2.072 -0.0033 -0.0779  0.0918
12955W        W29803  14.241   2.686   1.068  0.0937 -0.1918  0.1571
12956W        W29804   8.067  10.624   3.807  0.0152 -0.0674 -0.0201
12957W        W29805   1.353  14.852  11.279 -0.1751 -0.1093 -0.2858
12958W        W29806   9.095   3.069  17.502 -0.0334 -0.1879 -0.3526
12959W        W29807   1.062   1.719   2.416  0.0067  0.0838 -0.1048
12960W        W29808  11.635  14.856   1.752  0.0292  0.2873  0.0436
12961W        W29809   2.706   6.941   1.325  0.1313 -0.2442 -0.1721
12962W        W29810   7.060   2.933  16.297  0.3232  0.4327 -0.2037
12963W        W29811   6.389   6.986  17.425  0.0029  0.1012  0.2714
12964W        W29812   8.988  13.615  16.001 -0.0034  0.0266 -0.2565
12965W        W29813  14.827  16.091   3.637 -0.1507 -0.0384 -0.0929
12966W        W29814  16.140  13.639   1.125  0.1640 -0.1176 -0.4768
12967W        W29815  15.678  16.202  14.099 -0.0215  0.2038 -0.2066
12968W        W29816  16.509  11.798  15.157 -0.2685  0.3198 -0.4659
12969W        W29817   9.289   0.660   3.080 -0.1291  0.3030 -0.1190
12970W        W29818   0.996   2.549  14.813 -0.0396 -0.3753 -0.0412
12971W        W29819   9.331   8.472   2.417  0.2306  0.2763 -0.0611
12972W        W29820  12.562  14.706  17.205  0.0485  0.4261 -0.0198
12973W        W29821   6.102  13.432  12.982  0.0799  0.1604  0.0806
12974W        W29822   2.879  16.045   0.496  0.1237 -0.3133  0.0244
12975W        W29823  12.123  11.815   2.659  0.1389 -0.0297  0.2197
12976W        W29824  11.271  13.143  15.117 -0.2338  0.0168  0.0287
12977W        W29825  16.256   3.330   3.679  0.2815 -0.1885  0.2565
12978W        W29826  16.700   1.102  13.196 -0.2277  0.3100 -0.0320
12979W        W29827   4.079   5.258  13.934 -0.1654 -0.2123 -0.0873
12980W        W29828  16.687   9.366   4.961  0.3651  0.2085 -0.1841
12981W        W29829  11.897   7.806  14.939  0.0285 -0.2521  0.1925
12982W        W29830   0.794   6.931  16.465 -0.4219 -0.5114  0.0777
12983W        W29831  16.887  14.817   5.953  0.1103 -0.2016  0.0710
12984W        W29832   6.027   8.889  13.878  0.2245 -0.3045 -0.0447
12985W        W29833   1.778  14.076  12.357  0.2171 -0.1059  0.1761
12986W        W29834   0.843   9.293   1.832 -0.2923  0.2562  0.0035
12987W        W29835  14.255   0.039   0.615  0.0022  0.2870  0.1778
12988W        W29836   0.220   6.824   4.519  0.1743 -0.0634  0.1511
12989W        W29837  11.413  15.688  17.522  0.4950 -0.1095 -0.2028
12990W        W29838   3.642   3.692   4.795 -0.2184 -0.0001  0.1404
12991W        W29839   8.749   5.334  15.381 -0.1289  0.0892 -0.0155
12992W        W29840   6.876   3.500   0.396  0.0294 -0.0880  0.2752
12993W        W29841   5.596   5.729  14.725 -0.3692  0.0923  0.1601
12994W        W29842   9.761  14.113  16.967 -0.3254 -0.1558  0.2184
12995W        W29843   4.995   8.634   2.745  0.1632  0.0767  0.3936
12996W        W29844   8.378  11.135   3.867  0.1821 -0.3107 -0.0335
12997W        W29845   4.466   2.330   4.968  0.0947  0.0273  0.1576
12998W        W29846   1.489  16.634  15.455  0.0587 -0.0470  0.1268
12999W        W29847  12.719   1.964   6.715 -0.0547  0.0701  0.3391
13000W        W29848  14.196   0.963  17.461 -0.1901 -0.0177  0.1068
13001W        W29849   2.985   6.999   0.201 -0.1356 -0.1612 -0.0894
13002W        W29850  16.440  15.646   5.362  0.0181  0.2115 -0.3294
13003W        W29851   2.746  10.684  13.558 -0.0014 -0.2402  0.1607
13004W        W29852   6.182  11.649   0.255  0.2181  0.0531 -0.0895
13005W        W29853   6.229   3.584   0.745 -0.2222 -0.1472 -0.2762
13006W        W29854   9.948  15.302  12.673 -0.1176 -0.0649  0.0854
13007W        W29855  15.988   7.608   0.240 -0.1461 -0.1378 -0.0725
13008W        W29856  15.121  10.627   5.409  0.0358 -0.3554  0.0248
13009W        W29857  14.867  10.299   5.118  0.1712  0.4151  0.0876
13010W        W29858   2.792  11.507   2.822  0.0918  0.1800  0.0545
13011W        W29859  12.102  14.029  12.700 -0.0380 -0.0934  0.1827
13012W        W29860   3.904   4.128  15.228  0.1886 -0.1884  0.0151
13013W        W29861   4.808   9.108   5.429 -0.0340 -0.0715 -0.1733
13014W        W29862   3.846  13.300  13.888 -0.1327 -0.0556 -0.2440
13015W        W29863   9.157   0.964   5.495  0.0042 -0.0993 -0.2081
13016W        W29864  15.396   1.147   2.020 -0.1677  0.2895 -0.0937
13017W        W29865   6.787  10.540   4.817 -0.1893  0.3244 -0.2247
13018W        W29866  15.334   4.109   2.644  0.0047 -0.0550 -0.0294
13019W        W29867  16.718  11.106   0.614 -0.0157  0.0203  0.0668
13020W        W29868   8.312  15.198   4.669 -0.1373 -0.2928 -0.1367
13021W        W29869   0.676   5.184   5.239  0.0817 -0.1622 -0.2372
13022W        W29870  10.668  10.881   1.960  0.1612  0.1742  0.0183
13023W        W29871   1.916  14.798   5.004 -0.1144 -0.3187  0.0630
13024W        W29872   7.996  15.175   4.254 -0.1147  0.1614 -0.1535
13025W        W29873   4.219   0.130   0.860  0.0651 -0.1483  0.0623
13026W        W29874   5.703  13.821   1.858 -0.1661 -0.1894 -0.3496
13027W        W29875  12.911  12.863  11.189  0.1146 -0.0730  0.2618
13028W        W29876   8.404  16.989   1.865 -0.0023  0.1747  0.1694
13029W        W29877   3.409   2.316   5.340 -0.0490  0.1212 -0.3749
13030W        W29878   2.316   9.444   1.285 -0.0827 -0.0691 -0.1005
13031W        W29879  12.735   5.807  15.396 -0.1663 -0.2521 -0.1345
13032W        W29880   4.835   7.302   3.879  0.0759 -0.0138  0.1201
13033W        W29881   7.416   5.714  16.416 -0.1264  0.2840  0.0484
13034W        W29882   7.894   1.524   2.736  0.0730  0.0842 -0.3249
13035W        W29883   6.641   4.772  15.696 -0.0626  0.1703 -0.1833
13036W        W29884  15.665   6.500   1.004 -0.0675  0.0064 -0.1227
13037W        W29885   6.439  16.833   3.828  0.0315  0.2130 -0.0402
13038W        W29886  14.883   9.878   4.859  0.1946  0.0184 -0.1307
13039W        W29887  12.879   7.209  13.265  0.2933 -0.3542  0.1540
13040W        W29888   7.903   0.946   4.235 -0.0251  0.0042 -0.0760
13041W        W29889   5.481   0.153  17.245 -0.0883  0.2029  0.1070
13042W        W29890   8.681   8.996  15.476  0.0240 -0.0679 -0.1638
13043W        W29891   4.245  11.817   5.873 -0.2887 -0.2080 -0.0034
13044W        W29892  14.077   9.697   5.794 -0.1992  0.1823 -0.1573
13045W        W29893  14.725   6.378  12.377 -0.1289  0.0337 -0.1854
13046W        W29894   1.961   1.327  15.850 -0.1626 -0.0120 -0.0058
13047W        W29895  16.412  10.333   4.247 -0.0988  0.1708  0.0486
13048W        W29896   6.471   5.386  12.976 -0.1183 -0.0147  0.0480
13049W        W29897   5.584  10.450   5.348  0.1911  0.3349 -0.0707
13050W        W29898  16.250   4.671  16.273  0.4395  0.0448 -0.2526
13051W        W29899  12.216   8.150   3.410  0.0658 -0.0561  0.0029
13052W        W29900   1.991   8.041  13.753 -0.0321 -0.0363 -0.1588
13053W        W29901  14.615  11.421  12.744  0.2912  0.3192  0.1662
13054W        W29902  16.133  10.568  14.708  0.3026 -0.2002 -0.2318
13055W        W29903  12.876  14.266  16.604 -0.1442 -0.1407 -0.1858
13056W        W29904   9.794   8.831  15.134 -0.0762 -0.1109  0.0449
13057W        W29905  13.282   8.529   5.143  0.1039  0.0735  0.4643
13058W        W29906  10.233   0.490   2.999  0.0366  0.1563 -0.2982
13059W        W29907  14.376  10.002  15.299  0.0557 -0.1586 -0.2044
13060W        W29908  16.097  13.604  15.308 -0.0565  0.2523 -0.0528
13061W        W29909   0.527  10.184  14.634  0.2111  0.1788 -0.0547
13062W        W29910   5.669   3.080  13.447  0.0008 -0.1834 -0.0194
13063W        W29911  10.351  13.562   0.199 -0.1139  0.0625  0.1929
13064W        W29912   3.354   8.820  12.812 -0.2187 -0.0402  0.0617
13065W        W29913   5.919  14.139  12.689 -0.0384 -0.0486  0.2787
13066W        W29914   1.926   3.303   1.202 -0.0340  0.3691 -0.0021
13067W        W29915   5.525  10.506  17.269  0.2029  0.0994 -0.0001
13068W        W29916  17.064  14.546   0.601 -0.0480  0.0374 -0.2108
13069W        W29917   8.606  15.357   5.705  0.2190 -0.0799  0.1095
13070W        W29918   8.061  14.800  12.010  0.0047 -0.1336  0.1993
13071W        W29919  14.132   6.728  15.950 -0.0677 -0.0061 -0.0973
13072W        W29920  11.737   2.177  13.343  0.1061 -0.2826  0.1346
13073W        W29921  11.874   8.299   0.725  0.2357 -0.0809 -0.2236
13074W        W29922   2.581   9.513  16.069  0.1512 -0.2060  0.0219
13075W        W29923   5.614  11.593   2.142 -0.0652 -0.2105  0.0062
13076W        W29924   9.613   3.501  13.065 -0.1427 -0.2663 -0.4775
13077W        W29925   2.487   4.456  17.834 -0.1806  0.1309  0.4625
13078W        W29926  16.359   5.057   2.505  0.0209 -0.1326  0.0825
13079W        W29927  13.039   8.491  13.681 -0.0149 -0.1793 -0.0069
13080W        W29928  15.794   3.334   5.720  0.3171  0.0723  0.1119
13081W        W29929  10.661  10.792  12.446  0.2144  0.2551  0.2746
13082W        W29930   7.163  11.673   3.237  0.3274  0.2331 -0.0909
13083W        W29931   4.228   1.276   2.744 -0.0966 -0.0155  0.1018
13084W        W29932  10.190  10.575  12.263 -0.1139 -0.0145  0.1052
13085W        W29933   4.831   9.412   0.835  0.1998 -0.1706  0.2166
13086W        W29934  13.073   5.302  14.846  0.1420 -0.0534  0.3069
13087W        W29935   8.244   8.924   6.159 -0.0873 -0.3732 -0.0377
13088W        W29936   4.763  10.814  17.450  0.3036  0.1813  0.2247
13089W        W29937   3.547  15.209   2.199  0.5278  0.1829 -0.0922
13090W        W29938  14.411   0.134  12.264 -0.0959 -0.0677 -0.2020
13091W        W29939   7.493   5.222   0.080  0.1228  0.0642 -0.2564
13092W        W29940   0.860   0.880  12.342 -0.3098  0.1369 -0.3206
13093W        W29941  10.109   0.053  13.606  0.2950 -0.2395  0.1979
13094W        W29942  12.105   9.708   1.394 -0.1003  0.2702  0.0947
13095W        W29943   7.770   5.623   1.713  0.4429  0.2273 -0.2610
13096W        W29944   6.988   9.578   1.231 -0.0336  0.1234  0.0143
13097W        W29945  13.357   9.253  13.989 -0.1079  0.0440 -0.1052
13098W        W29946   4.786  16.341   4.659  0.0382  0.2258  0.1060
13099W        W29947   4.613   5.581  14.656 -0.0070  0.0805  0.4404
13100W        W29948  16.829   0.736   1.807  0.1942 -0.1434  0.2178
13101W        W29949   1.856   3.823  13.111  0.1732 -0.0732 -0.1157
13102W        W29950  13.348   5.977  12.653  0.0027  0.1183 -0.3517
13103W        W29951   6.918   3.630  13.073  0.2292  0.5917  0.0814
13104W        W29952  14.218  10.376   3.567 -0.2544  0.1774 -0.0613
13105W        W29953  15.307   9.495  17.638 -0.0709 -0.2132 -0.2710
13106W        W29954  10.382   3.396   1.928 -0.0509 -0.4212 -0.0679
13107W        W29955   3.010   5.265   4.567  0.3930 -0.1330  0.0476
13108W        W29956   2.767  11.767   3.584 -0.0938 -0.1803  0.0544
13109W        W29957  13.725   2.080  16.233 -0.0910 -0.0885  0.3673
13110W        W29958  15.458   2.799   3.279  0.0901 -0.0729  0.0123
13111W        W29959   3.729   0.471  12.467 -0.2223  0.1129  0.1762
13112W        W29960  10.787   6.996   4.600 -0.1093  0.1357  0.1118
13113W        W29961   0.746   7.788   0.908  0.3157  0.0789  0.0217
13114W        W29962  11.490  16.232  15.673  0.0295  0.2954  0.0959
13115W        W29963   3.505  15.760  13.041 -0.0576  0.0928  0.0025
13116W        W29964   6.702  12.377  13.962 -0.0776 -0.1565 -0.3659
13117W        W29965   7.569   6.226  12.502 -0.0243  0.0481 -0.0203
13118W        W29966  12.552  15.439   5.762 -0.0580 -0.1874 -0.1846
13119W        W29967  13.322  15.754   4.208  0.1712  0.0228 -0.3995
13120W        W29968  12.276   0.938  17.468  0.0486 -0.2255 -0.1285
13121W        W29969   0.673   8.556  16.911  0.2260  0.1074  0.0027
13122W        W29970   9.619  14.907  13.548 -0.0937  0.0810 -0.0454
13123W        W29971   0.991   9.493  15.353 -0.2461  0.0275  0.2922
13124W        W29972   4.554   2.742   2.698  0.1925 -0.0340 -0.2440
13125W        W29973  11.072   3.280  15.690 -0.0204 -0.2443  0.0131
13126W        W29974  11.858   0.766  13.841 -0.1951 -0.2643  0.0325
13127W        W29975  13.748   2.847   0.697  0.1158  0.0965  0.3087
13128W        W29976   1.997  15.710  12.932  0.0028 -0.0488  0.4571
13129W        W29977   8.860  16.833   0.969 -0.0078 -0.1417 -0.7195
13130W        W29978  15.279   3.231   5.509 -0.0067 -0.0632 -0.1742
13131W        W29979   5.533   1.256  15.828 -0.0401  0.1206  0.0252
13132W        W29980   5.570  15.162   2.669 -0.3225 -0.2533 -0.0720
13133W        W29981  13.648  10.431  16.186 -0.1366  0.3136 -0.1832
13134W        W29982  14.044  12.854   0.051  0.0275 -0.0514 -0.1065
13135W        W29983   7.703   5.280   3.882  0.2014  0.0814 -0.0979
13136W        W29984   6.057  13.736   1.565 -0.1503 -0.0487 -0.1883
13137W        W29985   9.984   8.012   5.743 -0.1972  0.0017 -0.0019
13138W        W29986  14.687   4.040  13.502 -0.3494  0.0338 -0.0086
13139W        W29987   9.862   5.445  16.832 -0.1310 -0.2429  0.0453
13140W        W29988   6.984   2.844  17.635 -0.0171 -0.0800  0.0526
13141W        W29989   9.904   8.170   4.770  0.3232  0.0880  0.0207
13142W        W29990   4.422   1.905  12.528  0.0646 -0.1180  0.1808
13143W        W29991   9.386   5.324  13.552 -0.4062  0.1901 -0.0480
13144W        W29992   5.994   9.937  13.850  0.1875 -0.0375 -0.0029
13145W        W29993   5.229   2.725   2.088 -0.2133 -0.3916 -0.0354
13146W        W29994   7.416  11.216   3.226  0.2440  0.1818 -0.2743
13147W        W29995  14.652  16.757   4.866  0.2933  0.2924 -0.0348
13148W        W29996  10.993  15.220  15.255  0.2501 -0.0836 -0.0056
13149W        W29997   9.414  15.967   4.341  0.1095  0.2342 -0.1598
13150W        W29998   7.446  15.782   0.930  0.0704  0.2527 -0.1622
13151W        W29999  14.379  10.453  15.523 -0.0954 -0.2194 -0.0982
13152W        W30000   2.563  15.656   3.078  0.0957  0.0381 -0.0407
13153W        W30001   0.184  15.635  12.850  0.2085 -0.0879  0.2627
13154W        W30002   4.130  13.084   5.263 -0.0121  0.0470  0.0574
13155W        W30003  10.310  11.011  13.612 -0.0756  0.2556  0.2316
13156W        W30004  12.237  11.792  17.493 -0.2309  0.2317 -0.0127
13157W        W30005  15.263  13.465   5.050 -0.0056  0.1497 -0.0479
13158W        W30006  15.784   6.066  13.390  0.2637 -0.0778 -0.1116
13159W        W30007  12.331   1.805  14.088 -0.1540  0.0376  0.3062
13160W        W30008   0.672   2.205   2.080  0.1002 -0.2247 -0.1039
13161W        W30009   2.082  11.361   2.925  0.2439 -0.0069 -0.0807
13162W        W30010   5.753  14.717  15.912 -0.0321 -0.2058  0.3192
13163W        W30011  13.560  14.899   4.092  0.2411  0.0345 -0.1077
13164W        W30012   0.100  13.253  13.151  0.0480 -0.2127 -0.2565
13165W        W30013   0.823   9.649   2.224  0.0935  0.1178  0.1314
13166W        W30014  14.832   4.198  13.950 -0.1426 -0.0134  0.2964
13167W        W30015   6.898  12.638   3.091  0.0580  0.0562 -0.0254
13168W        W30016   3.384   3.221   1.865  0.0654 -0.3047 -0.2404
13169W        W30017   8.860  10.892  12.410 -0.2466 -0.0687 -0.1957
13170W        W30018  12.217  14.886   5.001  0.0091  0.0049  0.0959
13171W        W30019  10.873  10.609  14.307  0.0207 -0.2024  0.0586
13172W        W30020   7.789  16.477   0.654  0.1597  0.1193  0.0026
13173W        W30021   8.145  14.987  17.451  0.0672  0.0804 -0.3855
13174W        W30022  16.851  12.332  12.327  0.1365  0.2137  0.1246
13175W        W30023   3.971   6.195   5.050 -0.1044 -0.1963  0.0515
13176W        W30024  14.164   8.919  12.548  0.1000 -0.2110  0.0970
13177W        W30025  15.587   0.497  13.914  0.3140  0.1070  0.1358
13178W        W30026   8.997   9.799  12.894  0.3297 -0.3035 -0.0330
13179W        W30027   9.257   9.665   3.268 -0.2584 -0.2528 -0.2815
13180W        W30028  11.793   9.140   3.623 -0.0844  0.2359 -0.1412
13181W        W30029   8.407   8.092  12.504 -0.0137  0.1194 -0.0350
13182W        W30030   1.889  16.025  17.492  0.0446 -0.2108 -0.0440
13183W        W30031   8.014  16.116  12.117 -0.0918 -0.1219  0.0593
13184W        W30032   7.110   3.831   4.273  0.2169 -0.0785  0.0206
13185W        W30033  10.328   7.345   4.596  0.0013  0.1671 -0.1553
13186W        W30034  13.356   5.282   4.720 -0.1003 -0.0926  0.0289
13187W        W30035   1.464   3.322  16.212  0.1080  0.1560  0.0295
13188W        W30036  13.675   9.877   2.899 -0.3091  0.1677  0.2741
13189W        W30037   3.042  13.779   1.588 -0.0438 -0.1216  0.1386
13190W        W30038  13.283   8.705  12.489  0.2192  0.1872 -0.1860
13191W        W30039   1.046  15.271  12.055  0.0882  0.2248  0.2955
13192W        W30040   1.266  15.157   4.926 -0.5030  0.1009 -0.3051
13193W        W30041   6.985  16.430   0.629  0.1125  0.2407 -0.2610
13194W        W30042  13.436   1.209   3.017  0.2350  0.0457  0.0071
13195W        W30043  13.334   4.179  11.691 -0.1640 -0.3276  0.1120
13196W        W30044  10.732   8.611   5.396 -0.3586 -0.3100 -0.1194
13197W        W30045   5.703   2.742  14.409  0.1318  0.1710  0.1763
13198W        W30046  13.173   1.711  14.583 -0.0063  0.1304  0.1275
13199W        W30047   2.856   6.145   1.217  0.4210 -0.1043 -0.0030
13200W        W30048   4.953  15.700   2.249  0.1475 -0.3791 -0.2093
13201W        W30049   0.765   5.143   3.867  0.1784 -0.2080 -0.2540
13202W        W30050  16.685  13.353  13.416 -0.2234  0.0193  0.1292
13203W        W30051   4.243   1.041  13.200  0.0783 -0.3693 -0.1662
13204W        W30052   9.030   2.820   4.382 -0.1065 -0.1013  0.1369
13205W        W30053  11.510   4.938  14.425 -0.0749 -0.1238  0.2926
13206W        W30054  10.858  12.173   0.447  0.0953  0.0493  0.0949
13207W        W30055   9.693   6.669  14.083 -0.0087  0.1442  0.0709
13208W        W30056  13.179   9.796   4.561  0.1773 -0.0141 -0.0108
13209W        W30057  13.745   6.495   2.856  0.0613 -0.0253  0.0590
13210W        W30058  15.122  14.357   2.544  0.0497 -0.0505 -0.1101
13211W        W30059  14.166  10.982   2.798  0.0647  0.0686  0.2798
13212W        W30060  17.060   3.038  17.548  0.2585  0.0102  0.0249
13213W        W30061  14.329   3.510   2.680  0.0735 -0.2130 -0.3408
13214W        W30062  14.405  12.088  13.320  0.0202 -0.1811  0.3242
13215W        W30063  15.901  10.722   6.041 -0.1123 -0.0992 -0.0215
13216W        W30064   3.511   5.052  13.233 -0.0222  0.2546 -0.0111
13217W        W30065   4.370  14.470  15.436 -0.0462 -0.1307 -0.0567
13218W        W30066  16.173  10.048  11.475 -0.1696 -0.1714 -0.3379
13219W        W30067  10.971  10.602   4.806  0.0576  0.0718 -0.3442
13220W        W30068  10.666   2.692   1.211 -0.4197 -0.0301  0.3419
13221W        W30069   7.218  13.633  16.849 -0.0952 -0.2249  0.0708
13222W        W30070   6.394  14.426   4.789 -0.2267  0.0406  0.2667
13223W        W30071   6.873   1.870   4.034  0.1943 -0.0115 -0.1278
13224W        W30072  10.136   2.869  11.421  0.0485 -0.0031  0.1942
13225W        W30073  15.316   3.384  14.987 -0.0937  0.0909 -0.0590
13226W        W30074   7.545   4.524   4.595 -0.1144 -0.1446  0.2192
13227W        W30075   3.718   5.173  14.652 -0.2611 -0.0545 -0.2022
13228W        W30076   3.995  13.245  14.819 -0.0261  0.2717  0.0042
13229W        W30077  11.726  11.247   3.376 -0.0824 -0.3031 -0.0148
13230W        W30078  13.795   7.436   1.082  0.2007  0.0088  0.0991
13231W        W30079   0.401  12.613  15.108 -0.3303  0.0368  0.0343
13232W        W30080   6.547   8.034   1.995 -0.0284 -0.3054 -0.0476
13233W        W30081  15.752  13.493  17.711  0.1501 -0.0916 -0.0591
13234W        W30082   6.745   2.678   2.997 -0.1847 -0.1424  0.0097
13235W        W30083  12.566   3.349   4.011 -0.2151 -0.1410 -0.0225
13236W        W30084  12.210   9.041  15.089  0.1883 -0.1141 -0.1696
13237W        W30085  13.403   0.674   2.316  0.0988 -0.1574 -0.1580
13238W        W30086   5.094   2.153   5.794 -0.0778 -0.0488 -0.1710
13239W        W30087   3.363  10.850  14.396 -0.0158  0.1729  0.2071
13240W        W30088   5.587  11.168  14.473 -0.2149  0.0256  0.3600
13241W        W30089  12.554   4.501  17.684 -0.1638 -0.0034 -0.1892
13242W        W30090   5.332   1.990  13.638 -0.2316  0.1188 -0.1434
13243W        W30091   3.112  13.810   0.248  0.0756  0.1214  0.1632
13244W        W30092   3.835   1.415  14.903 -0.1134  0.1130 -0.0707
13245W        W30093  16.208  15.075  12.184 -0.1729  0.0760  0.1212
13246W        W30094  10.909  13.236  17.322  0.0481  0.0321 -0.1958
13247W        W30095  10.003   1.164  15.208 -0.1574 -0.0450  0.0677
13248W        W30096  16.387  14.067   4.398  0.3446 -0.0848  0.0129
13249W        W30097  10.047   7.932  15.786  0.1119 -0.5034  0.1609
13250W        W30098  11.725  10.825   6.785 -0.0529 -0.2657 -0.1208
13251W        W30099   1.061   1.903  12.205  0.2738  0.1123  0.0356
13252W        W30100   1.878   8.544   4.431 -0.4071 -0.1531 -0.0094
13253W        W30101  14.257   2.464  17.090 -0.0823 -0.1953 -0.3921
13254W        W30102   9.250   9.684   4.348  0.2734  0.1789  0.1067
13255W        W30103   9.292  13.640  15.086 -0.0524 -0.3261  0.0844
13256W        W30104   8.972  11.869  15.704 -0.1363 -0.3095  0.2137
13257W        W30105   3.515   1.072  15.354 -0.2226 -0.2869 -0.0075
13258W        W30106   1.213   6.655  14.068 -0.0763  0.1197 -0.1788
13259W        W30107   2.256   9.212  16.236  0.0942  0.0865  0.0440
13260W        W30108  13.552   2.796   3.387 -0.1710  0.0054  0.0108
13261W        W30109   7.147  16.260   3.777  0.0330  0.0691 -0.2360
13262W        W30110  12.591   3.100  15.391 -0.2480  0.1680  0.0305
13263W        W30111  11.096   8.530   4.006  0.0120  0.0623 -0.0687
13264W        W30112  12.753   6.788   3.559 -0.2034  0.2285  0.2449
13265W        W30113   7.576   1.645  15.315 -0.0727 -0.2535 -0.2083
13266W        W30114   5.808   2.386  16.723 -0.1868  0.1687 -0.0943
13267W        W30115  12.546   0.498   5.287 -0.0676  0.0919  0.3210
13268W        W30116   4.664  11.723   2.841 -0.1263  0.0997  0.1352
13269W        W30117   4.860   1.462  15.306 -0.1998  0.2417 -0.0261
13270W        W30118  12.172   7.363  12.523 -0.0947 -0.2407  0.0703
13271W        W30119  12.912   2.785   2.047  0.1666 -0.0690  0.1958
13272W        W30120  12.171  11.574   1.356 -0.0372  0.0636  0.0892
13273W        W30121   7.604   7.984   3.066 -0.2925  0.2017  0.1434
13274W        W30122   7.919   7.051   0.760 -0.1999  0.3508 -0.5032
13275W        W30123  11.083   8.809   2.410  0.3209  0.0946  0.0725
13276W        W30124  15.684   0.936  17.087  0.0894  0.2982 -0.2706
13277W        W30125   8.978  12.130   6.167 -0.1193 -0.0055  0.1931
13278W        W30126  10.869  10.353   5.762  0.1458  0.0543  0.1574
13279W        W30127   8.302  13.005  16.489 -0.1351 -0.1532  0.0637
13280W        W30128   1.463   6.955  12.357  0.1891  0.0539 -0.2198
13281W        W30129   9.092   2.680  14.106  0.2264 -0.1390  0.2447
13282W        W30130   9.334   3.564  13.506 -0.0315 -0.2220  0.0034
13283W        W30131   9.630   9.398   3.702 -0.1282  0.1254 -0.0511
13284W        W30132  15.312  12.029  14.286  0.2270  0.2072 -0.3143
13285W        W30133  10.485   3.964   1.314  0.3114  0.0220  0.0641
13286W        W30134   4.471   7.565   4.119 -0.0176 -0.1070  0.0375
13287W        W30135   2.351   1.781  13.723  0.3317 -0.1079 -0.1751
13288W        W30136   6.811   3.316  15.929 -0.0369  0.0609  0.0184
13289W        W30137   7.967   7.821   3.478  0.2728  0.3973  0.2252
13290W        W30138   9.571  14.586   6.018 -0.1635  0.1418  0.2782
13291W        W30139  16.874   6.108   0.784  0.0449 -0.2232  0.0089
13292W        W30140   2.912  10.123  16.601 -0.2177 -0.1738  0.1847
13293W        W30141  16.554   4.916  13.184 -0.0326  0.1136  0.1290
13294W        W30142   3.089  13.679  13.550  0.0356 -0.0627 -0.2996
13295W        W30143  13.854  11.095   0.786  0.0528  0.0095 -0.1545
13296W        W30144   7.248  11.565   6.666  0.1392  0.0271 -0.3526
13297W        W30145   8.908  13.912  12.709  0.2287 -0.0261 -0.5246
13298W        W30146  11.438  11.446  17.014  0.1825  0.1211 -0.0924
13299W        W30147   9.440  13.822   2.466  0.0398 -0.1849  0.1673
13300W        W30148  11.641  16.324  12.830 -0.1158  0.0907 -0.1871
13301W        W30149   2.538  13.126  17.120  0.0584 -0.2624  0.2763
13302W        W30150  11.280  14.345  15.032 -0.0645  0.1493  0.4206
13303W        W30151   3.116  16.546   2.295  0.0582  0.1305 -0.0818
13304W        W30152   8.438   7.227   2.473 -0.0371 -0.2880 -0.1260
13305W        W30153   4.326   8.444  15.274 -0.1589  0.2007  0.0230
13306W        W30154   0.439   8.482  14.551  0.1124 -0.0561  0.0864
13307W        W30155  14.439   4.078   0.524 -0.0580  0.1595 -0.1716
13308W        W30156   2.928   2.400  13.509  0.0962 -0.2064  0.2135
13309W        W30157  15.390   2.946   3.741 -0.1839 -0.3027  0.2045
13310W        W30158   4.787   6.448   5.389 -0.0214  0.1685  0.0003
13311W        W30159  11.555  14.671   1.238 -0.0591 -0.1061  0.0462
13312W        W30160  16.787   2.927  16.150  0.3532  0.0386  0.1334
13313W        W30161  16.251  14.746   2.894 -0.0369  0.0923  0.2003
13314W        W30162  16.035   3.082  13.608  0.2120 -0.0348  0.3243
13315W        W30163  14.763   0.322   2.680  0.0512  0.2326 -0.2451
13316W        W30164   7.236   6.313   4.667  0.2962 -0.1325  0.2593
13317W        W30165   4.414  13.159   2.853  0.1996 -0.1004 -0.3183
13318W        W30166   1.896   4.986   0.431  0.1126 -0.0280  0.1422
13319W        W30167   5.447  12.571  17.677 -0.1389 -0.1585  0.1779
13320W        W30168  13.110   3.517   2.740 -0.0900 -0.1039  0.0303
13321W        W30169  13.593   5.294  17.015 -0.0654  0.0070  0.2408
13322W        W30170  12.496   5.670  16.448 -0.0264 -0.0102 -0.0668
13323W        W30171  16.129  12.022  14.896  0.0081  0.2324 -0.1048
13324W        W30172  15.600   8.980  14.092  0.1951 -0.2411 -0.2666
13325W        W30173  15.398   1.239   3.935 -0.0331 -0.0841  0.1900
13326W        W30174  15.902  13.801  16.209  0.1875 -0.1255  0.1484
13327W        W30175   2.702   2.542  15.961  0.2537 -0.3116 -0.0648
13328W        W30176  12.752   6.917   1.823  0.0612  0.0122  0.2172
13329W        W30177   3.296   7.393  16.828  0.0525  0.0869  0.1961
13330W        W30178  15.718  16.743  15.300  0.2122 -0.1039  0.1926
13331W        W30179   1.881   6.329  15.021 -0.2357  0.1458 -0.1082
13332W        W30180  10.706  15.355   3.461 -0.1772 -0.2413  0.0623
13333W        W30181  15.442   2.512   4.600 -0.2681 -0.1710  0.0071
13334W        W30182   0.803   6.583   3.906  0.0099 -0.0852 -0.0263
13335W        W30183  14.395  16.253   2.244 -0.3156 -0.0609  0.1875
13336W        W30184   5.014   5.652   1.943  0.1069 -0.0120  0.2906
13337W        W30185   0.600   5.608   0.755 -0.1475 -0.4374 -0.2287
13338W        W30186  15.304  12.116  12.218  0.0144 -0.1796 -0.2655
13339W        W30187   4.048   8.248   4.726 -0.1773  0.2367 -0.1513
13340W        W30188  11.009   0.517   2.595  0.0534 -0.4069  0.0105
13341W        W30189  15.008   6.015   3.059  0.1969  0.1165  0.0394
13342W        W30190   5.747   6.759  15.942 -0.0607 -0.0157 -0.1530
13343W        W30191  13.626  13.097  14.148 -0.1413 -0.1195 -0.0922
13344W        W30192  12.082   6.256  13.957  0.1083  0.1783  0.1211
13345W        W30193   8.262  14.558   1.982 -0.0448 -0.1601 -0.0802
13346W        W30194  13.500  14.768  14.447  0.2124  0.2731 -0.0940
13347W        W30195   7.323   8.043  14.928 -0.1399  0.4258 -0.3582
13348W        W30196   6.586   4.241  16.135  0.2998 -0.2253  0.1291
13349W        W30197   7.535  10.011   5.269  0.2729 -0.2961 -0.0612
13350W        W30198  10.380  14.929  13.287  0.0928  0.1240  0.0710
13351W        W30199   6.047   5.706   4.762 -0.2445 -0.1856 -0.1325
13352W        W30200  12.669   4.971   3.463  0.0571  0.5969 -0.2073
13353W        W30201   0.593   7.302  13.773  0.1394  0.0259  0.1800
13354W        W30202  14.516  12.617  16.535  0.3792 -0.0722  0.0563
13355W        W30203  12.794  14.511  16.134  0.1166  0.0338 -0.1078
13356W        W30204   4.202   0.212  12.691  0.0181  0.1533  0.1166
13357W        W30205   9.766   0.127  17.524  0.1849  0.0525  0.3033
13358W        W30206  13.488  16.436   3.012 -0.0144  0.1638  0.0913
13359W        W30207   8.255  13.301   4.044 -0.0977  0.1183 -0.1223
13360W        W30208   8.950   5.390   1.384  0.3593 -0.1876 -0.2531
13361W        W30209  14.228   1.262  13.305  0.2752  0.0234 -0.1157
13362W        W30210   6.633  12.360  13.387  0.0109 -0.1652  0.3660
13363W        W30211   1.852   8.522  13.781 -0.0227  0.0450  0.2047
13364W        W30212  10.635  15.338  12.994  0.1673 -0.1886  0.0337
13365W        W30213   8.530   8.913  16.673 -0.3079  0.0548 -0.1585
13366W        W30214   3.662  13.585   5.153  0.6887  0.1641 -0.2082
13367W        W30215   0.157   8.820  17.780  0.1776 -0.0237  0.0935
13368W        W30216   9.506   6.449   2.786 -0.0745  0.1544 -0.0409
13369W        W30217   2.993   2.642   2.231 -0.1763  0.2777  0.0584
13370W        W30218  11.323   1.915  13.472  0.0504  0.0288 -0.0296
13371W        W30219   2.994   9.926   2.802  0.1292  0.0296 -0.3894
13372W        W30220  16.455  12.624  15.319  0.2518  0.0907  0.2501
13373W        W30221   3.451  13.173   4.946  0.1082  0.1724  0.1713
13374W        W30222  15.971  13.492   3.376  0.2685 -0.1033 -0.0573
13375W        W30223   0.294   4.693   3.153 -0.1272 -0.0963 -0.1069
13376W        W30224   3.317   0.562  15.058 -0.1464 -0.0830  0.0519
13377W        W30225  16.349   9.041   6.609  0.0493 -0.0141  0.3491
13378W        W30226   6.034   0.025  12.435 -0.1192  0.2098 -0.0701
13379W        W30227  12.592   4.834   0.602 -0.2476  0.2827 -0.2618
13380W        W30228   6.668  15.042  16.122  0.1321 -0.1318 -0.1064
13381W        W30229   3.927   9.248  15.946 -0.0296 -0.3921 -0.2741
13382W        W30230   2.330  10.002  13.455 -0.0640  0.0050  0.0333
13383W        W30231  11.545   8.937   4.884  0.0886  0.0183  0.2739
13384W        W30232   7.043  13.902   2.329  0.1373  0.1057 -0.0221
13385W        W30233   0.544   8.443   4.548  0.0920  0.0417 -0.1167
13386W        W30234  16.763   6.613  13.521 -0.0254  0.0713 -0.0574
13387W        W30235  11.958   0.319   2.978  0.1669  0.0157  0.0034
13388W        W30236   7.867  10.492  17.568  0.1825 -0.1996  0.2050
13389W        W30237  16.604   8.120   1.824  0.1503 -0.2675  0.0269
13390W        W30238   3.286   0.349   3.826 -0.0058 -0.1989 -0.2439
13391W        W30239  15.051  16.915   4.498 -0.2512 -0.2595 -0.1246
13392W        W30240  16.328   9.952  17.265 -0.0273  0.0831 -0.1107
13393W        W30241  13.862  11.351   5.245 -0.0296 -0.0311 -0.0088
13394W        W30242  15.705  15.114  17.022 -0.0181  0.3296  0.3975
13395W        W30243   5.229  13.548   0.359  0.0736 -0.1030 -0.1521
13396W        W30244   1.225  11.880   1.662  0.1480 -0.0976  0.0326
13397W        W30245   7.957   7.712   0.060 -0.0673  0.2206  0.0794
13398W        W30246  15.769   3.542   1.781 -0.0439 -0.2324  0.0801
13399W        W30247   4.249   6.918   6.365  0.0126 -0.5639  0.3370
13400W        W30248   6.958   8.403   2.101 -0.2355  0.4007  0.2010
13401W        W30249  16.291   9.488  17.349 -0.1476 -0.0795  0.0405
13402W        W30250   6.232   3.429  15.539 -0.3188 -0.1908 -0.2581
13403W        W30251   4.804  16.810   4.441  0.0948 -0.1002  0.1222
13404W        W30252  14.089   2.003   2.162  0.0057  0.4333  0.0057
13405W        W30253  14.026  11.625   4.252 -0.1444  0.2963  0.1248
13406W        W30254   4.110   4.535   6.771  0.3989 -0.0012 -0.0241
13407W        W30255   6.996   0.487   1.183 -0.1380  0.0532 -0.1539
13408W        W30256   9.543  14.452   3.108  0.0042 -0.0183 -0.1365
13409W        W30257   0.046  14.106   0.072 -0.0428 -0.0074 -0.0814
13410W        W30258  13.398   6.717   3.819 -0.0737 -0.0429 -0.1180
13411W        W30259  12.767   5.331  12.155 -0.0451  0.2955 -0.0297
13412W        W30260   5.346  10.989   2.283  0.1480  0.2341 -0.1430
13413W        W30261   2.154   1.898  16.121  0.1166  0.0373 -0.3135
13414W        W30262   4.527  10.288  16.438 -0.0046  0.0316 -0.0052
13415W        W30263   2.655  16.541  13.875  0.1013 -0.2457 -0.0746
13416W        W30264   7.536   7.434  13.134 -0.1348 -0.2625 -0.0152
13417W        W30265  10.977   2.635   3.028 -0.1400 -0.1590  0.1546
13418W        W30266   6.041   0.519  12.325  0.0808  0.0890 -0.5374
13419W        W30267   3.958   8.452  14.446 -0.1362  0.1400 -0.0433
13420W        W30268   5.212   3.637  15.377  0.2006 -0.2683  0.1139
13421W        W30269   7.252  16.705   5.430 -0.0519 -0.4353  0.0291
13422W        W30270   2.844  12.574  17.576  0.1563  0.1373  0.0849
13423W        W30271   8.913   2.200  16.969  0.0406 -0.0118 -0.0619
13424W        W30272   9.791   0.834   4.399  0.0101 -0.1511 -0.1783
13425W        W30273   4.626  15.543  17.304 -0.1215 -0.2582  0.2931
13426W        W30274  14.328  16.586   0.932 -0.0332 -0.0803 -0.0590
13427W        W30275   9.116  15.867   3.870 -0.1351 -0.2786 -0.0238
13428W        W30276   0.058  12.349   3.066 -0.0050  0.2163  0.2654
13429W        W30277   4.772   7.115  15.776  0.1732 -0.1360 -0.2483
13430W        W30278   4.460   1.222  14.295 -0.0322 -0.1051 -0.1919
13431W        W30279   5.250  14.644   1.990  0.2442 -0.3821 -0.1027
13432W        W30280   3.674  16.655   4.916  0.1511  0.2003  0.0370
13433W        W30281   6.624   3.911   4.533  0.2860  0.1733  0.2577
13434W        W30282  15.615   6.248   0.002  0.0999 -0.0798  0.1579
13435W        W30283   9.307   2.903   1.624  0.1264 -0.1321  0.0823
13436W        W30284   1.772   5.923   3.856 -0.1348 -0.1867  0.2361
13437W        W30285   9.268  10.534   4.655  0.1677  0.1480 -0.0360
13438W        W30286   9.595   5.563  14.159 -0.3763  0.0214 -0.2875
13439W        W30287   0.809   5.941   0.249 -0.0778  0.2357  0.2109
13440W        W30288   1.493   7.780  15.706  0.2481  0.0973  0.0527
13441W        W30289   3.680  10.725   2.821  0.1645  0.1299  0.1326
13442W        W30290  16.882  11.619   2.355 -0.0731  0.0768  0.0284
13443W        W30291  15.078   0.343  15.419  0.1819 -0.1226 -0.0037
13444W        W30292  14.334  14.550   2.230  0.4869  0.0460 -0.0893
13445W        W30293   4.746  10.355  15.167  0.1121  0.0672 -0.1412
13446W        W30294  14.975  11.792  15.579  0.0640  0.1337  0.1573
13447W        W30295   1.531  14.387  14.059 -0.1816  0.1505 -0.0116
13448W        W30296  13.272   8.260  12.680 -0.1426 -0.3460  0.3611
13449W        W30297   8.975  14.202   0.291  0.0923  0.0950  0.2720
13450W        W30298  13.877   0.923  13.108 -0.2050  0.0654  0.1644
13451W        W30299   0.276   0.002  15.513 -0.2192  0.0887 -0.0729
13452W        W30300  15.294   9.188   3.291  0.1035 -0.0512 -0.2529
13453W        W30301   1.524   8.958   0.078 -0.0121 -0.1976 -0.0659
13454W        W30302  13.132   5.449  12.890 -0.0308  0.0057 -0.1181
13455W        W30303   0.645  11.356   1.842  0.1711  0.1336  0.1728
13456W        W30304   3.446   5.319   4.090  0.1587  0.3106  0.1391
13457W        W30305  16.714  15.694  15.720 -0.0946  0.1582 -0.1963
13458W        W30306  12.395   4.908  14.544  0.2391  0.0413  0.0792
13459W        W30307  12.094  16.128   0.906  0.1925  0.1303 -0.2005
13460W        W30308   7.241   1.603  11.446  0.2138 -0.1646 -0.2628
13461W        W30309   6.828   2.898   4.260  0.0384 -0.0318 -0.1523
13462W        W30310   9.628   3.790  17.314 -0.3253  0.1971 -0.0965
13463W        W30311   1.220   6.300  12.756  0.3238 -0.1223 -0.2823
13464W        W30312   6.402  12.713  17.552 -0.0349 -0.0327  0.0234
13465W        W30313   4.722  14.447  13.802  0.0396  0.1169 -0.1724
13466W        W30314   7.344   0.906  17.633  0.1731 -0.0791 -0.3783
13467W        W30315  15.899  11.169  15.438 -0.2553 -0.0846  0.0144
13468W        W30316   8.014  12.369   1.201 -0.1542  0.0621 -0.0313
13469W        W30317   8.309   0.916   3.033  0.2094  0.1320 -0.1078
13470W        W30318  16.946   1.576  13.525  0.5417  0.0976 -0.3376
13471W        W30319   0.430   6.323   2.017  0.0131 -0.2256  0.2626
13472W        W30320   8.480  16.247   3.978 -0.0366 -0.1873 -0.1034
13473W        W30321  12.520  11.030   5.671 -0.3044 -0.2604 -0.0065
13474W        W30322   0.097   4.014   0.051  0.3150  0.0796  0.3757
13475W        W30323   8.108  11.260  13.252 -0.1701  0.0979  0.1964
13476W        W30324   5.617   7.806   2.766 -0.1632 -0.0316 -0.2545
13477W        W30325   1.935  10.497   5.738 -0.0664 -0.1468  0.2107
13478W        W30326   7.631   8.265   2.673  0.2445  0.1075  0.1860
13479W        W30327   3.037   4.764  15.934 -0.1491  0.1081  0.1455
13480W        W30328   7.726   2.008   5.014 -0.1140 -0.3706 -0.0335
13481W        W30329   4.334  10.990  14.120  0.1051 -0.0692  0.1556
13482W        W30330   8.162  10.868   4.266 -0.0095 -0.2463 -0.1402
13483W        W30331  16.468   6.067   0.482 -0.0152  0.0095  0.0746
13484W        W30332   7.297   9.301   2.122  0.0441  0.0270  0.2096
13485W        W30333   7.132   1.631   0.426 -0.1060 -0.0528 -0.0041
13486W        W30334   3.686   5.191   0.443  0.0895  0.0130 -0.0978
13487W        W30335   5.344  12.846   3.369  0.2358 -0.3163  0.4417
13488W        W30336   8.266   6.767  15.995 -0.3507  0.2759  0.0123
13489W        W30337   2.483   5.610  15.858  0.1542 -0.1797  0.0007
13490W        W30338  11.192   6.697   1.705  0.2659 -0.1664 -0.1405
13491W        W30339   1.026   6.316   4.740 -0.4072 -0.2545  0.0628
13492W        W30340   3.262  16.775   0.104 -0.0506  0.0021 -0.2243
13493W        W30341   2.018  11.376   3.486 -0.0933 -0.3592  0.0093
13494W        W30342  15.336   0.610   3.289 -0.4279  0.1811 -0.1252
13495W        W30343   4.811  13.698  17.039  0.0907  0.1863 -0.2710
13496W        W30344   9.950   5.752   2.743 -0.1054 -0.4029 -0.1510
13497W        W30345  16.414  14.160   2.153 -0.1998 -0.0193 -0.0956
13498W        W30346  14.089  12.057   4.069 -0.1221 -0.1188  0.1239
13499W        W30347   0.651  13.735   4.468 -0.1560  0.1076 -0.0717
13500W        W30348   1.775   4.729   1.877 -0.4381  0.0829  0.0881
13501W        W30349  16.817  10.147  15.229  0.1975  0.3324  0.0358
13502W        W30350  13.800  13.618  13.319  0.0092  0.1208 -0.4524
13503W        W30351   3.057  14.267  13.737  0.1215  0.0454 -0.1555
13504W        W30352   5.554   2.612  15.361  0.2569  0.0842  0.2345
13505W        W30353   2.324  13.859  13.518 -0.0043 -0.0721  0.1071
13506W        W30354  14.102  11.584  12.354 -0.2287 -0.0120  0.0634
13507W        W30355   8.527  12.539  15.222 -0.2141 -0.0661  0.0608
13508W        W30356  16.932  13.795   1.467  0.0317 -0.0136 -0.0571
13509W        W30357   5.187   7.947   3.191 -0.2123 -0.0838  0.2748
13510W        W30358  10.507   1.893  13.241  0.2240  0.2701  0.0997
13511W        W30359  15.695   2.210  13.184 -0.1409  0.2214  0.0290
13512W        W30360  15.160  11.299  15.513 -0.1244  0.0660  0.3665
13513W        W30361  11.535   2.816   0.707  0.3406 -0.1176  0.0748
13514W        W30362   9.075   5.268   1.919  0.1801 -0.1499  0.1197
13515W        W30363  10.968  12.748  15.386 -0.0035 -0.0559 -0.0174
13516W        W30364   9.681  10.843   5.489  0.1659  0.0701 -0.3015
13517W        W30365   5.622  16.551   3.980 -0.0522 -0.0241  0.0054
13518W        W30366   6.327   1.898   3.507  0.1655 -0.2003 -0.1344
13519W        W30367   5.427  16.862  16.001  0.1970 -0.0842  0.0219
13520W        W30368   0.461   1.875   4.123 -0.1740 -0.2254 -0.2973
13521W        W30369  14.520   6.221   4.433  0.2658  0.1383  0.0828
13522W        W30370   0.744   7.369   3.909 -0.1315  0.0465 -0.0895
13523W        W30371  12.084   5.795  16.827  0.1301  0.0646  0.0282
13524W        W30372   7.544   9.567   0.893  0.2111 -0.0756  0.1297
13525W        W30373  10.229   0.964   2.724  0.2301  0.0247  0.1553
13526W        W30374  10.310   5.536  17.692  0.2466 -0.0909  0.2009
13527W        W30375   2.158   5.155   3.523  0.0081 -0.0303 -0.2252
13528W        W30376   7.754  14.456  12.292  0.0078  0.0347 -0.0953
13529W        W30377   0.408   5.463  16.906 -0.0807 -0.2401  0.1911
13530W        W30378   1.107  10.846   4.838 -0.0072  0.1067  0.2134
13531W        W30379   2.375  12.960   0.692  0.1993  0.1695 -0.4703
13532W        W30380  14.265  13.045   4.302  0.3245  0.1114  0.1396
13533W        W30381  15.759   4.464   0.289 -0.1476 -0.1393  0.0857
13534W        W30382   7.716  12.098  17.849  0.0462  0.2264  0.1105
13535W        W30383   8.793   2.991   4.760 -0.0155  0.0277  0.1472
13536W        W30384  10.708   2.954   4.767 -0.0969  0.0079  0.1408
13537W        W30385  11.217  11.916   2.737  0.0125  0.1186 -0.0178
13538W        W30386   9.053  12.444   5.695 -0.1035 -0.1762  0.0654
13539W        W30387  14.574   6.881  14.268 -0.2288 -0.2231 -0.1761
13540W        W30388   8.848   0.006  17.472 -0.0101 -0.0426 -0.0550
13541W        W30389   5.701  15.606   1.260 -0.2572  0.1472  0.1798
13542W        W30390   4.516  10.836   3.989  0.0591 -0.2112  0.2947
13543W        W30391   4.173  14.287  13.474  0.0816 -0.2568  0.2893
13544W        W30392  11.512  15.051   3.168 -0.0066  0.2279 -0.0948
13545W        W30393   7.976   7.294  13.635  0.0444 -0.1639 -0.1677
13546W        W30394   7.623  13.579  14.842  0.0115  0.1281 -0.0292
13547W        W30395  13.305   1.594   5.282 -0.0369 -0.0333  0.0798
13548W        W30396  14.079   2.538  15.243 -0.1316 -0.0107 -0.2676
13549W        W30397   7.247   6.315   3.731  0.1250 -0.0085 -0.3279
13550W        W30398  12.704   1.655  16.534  0.1897  0.0231  0.0518
13551W        W30399   8.340  15.799  16.203 -0.1874 -0.0795 -0.0302
13552W        W30400  11.686  13.326  13.334  0.0439 -0.0090  0.0482
13553W        W30401   8.132   6.087   5.424 -0.0403  0.1185  0.1437
13554W        W30402  13.434   5.094  16.179  0.3220 -0.0100 -0.0368
13555W        W30403   0.228  10.402   3.430 -0.2512 -0.0555  0.1471
13556W        W30404  13.321  13.910  17.021  0.1431 -0.3290 -0.2187
13557W        W30405  16.379   6.013   1.561  0.1619  0.2034 -0.0365
13558W        W30406  13.677  15.559   1.540 -0.0911 -0.3050  0.3909
13559W        W30407   5.633   9.889  14.188  0.2178 -0.0259 -0.3261
13560W        W30408   5.224   7.627  14.962  0.1344 -0.4246 -0.0383
13561W        W30409  15.152   4.623  17.295 -0.1687 -0.3442 -0.0824
13562W        W30410  14.491  10.620   1.880  0.2011  0.1695  0.1262
13563W        W30411   3.411   3.047  17.464 -0.2835 -0.2389  0.0033
13564W        W30412   4.006   2.898   0.176 -0.2173  0.3186 -0.1108
13565W        W30413   4.352  11.889   0.262  0.2153  0.0343  0.2328
13566W        W30414   3.210  15.043  16.665  0.0053  0.0600  0.1139
13567W        W30415   3.930  12.563  14.221 -0.3524 -0.3991 -0.0810
13568W        W30416   7.841  15.046  15.204 -0.1678  0.1070  0.3167
13569W        W30417   9.937  12.840   2.538 -0.3398 -0.0484 -0.0973
13570W        W30418  12.642   1.203   0.448 -0.1182  0.1872 -0.0317
13571W        W30419  12.710   6.065   0.890  0.0848  0.3672 -0.0528
13572W        W30420  16.680  11.988   4.719  0.3452 -0.2234  0.1977
13573W        W30421   6.435  10.900   3.566  0.1506 -0.0851 -0.1906
13574W        W30422  10.318  12.608  14.130 -0.3563 -0.1904  0.1558
13575W        W30423   3.979  13.104  15.761  0.0301  0.2014 -0.1884
13576W        W30424   9.702   1.161  17.450  0.1177 -0.1783 -0.0122
13577W        W30425   9.624  16.448  16.564 -0.0718 -0.0301  0.0365
13578W        W30426  15.031   2.327  12.061 -0.1844 -0.1223  0.4055
13579W        W30427  16.074   9.908   0.805  0.0890 -0.0055 -0.0211
13580W        W30428   4.195   4.361   5.333 -0.0228 -0.0153  0.0007
13581W        W30429   8.150   2.750  12.926  0.1249 -0.1273 -0.3846
13582W        W30430   3.853  16.528  16.109 -0.0332  0.5838  0.0329
13583W        W30431   1.265   1.906  17.675 -0.0787 -0.0825  0.0449
13584W        W30432  13.584   5.765  15.479 -0.2231 -0.0369 -0.0086
13585W        W30433   9.989  11.845  13.617  0.0592 -0.1313 -0.1227
13586W        W30434  15.817  10.181   0.081  0.0591  0.4395  0.0313
13587W        W30435   0.286   6.851  13.656 -0.0689  0.2402  0.1542
13588W        W30436   4.602   5.283  14.081  0.0211  0.1933  0.2357
13589W        W30437   4.308   5.543   3.807 -0.0157 -0.0269  0.1242
13590W        W30438   0.528  16.760   1.020  0.1742  0.0075  0.1036
13591W        W30439   8.357  14.726  14.871  0.2177  0.0191 -0.1978
13592W        W30440   3.648   1.388  17.606  0.2488 -0.2126  0.1299
13593W        W30441   5.945  14.697   4.634 -0.0794 -0.0063  0.2750
13594W        W30442   1.874   5.036  17.413 -0.0415 -0.1231 -0.2706
13595W        W30443  13.700   9.363  15.170  0.1650 -0.0063 -0.1494
13596W        W30444   0.581   0.832   2.260 -0.1095  0.0665 -0.0819
13597W        W30445  13.237  15.315  15.074 -0.0213  0.1332 -0.2117
13598W        W30446  11.902  16.901   3.130 -0.0877  0.0476  0.2717
13599W        W30447   5.984  11.241   3.994  0.1131  0.2879 -0.0136
13600W        W30448  12.920   5.560  17.356  0.1549 -0.2990 -0.0015
13601W        W30449  10.162  11.347   3.254 -0.0070 -0.1097  0.0429
13602W        W30450  13.477   3.158   5.277  0.0275  0.1676  0.4493
13603W        W30451   6.917  13.420   2.678 -0.3912  0.1612 -0.3067
13604W        W30452   7.940  16.248   5.391  0.1571  0.0655  0.3249
13605W        W30453   7.641   1.837   0.593 -0.1093  0.1309 -0.1599
13606W        W30454   0.889  15.162  15.245  0.0515 -0.2257  0.4593
13607W        W30455  10.714   0.081   0.607 -0.1263  0.0421 -0.1085
13608W        W30456  13.602   8.857   3.281  0.0733 -0.3877  0.0118
13609W        W30457  14.535  11.406  16.806 -0.1338 -0.0766 -0.0473
13610W        W30458  15.274   8.731  17.336 -0.2629 -0.0056 -0.2362
13611W        W30459   1.875  15.079  16.174  0.0055  0.0986  0.1918
13612W        W30460   7.562  13.713  15.331 -0.0477 -0.2707 -0.0604
13613W        W30461   4.968  13.482  11.968  0.1710  0.1600  0.0589
13614W        W30462  12.559  15.009  13.764 -0.0155  0.0199 -0.2472
13615W        W30463   6.803  10.580  14.535  0.1992  0.3070  0.1083
13616W        W30464  11.248  12.108  16.565 -0.3786  0.4548 -0.2815
13617W        W30465  15.163  12.068   4.679  0.1211  0.2030 -0.0379
13618W        W30466  10.370  11.336   5.056 -0.1765  0.1733 -0.1068
13619W        W30467  14.847  10.961   5.646 -0.3145  0.1699 -0.1021
13620W        W30468   6.956  12.688  11.309 -0.1642  0.0120 -0.1870
13621W        W30469   4.012   7.101  16.603  0.1868  0.1945  0.0009
13622W        W30470   2.020   6.565  13.609  0.1598 -0.1411 -0.0818
13623W        W30471  10.411  16.959   0.916  0.1174  0.0952  0.4398
13624W        W30472  15.970   6.960   3.718  0.0134 -0.2658  0.0241
13625W        W30473  16.405   1.137   0.778 -0.1721 -0.0794 -0.2742
13626W        W30474   1.491   6.931   2.049 -0.1169 -0.2090 -0.1141
13627W        W30475   0.250  10.334  15.512  0.1018 -0.1948 -0.1593
13628W        W30476  10.918  15.846   4.116 -0.0023 -0.1123 -0.3950
13629W        W30477   2.599   2.719  15.460  0.2763  0.1365  0.0460
13630W        W30478   8.689   4.172   1.895  0.2105  0.1852 -0.0685
13631W        W30479  14.889   3.576  16.299  0.2138  0.0590  0.4557
13632W        W30480   0.380  13.771   3.753  0.0437 -0.1162  0.3655
13633W        W30481   4.481  11.575  12.514 -0.0543 -0.3252 -0.0612
13634W        W30482  14.370   1.429  12.313  0.0636 -0.0575 -0.0162
13635W        W30483  14.421  10.961  12.954  0.0930  0.0154  0.2459
13636W        W30484  12.035  13.114  17.122  0.0394 -0.2177  0.0452
13637W        W30485   7.159   9.063   1.611 -0.1542  0.0842 -0.1168
13638W        W30486  13.703  13.215   4.797 -0.2352  0.2252 -0.0175
13639W        W30487   4.001   0.343   2.643 -0.1599  0.0214 -0.0684
13640W        W30488   1.641   6.920   4.073 -0.0783 -0.4704  0.5746
13641W        W30489  13.010  14.308  13.722 -0.0592 -0.1965 -0.0792
13642W        W30490   4.893  12.476   1.400 -0.1229 -0.0945 -0.1723
13643W        W30491  15.381   0.624   0.663 -0.0247 -0.0682  0.1957
13644W        W30492   6.377   6.937  11.887 -0.1447  0.1582 -0.1210
13645W        W30493   4.366  13.158  15.217  0.0811 -0.1966 -0.1160
13646W        W30494  12.199  10.958  14.726  0.2050  0.2337 -0.0242
13647W        W30495  15.118   6.276   0.952  0.2675  0.2349  0.0719
13648W        W30496   1.105   4.414   3.287 -0.2427  0.0299  0.0054
13649W        W30497   2.086  14.071  16.639  0.0304 -0.1990  0.3731
13650W        W30498  12.838  14.509   3.730  0.1714  0.0098 -0.0460
13651W        W30499  13.203   0.928   3.648  0.1261 -0.1089 -0.0841
13652W        W30500  16.201   3.590  15.825 -0.1152 -0.1592 -0.1653
13653W        W30501   3.335  15.875   4.917  0.1068 -0.1758 -0.0011
13654W        W30502   6.880   7.006  14.209  0.1357  0.0546  0.0350
13655W        W30503   0.455   6.910   3.716  0.4175  0.0082  0.0458
13656W        W30504  15.025   6.274  14.042  0.3578 -0.0249  0.1667
13657W        W30505  11.618  15.434  12.910 -0.2091 -0.0179 -0.0634
13658W        W30506  11.649   5.123   0.507 -0.0183  0.3302  0.0664
13659W        W30507   6.644   5.677  14.642  0.0683 -0.0780  0.1611
13660W        W30508   5.503   3.249   4.357 -0.0317  0.1363  0.0519
13661W        W30509   4.343  14.602   5.734  0.0614  0.3642 -0.1842
13662W        W30510   2.680   8.740  12.644  0.3762 -0.0530 -0.0304
13663W        W30511   4.261   4.917  16.548 -0.0942 -0.2574 -0.1183
13664W        W30512   9.099   1.254  16.720  0.1619  0.3711  0.1408
13665W        W30513   4.431  11.290  16.651  0.1377  0.1011  0.3416
13666W        W30514  14.418   1.289  12.766 -0.1840  0.0296  0.0162
13667W        W30515  10.065  13.586  16.124 -0.0434  0.1172  0.0634
13668W        W30516  11.227  13.670   2.941 -0.0669  0.1326  0.0827
13669W        W30517   1.595   1.908   3.697  0.4498 -0.0546  0.3663
13670W        W30518   9.169   5.551   4.956 -0.0699  0.0950 -0.1815
13671W        W30519  12.642   8.833   0.906 -0.1789 -0.1569 -0.0582
13672W        W30520   5.398   5.677   5.678 -0.0977 -0.0392  0.2838
13673W        W30521   8.480  11.753  16.477  0.0891 -0.3931 -0.1438
13674W        W30522  14.393  10.501  14.617 -0.0667 -0.2990 -0.0540
13675W        W30523   6.240  17.015   2.410  0.5362 -0.0434 -0.0312
13676W        W30524   9.957   6.715   2.824 -0.1024  0.1908 -0.0578
13677W        W30525   3.709  14.037  15.093 -0.1161 -0.0920  0.1456
13678W        W30526  16.616  13.125   3.245  0.1562 -0.0793  0.0014
13679W        W30527  14.079   2.850  16.833  0.3257  0.1320 -0.1561
13680W        W30528  13.465  16.889  17.182  0.0813  0.1164  0.3424
13681W        W30529  15.259   3.624   0.529  0.1123  0.1534 -0.2501
13682W        W30530  12.584   4.444  17.178  0.1255 -0.1462  0.1085
13683W        W30531   8.437  17.046  15.748  0.0085  0.0537  0.0235
13684W        W30532   1.080   4.572  15.198  0.1062 -0.2494  0.0328
13685W        W30533  12.937   9.580  12.203 -0.0841 -0.4266  0.1924
13686W        W30534   5.804   2.867   2.904  0.1463  0.0419  0.1509
13687W        W30535  15.604   6.508   2.818  0.1450 -0.0885  0.0069
13688W        W30536  14.915   9.788   5.738 -0.2594  0.0446 -0.1665
13689W        W30537   1.011  10.658   3.871 -0.1243  0.1255  0.2731
13690W        W30538   0.131   1.126   3.600 -0.1865 -0.1241 -0.1838
13691W        W30539   0.229   9.049  13.695  0.1466 -0.2614 -0.2367
13692W        W30540   9.121   7.987  16.967  0.1276  0.0775 -0.2355
13693W        W30541  10.226   6.618  13.479 -0.2862 -0.0282 -0.2388
13694W        W30542   1.135   2.048  16.743  0.3340  0.0211 -0.2594
13695W        W30543  13.788   7.062  13.151 -0.3403  0.3236 -0.1088
13696W        W30544  13.338  16.174   3.977  0.1642  0.0220 -0.0705
13697W        W30545   1.961   5.038  16.438  0.1534  0.0333  0.2182
13698W        W30546   9.778  11.255   0.383  0.0363  0.1963  0.2155
13699W        W30547  13.375  12.886  17.210  0.1428 -0.2781 -0.2582
13700W        W30548  13.916   1.787  12.432  0.1152  0.2499 -0.1189
13701W        W30549   2.459   4.334   5.107 -0.1213 -0.0546  0.0589
13702W        W30550  10.338   2.394   2.069  0.1531 -0.0925  0.0052
13703W        W30551   9.158  10.030  17.832 -0.2242 -0.0049  0.1045
13704W        W30552   4.240   8.393   2.027  0.1851 -0.2240 -0.0117
13705W        W30553   5.439   0.170   0.815 -0.0061 -0.0638 -0.0349
13706W        W30554   9.174  11.462   5.725  0.0867 -0.1125 -0.4093
13707W        W30555   7.100   2.331   2.833 -0.0103  0.0054 -0.0563
13708W        W30556   3.822  10.608  16.906 -0.0119  0.1739  0.1485
13709W        W30557  11.571  13.008  13.709 -0.5411  0.0601  0.0398
13710W        W30558  13.375   2.072  14.981 -0.0063  0.1707 -0.1454
13711W        W30559  11.682   9.727   2.722  0.1633 -0.4151  0.0612
13712W        W30560   2.396  16.772   3.925  0.0141  0.3199 -0.2944
13713W        W30561  10.352  13.991   4.124  0.0077 -0.0446 -0.1957
13714W        W30562  13.940  13.323  16.017 -0.0643  0.1166  0.0511
13715W        W30563   5.820   7.501  12.916 -0.1172  0.0257 -0.1795
13716W        W30564   0.935   9.583  12.929  0.0887  0.2774  0.0209
13717W        W30565   5.737  13.313   4.468  0.0099  0.3103 -0.1400
13718W        W30566   0.718   9.226  13.538 -0.1231 -0.0314  0.0860
13719W        W30567   6.510   4.691   4.097 -0.1479 -0.0282  0.2074
13720W        W30568  14.933   9.258  14.803 -0.0176 -0.1647 -0.0981
13721W        W30569   4.112   1.672   5.923 -0.0251 -0.0076 -0.1093
13722W        W30570   1.280   9.682  16.678  0.1529  0.0833  0.2515
13723W        W30571   7.074  16.466   1.512 -0.0119  0.4069 -0.5212
13724W        W30572  16.126   1.437  12.525  0.0650  0.2124 -0.0072
13725W        W30573   0.029   5.184   1.080 -0.1598 -0.1076  0.1147
13726W        W30574   1.184   3.037   4.240 -0.4028  0.0268  0.2770
13727W        W30575   9.003  16.701   2.104  0.0328  0.0639 -0.0811
13728W        W30576   8.115   9.865   3.224 -0.1444 -0.0563  0.0568
13729W        W30577  12.047  16.931   2.095 -0.0936 -0.1811  0.2799
13730W        W30578  14.637   7.484  13.526 -0.1781  0.1524 -0.1999
13731W        W30579   5.183   3.471  16.329  0.0622  0.0789  0.2612
13732W        W30580  12.441   8.814   4.196  0.1595 -0.1094  0.0755
13733W        W30581   0.989   9.457   4.551 -0.2224 -0.2383  0.2087
13734W        W30582  15.831   5.760  17.219  0.0603 -0.2422 -0.1269
13735W        W30583  10.066   4.881   2.868 -0.2376 -0.1118 -0.1823
13736W        W30584  12.768   9.053   2.579  0.0867  0.0197 -0.1384
13737W        W30585   7.766   9.673   4.818 -0.1266  0.0407 -0.2470
13738W        W30586   0.224   9.997  13.392  0.2327  0.0475  0.3013
13739W        W30587   5.373  14.097  16.649 -0.1574  0.1096  0.2656
13740W        W30588   3.534  10.829   4.360 -0.2134 -0.1360  0.0881
13741W        W30589   1.066  10.187  15.424 -0.1174 -0.0397 -0.1807
13742W        W30590   2.190  10.487   2.093  0.0531 -0.1013 -0.1010
13743W        W30591   5.107   2.235   3.951 -0.2821 -0.1665  0.3537
13744W        W30592   8.522  13.639  12.942  0.0784  0.0404 -0.3715
13745W        W30593   4.978  15.134  15.440 -0.2525  0.0714  0.0924
13746W        W30594   7.142   6.811   3.521  0.2966  0.0685  0.2722
13747W        W30595   8.167  11.320   5.561  0.1094 -0.1923 -0.3633
13748W        W30596   3.215   9.257  12.540 -0.0949  0.0653  0.2487
13749W        W30597  11.733   8.262   3.301  0.2104  0.0668 -0.0797
13750W        W30598   3.870  13.774  15.497 -0.2353  0.1067 -0.4141
13751W        W30599  11.414   8.344  14.380  0.0278 -0.0001 -0.0075
13752W        W30600   6.660   0.105   2.644 -0.0351  0.2559  0.0535
13753W        W30601  16.966   3.536  12.637  0.0073  0.2397  0.2288
13754W        W30602  12.789  11.244   2.583  0.0232 -0.1065 -0.0080
13755W        W30603   3.043  11.206  16.521  0.0494  0.0986  0.1789
13756W        W30604   9.666  11.668   4.370 -0.3046 -0.1543 -0.1273
13757W        W30605   2.378  12.598  14.603  0.0962  0.0516 -0.1685
13758W        W30606   8.538  11.974  17.487 -0.3234 -0.0601 -0.0308
13759W        W30607  14.416  16.025  16.379 -0.2253 -0.0710 -0.0319
13760W        W30608   3.413  11.785   2.296 -0.2078 -0.1010  0.1080
13761W        W30609  10.700   5.273   3.173 -0.0774  0.1523 -0.1801
13762W        W30610  14.272  15.745  11.221 -0.1550 -0.1208  0.3614
13763W        W30611   5.918  16.911  11.921  0.3235 -0.0349  0.0078
13764W        W30612  12.935  11.674  12.270  0.2313 -0.1037 -0.1558
13765W        W30613   1.072   0.523   3.591 -0.1300  0.2413 -0.3203
13766W        W30614  12.653   9.398   1.124 -0.2131  0.1081  0.2061
13767W        W30615   7.983   3.771   2.259  0.1833  0.4861 -0.1253
13768W        W30616   9.824  15.911   4.735  0.0192 -0.2291  0.0017
13769W        W30617   9.363   4.801   5.067  0.0016  0.1542 -0.0836
13770W        W30618  10.876  13.761   5.038 -0.0544  0.0872 -0.2023
13771W        W30619   8.619   8.816   5.057 -0.0673  0.0603  0.3882
13772W        W30620   0.993   4.344  17.096 -0.2528  0.1771 -0.1630
13773W        W30621  11.575   1.709   0.544  0.2773 -0.3128 -0.0020
13774W        W30622   8.392   7.563   3.649  0.0174  0.1535 -0.0489
13775W        W30623   0.927   7.579  12.397  0.1964 -0.1094  0.3690
13776W        W30624  14.349   8.095  15.181 -0.0643  0.2073  0.0936
13777W        W30625   5.569   3.565  13.506  0.1073  0.0502 -0.0338
13778W        W30626  13.572  15.671  14.650 -0.0618  0.3403 -0.2231
13779W        W30627   9.006   4.591  14.698  0.2087 -0.2005 -0.0902
13780W        W30628  15.654   2.936  14.312 -0.2720  0.1042 -0.0610
13781W        W30629  16.434  15.693   1.194 -0.2157  0.1017 -0.1172
13782W        W30630   6.926   5.766   3.235 -0.3650 -0.3965 -0.2180
13783W        W30631  13.744   6.102  15.103  0.2439  0.1755 -0.0488
13784W        W30632   5.282   1.742  17.228 -0.1644  0.0592 -0.2760
13785W        W30633   7.167   1.826  12.266  0.0282  0.0202 -0.1297
13786W        W30634   4.754   6.873  12.823  0.2756  0.0212 -0.0071
13787W        W30635   1.584   2.561  15.648  0.0285  0.0816  0.1825
13788W        W30636   0.854   0.786  17.776 -0.1412 -0.0910 -0.1322
13789W        W30637  13.778  12.249  13.202 -0.2639 -0.1372 -0.1071
13790W        W30638   3.266   0.901   3.572 -0.0386  0.1614 -0.0131
13791W        W30639  13.851   3.765  17.278 -0.0614 -0.0107 -0.1828
13792W        W30640   1.472   2.710   1.062  0.2004 -0.0261 -0.0008
13793W        W30641  12.921  16.200   1.889 -0.2224  0.0897 -0.0007
13794W        W30642  11.944   8.290  15.109  0.1233 -0.0451  0.0991
13795W        W30643   1.034  15.241   0.447 -0.3430 -0.1750  0.2495
13796W        W30644   7.344   7.439   2.540 -0.2197  0.1568 -0.0053
13797W        W30645   2.642  12.427  13.722  0.1484 -0.0556  0.0931
13798W        W30646   9.270   7.114  12.372  0.0394  0.2604 -0.1732
13799W        W30647   0.378   6.259  14.933  0.2378 -0.3248  0.1728
13800W        W30648  15.574   0.759   1.690  0.0623 -0.0312 -0.0197
13801W        W30649   4.211  16.379   2.848 -0.0909 -0.0763 -0.2151
13802W        W30650   9.452   6.874   1.661 -0.1125  0.0609 -0.2537
13803W        W30651   9.972  13.798   1.917  0.0831  0.0863 -0.0690
13804W        W30652  15.714   4.268   1.376  0.0975  0.1509 -0.0885
13805W        W30653  14.500   8.370  14.018 -0.0100 -0.1694  0.3093
13806W        W30654   7.469   2.049   1.831 -0.0309  0.0376 -0.0556
13807W        W30655  14.151   3.163   0.835  0.2905 -0.2822  0.0543
13808W        W30656  14.230   5.269  12.760  0.0025  0.2387  0.2599
13809W        W30657  10.946   6.200   3.966 -0.0068  0.1841  0.0066
13810W        W30658   6.415   6.249   2.550 -0.1834  0.0166 -0.1924
13811W        W30659  14.149   3.348   1.838  0.0019  0.0046  0.2129
13812W        W30660  14.781   1.832  14.463  0.0388 -0.3615  0.3436
13813W        W30661  12.327  10.865   0.721  0.2788 -0.3312  0.0216
13814W        W30662   2.632   5.958   4.233  0.0293 -0.1521 -0.0081
13815W        W30663   7.048  16.333   1.976  0.1821  0.0783  0.1701
13816W        W30664  16.236   5.033   4.095  0.1506  0.2325 -0.2488
13817W        W30665  10.380  12.099   0.661 -0.1940  0.2425  0.0751
13818W        W30666   5.644   5.863   3.847 -0.0806  0.0948 -0.0308
13819W        W30667   2.966   6.876  17.188 -0.3271 -0.1513  0.2144
13820W        W30668  13.023  13.031  14.904  0.0884 -0.0212  0.0421
13821W        W30669  13.842  16.046   1.989 -0.0902 -0.0383  0.0091
13822W        W30670  14.466  15.996  15.205 -0.1343 -0.0544  0.2631
13823W        W30671  14.935   3.296  15.899  0.1124  0.0293 -0.0432
13824W        W30672  15.068  14.919  14.496 -0.0264  0.1243  0.2719
13825W        W30673  16.139   3.342   2.136 -0.0844 -0.0608 -0.3352
13826W        W30674  11.500   5.030  12.737  0.0027  0.0478  0.2343
13827W        W30675   6.276   8.292   1.433 -0.0493 -0.3477 -0.2321
13828W        W30676  14.408  13.678   1.311 -0.0575  0.0605 -0.2582
13829W        W30677   0.335  16.952  15.034  0.0591  0.0414  0.2503
13830W        W30678   5.271  11.144  12.815 -0.2969  0.3825 -0.2097
13831W        W30679  14.530   8.642  12.762  0.0056 -0.1225  0.1975
13832W        W30680   5.862   5.484  14.362 -0.0118 -0.0340  0.2152
13833W        W30681  13.294   8.567  14.542  0.0453 -0.1623  0.0696
13834W        W30682  14.346  16.625   5.194  0.1089 -0.2699 -0.0896
13835W        W30683   9.158  16.564  12.228  0.1322  0.4190 -0.0638
13836W        W30684   8.414   7.586  16.155  0.1341  0.1904 -0.0132
13837W        W30685   7.086   6.517  15.607 -0.0914 -0.0793 -0.2928
13838W        W30686   8.218  12.693   4.041  0.1797 -0.0508 -0.0351
13839W        W30687  14.952  13.992   0.682 -0.0668 -0.0103  0.2633
13840W        W30688   4.921  14.774   3.065  0.1056 -0.0174  0.0173
13841W        W30689  16.976   4.136   2.813 -0.0084  0.0428  0.0703
13842W        W30690   1.402   3.968   5.699 -0.0074  0.1032  0.0483
13843W        W30691   7.919  14.824   5.177 -0.1007  0.0751 -0.0025
13844W        W30692  13.547   2.159  17.582 -0.0054  0.0361 -0.0387
13845W        W30693  11.563  14.375   1.697 -0.2926 -0.1724  0.2442
13846W        W30694   9.708  14.584   4.803  0.1198 -0.1492  0.2855
13847W        W30695   3.481  12.938   3.281  0.1912 -0.4461  0.1592
13848W        W30696   1.810   7.519  13.957 -0.0891  0.1467 -0.1523
13849W        W30697   5.764   1.457  17.432 -0.0627 -0.2519  0.2880
13850W        W30698  12.449  16.476   0.142  0.1453  0.2306 -0.2445
13851W        W30699   8.298   0.693  13.962  0.0464  0.1090  0.0085
13852W        W30700  16.324  11.310  17.661 -0.1863  0.0374 -0.1408
13853W        W30701  14.892   6.255  14.919 -0.1045  0.0595  0.1078
13854W        W30702   6.278   7.237  14.083 -0.1753 -0.1231  0.1141
13855W        W30703   0.743  11.586  15.497 -0.1178  0.2523  0.3641
13856W        W30704   4.133  15.236  13.400 -0.2102 -0.0742  0.0679
13857W        W30705  14.505   3.233  17.649  0.0171 -0.0448  0.0644
13858W        W30706  11.044   1.202  16.554 -0.0655  0.0863  0.2022
13859W        W30707   4.462   4.502   1.875  0.2051 -0.1409  0.2675
13860W        W30708  12.778   9.328   3.846 -0.1185 -0.2693  0.0070
13861W        W30709  10.618   9.788  13.495 -0.4463  0.2382 -0.0373
13862W        W30710  16.341   5.142   1.560  0.0131 -0.1547 -0.0393
13863W        W30711   1.796  12.553  15.217 -0.2073 -0.2514 -0.1927
13864W        W30712  11.974  14.202  17.845  0.0457 -0.1577  0.2716
13865W        W30713   5.373   9.646   2.104  0.0126 -0.0650  0.1101
13866W        W30714   9.461  16.562   1.821 -0.0510 -0.0144  0.1813
13867W        W30715  11.773  15.295  16.277 -0.0553  0.0197  0.1210
13868W        W30716  14.603   7.218  12.537  0.0316  0.0630  0.0657
13869W        W30717   2.389   6.142  15.876 -0.2840  0.0784  0.2154
13870W        W30718  16.780  11.784   4.233 -0.0067 -0.2236  0.0208
13871W        W30719   9.259   0.025   2.322  0.0359 -0.1144 -0.1511
13872W        W30720   3.936  15.469  14.683  0.0021  0.0001  0.1570
13873W        W30721   9.097  10.104   4.540 -0.1005  0.1266  0.2890
13874W        W30722   4.096   4.912   0.476 -0.0159  0.0398  0.0627
13875W        W30723  15.532  16.226   4.049  0.0585 -0.2166 -0.2909
13876W        W30724  12.108   9.910  16.306 -0.1595  0.0616 -0.0006
13877W        W30725  11.366   3.768  14.856 -0.0034 -0.0109 -0.1013
13878W        W30726   0.829  12.125  12.007  0.3044  0.0022 -0.1603
13879W        W30727  16.196   8.739  12.708  0.2190 -0.0625 -0.3338
13880W        W30728   7.212   0.440   5.291  0.2458 -0.3082 -0.0284
13881W        W30729  16.405   1.797  11.184  0.0849 -0.0948 -0.2322
13882W        W30730   7.307  14.051  12.402 -0.1377  0.0278  0.0362
13883W        W30731  14.020   6.196   4.591  0.2588 -0.0903 -0.0034
13884W        W30732  14.235   4.960   5.003  0.0063 -0.0223 -0.1457
13885W        W30733   9.122   1.831   2.225 -0.0556  0.0553  0.0768
13886W        W30734  16.905  12.482   1.773  0.1105  0.0832  0.0637
13887W        W30735  11.354   4.939   6.024  0.0668 -0.3370  0.0455
13888W        W30736   9.631   5.915  15.438 -0.1340  0.0583  0.2554
13889W        W30737  16.433   6.241   1.014 -0.0554 -0.2408  0.3522
13890W        W30738   0.763   3.956   2.425  0.1868 -0.1346  0.2600
13891W        W30739   5.999   2.110  15.985 -0.0017  0.1138  0.1568
13892W        W30740   8.343   2.109  13.573 -0.0637 -0.0812  0.1215
13893W        W30741   5.102   8.414   0.532  0.0564  0.0260  0.1176
13894W        W30742  13.039   9.941  15.921  0.0627  0.0597 -0.0609
13895W        W30743   6.927   3.301   5.220 -0.3679 -0.1583 -0.2801
13896W        W30744   8.462  15.339   5.177 -0.0743 -0.0755 -0.0008
13897W        W30745  12.303   0.395   0.311 -0.2811  0.1120 -0.0250
13898W        W30746   5.739   8.312  14.950 -0.1266  0.0985 -0.0591
13899W        W30747   4.003  15.239  15.121  0.2183  0.0143  0.2064
13900W        W30748  12.654   1.891   4.628  0.1018 -0.2428 -0.2115
13901W        W30749   2.497   7.402   0.594 -0.1706 -0.0102  0.0648
13902W        W30750  14.720  14.077   0.246 -0.0619  0.1042 -0.0984
13903W        W30751  11.725  10.940  12.998 -0.0022 -0.1915  0.4062
13904W        W30752  14.267  12.110  12.320 -0.3854 -0.3432  0.0624
13905W        W30753  12.536   2.456  17.568  0.0483 -0.3447 -0.0450
13906W        W30754   9.148  10.723   2.608  0.0315  0.0039  0.1198
13907W        W30755   5.137   8.163  12.417 -0.1489  0.2991 -0.1650
13908W        W30756   9.826  14.118  14.383  0.2290 -0.0840  0.0709
13909W        W30757  11.815   9.861   2.261 -0.2680 -0.1494 -0.1827
13910W        W30758   6.136   1.311   3.063  0.2033  0.0178  0.3139
13911W        W30759   0.780  11.009  14.895  0.1870  0.2467  0.1147
13912W        W30760   4.462   0.749   5.491  0.1054  0.0501  0.1124
13913W        W30761   6.893  13.736   3.908  0.2809  0.1474 -0.2442
13914W        W30762  10.635   9.755  15.532 -0.0074 -0.2526  0.0405
13915W        W30763  16.058  11.818   0.777  0.1924  0.1990  0.0429
13916W        W30764   8.977   2.229  12.784  0.0023  0.0700 -0.4369
13917W        W30765  16.319   6.522  12.560  0.0327  0.1302 -0.0433
13918W        W30766   4.691   7.409  13.420  0.2510 -0.1617  0.1359
13919W        W30767   9.226   0.757   0.303 -0.2271  0.3400 -0.4071
13920W        W30768  15.921   4.872  17.282 -0.1015 -0.0857 -0.0225
13921W        W30769   3.003   9.249   4.731  0.3321  0.1000  0.2092
13922W        W30770   1.447  14.781  14.682 -0.0293 -0.0217  0.0764
13923W        W30771   9.547  11.563  11.646  0.2659 -0.0158 -0.0499
13924W        W30772  16.820  10.007  14.296 -0.0290 -0.1859 -0.1256
13925W        W30773   6.322  14.999  17.665  0.1966 -0.0883  0.1075
13926W        W30774   4.806  17.022   3.426 -0.2123 -0.0750  0.2608
13927W        W30775  13.470  14.286  14.686  0.2435  0.0349 -0.0134
13928W        W30776   0.996  12.146   5.035  0.4226 -0.0506 -0.0851
13929W        W30777   1.668   6.199   3.026  0.1168  0.1598  0.0536
13930W        W30778   6.021   9.712   5.692 -0.2886  0.2545  0.1275
13931W        W30779  12.773  11.953  15.499 -0.1392  0.0455  0.0176
13932W        W30780  11.323   3.830  17.724 -0.0821 -0.1661 -0.1491
13933W        W30781  15.023   1.410  14.711 -0.0408  0.1151 -0.1607
13934W        W30782  12.015  14.459  17.052  0.2489  0.2700 -0.1756
13935W        W30783   4.881   2.893   3.872  0.1196 -0.2914 -0.1755
13936W        W30784  11.888   7.658   2.134  0.1640  0.0771  0.0263
13937W        W30785  10.578  14.046  15.008  0.0917 -0.1458  0.0486
13938W        W30786   7.917  13.221  13.897  0.3628 -0.0768  0.0766
13939W        W30787   1.666   1.356  13.146 -0.1065 -0.0271  0.2281
13940W        W30788   9.422  13.123  13.687 -0.1381 -0.1542  0.1116
13941W        W30789   7.444   0.535   5.815 -0.1490 -0.0097 -0.1780
13942W        W30790   4.853   7.441   4.554  0.1088  0.3131  0.1987
13943W        W30791  11.899  12.256   5.919 -0.3651 -0.0817  0.0825
13944W        W30792   8.239   4.193   2.531  0.0078  0.0621 -0.1154
13945W        W30793   6.791  11.539  14.548  0.3046  0.0645 -0.2366
13946W        W30794  13.738  10.659  12.406  0.3543  0.2455 -0.0164
13947W        W30795   4.804  11.921   2.413  0.1256  0.2324  0.0241
13948W        W30796  13.792   4.595   3.426 -0.2207 -0.1817  0.1248
13949W        W30797  13.442   4.223   5.401  0.3304 -0.0068  0.1785
13950W        W30798   9.272   6.316  13.978 -0.0966  0.1108 -0.1449
13951W        W30799  16.734  10.970  15.448 -0.0985 -0.1568  0.2198
13952W        W30800   7.129   7.952  16.237  0.0355 -0.0364 -0.0385
13953W        W30801   9.562  13.727   0.935 -0.1343  0.1618 -0.0180
13954W        W30802   9.622   0.178   3.328  0.3083  0.1992 -0.2611
13955W        W30803  16.563   7.689  14.918 -0.5221 -0.1761 -0.0374
13956W        W30804  14.960  11.331   3.440 -0.2287 -0.1231 -0.0002
13957W        W30805   6.796   7.844  14.374  0.0752  0.0510 -0.1669
13958W        W30806   6.111   9.897  12.015  0.1995 -0.0577  0.0243
13959W        W30807   4.894  12.750   2.407 -0.1200 -0.4078 -0.2905
13960W        W30808   1.462   8.452  17.264  0.1996  0.4437 -0.3254
13961W        W30809  10.627  12.467  14.736 -0.1378  0.1404  0.1706
13962W        W30810   6.450   2.467   2.670 -0.1347  0.0328 -0.1960
13963W        W30811  16.334  10.949  14.444 -0.0052  0.0008 -0.0240
13964W        W30812  14.002   3.770   2.390 -0.0426  0.0233 -0.1193
13965W        W30813  11.600   6.605   3.659 -0.1417 -0.1067  0.0955
13966W        W30814   4.388   6.035   3.894 -0.0655 -0.1909  0.3046
13967W        W30815  11.902  15.442  12.466 -0.0758 -0.0715 -0.1514
13968W        W30816  14.767  16.381  16.202  0.3314 -0.1341 -0.0731
13969W        W30817   0.321  12.679   4.710 -0.0329  0.0001  0.0484
13970W        W30818  12.763  13.868  15.058  0.0594  0.0709  0.0695
13971W        W30819  13.835  15.413   4.225 -0.0930 -0.2021  0.2048
13972W        W30820  16.763   5.853   3.997  0.3371 -0.2353 -0.2587
13973W        W30821  13.338  14.617   3.709 -0.0155 -0.0748 -0.1995
13974W        W30822   3.788  16.959  12.956 -0.1651 -0.0516 -0.2804
13975W        W30823   5.510   4.085   2.016  0.0674  0.1817 -0.0004
13976W        W30824   3.499   4.977  15.102  0.2010  0.2072  0.0896
13977W        W30825  11.170   6.706   4.636 -0.2318  0.0433 -0.1815
13978W        W30826   5.447   5.804  17.679  0.0324 -0.2069  0.0888
13979W        W30827  15.604   5.131  13.074 -0.1474  0.1682  0.3215
13980W        W30828  16.107   2.856  12.982  0.0313 -0.3282  0.1619
13981W        W30829  10.820   4.935  15.582  0.0021  0.0698  0.0047
13982W        W30830  10.337  10.912   6.574  0.0009  0.0468 -0.2376
13983W        W30831   8.222  11.957   1.283  0.0871 -0.0941 -0.0567
13984W        W30832   4.562   0.716  15.846 -0.1461 -0.0352 -0.1908
13985W        W30833   8.400  13.983   5.058 -0.5175 -0.0055 -0.4883
13986W        W30834   5.664   6.457  13.784 -0.0464  0.0741  0.3521
13987W        W30835  15.665  12.656   0.906 -0.0699 -0.0341  0.0523
13988W        W30836  12.286  14.749   2.938  0.1017 -0.1480 -0.2179
13989W        W30837  15.022   1.606   4.716 -0.2956 -0.0427  0.0978
13990W        W30838  10.501   8.456  11.628  0.0220  0.1282  0.3129
13991W        W30839  14.621   9.010  17.562 -0.1300  0.0195  0.1557
13992W        W30840  14.643   9.481  13.178  0.0940  0.0611  0.1021
13993W        W30841   0.075   5.657  13.650 -0.0638 -0.1652  0.1395
13994W        W30842  12.419   8.077   2.451  0.0183  0.2779  0.0108
13995W        W30843   7.300  14.148   1.050 -0.0765 -0.0287 -0.1420
13996W        W30844   9.712   7.938   5.195 -0.1265 -0.0706  0.2775
13997W        W30845  16.368  16.518  16.984 -0.0178  0.1062 -0.1172
13998W        W30846   0.566   0.342   0.085  0.0186  0.3878  0.0986
13999W        W30847   6.403   4.700  14.448 -0.1025 -0.0070  0.0018
14000W        W30848   5.375  12.104   1.313  0.0273 -0.0524  0.2584
14001W        W30849  13.379   7.164  17.084 -0.0876 -0.0103 -0.1942
14002W        W30850  10.982  12.369  16.903  0.1330  0.0478  0.1355
14003W        W30851   0.981   1.276   3.088 -0.0796  0.1876 -0.0702
14004W        W30852   8.607  16.908  13.731  0.0899 -0.0442 -0.2399
14005W        W30853  13.732  15.639  15.748  0.0873  0.1486 -0.0590
14006W        W30854  16.971  15.725   3.557  0.0412 -0.1683 -0.2386
14007W        W30855   3.588  15.003  15.022 -0.1231 -0.2467 -0.0850
14008W        W30856   9.407  15.374  16.072  0.0879 -0.2546  0.2332
14009W        W30857   4.832   8.046  11.058  0.0464 -0.0684 -0.2215
14010W        W30858   8.936   0.271  13.858 -0.0378 -0.0950 -0.0972
14011W        W30859   7.411   9.769  13.629  0.0706 -0.3693  0.0349
14012W        W30860  11.846   2.308  15.864 -0.1977  0.1092 -0.0432
14013W        W30861   9.767   7.486   3.695  0.2044  0.1832 -0.0047
14014W        W30862   2.073   3.102   1.652  0.1357 -0.1555  0.0277
14015W        W30863   7.932   3.828   0.667  0.0368  0.2664  0.0542
14016W        W30864  10.740   6.402   4.572  0.0110  0.2336 -0.0596
14017W        W30865  13.523  13.770   3.475  0.2029 -0.1363 -0.0746
14018W        W30866  13.077  14.730  14.773  0.1442  0.1382  0.3091
14019W        W30867   7.293  16.716   0.868 -0.1743 -0.1382  0.0791
14020W        W30868   8.072  15.162   1.321  0.0266  0.0008  0.0595
14021W        W30869  10.616  14.956  17.645  0.2683 -0.1367 -0.1539
14022W        W30870  16.786   9.843  13.142  0.2146  0.0974 -0.0333
14023W        W30871   8.060  15.870   2.786  0.1933 -0.0549 -0.0068
14024W        W30872   8.661   7.538  17.698  0.0117 -0.1626  0.0137
14025W        W30873   0.245  16.382   4.067  0.2219 -0.1118  0.0089
14026W        W30874   0.811  14.380   2.603  0.2767 -0.0389 -0.0796
14027W        W30875  15.688   2.293  11.409 -0.0609  0.2316 -0.5110
14028W        W30876  16.328   4.440   0.290  0.3967  0.1191 -0.0167
14029W        W30877  13.259   8.891  13.457  0.2495 -0.0620  0.0458
14030W        W30878  10.034  13.992   0.071 -0.2694  0.3031 -0.1995
14031W        W30879   2.488   4.660   3.787 -0.3107  0.3585 -0.0655
14032W        W30880   2.019   1.900  15.117  0.1017 -0.1257  0.1768
14033W        W30881  12.676   7.920   3.572  0.1030  0.2376  0.3749
14034W        W30882  14.753   5.139  14.457  0.1442  0.1378 -0.0593
14035W        W30883   3.442  15.934  13.581 -0.1716 -0.0765 -0.1056
14036W        W30884   3.418   5.585   4.715 -0.1354  0.0442 -0.1440
14037W        W30885  16.878  16.646  17.685 -0.2259 -0.0129 -0.0201
14038W        W30886   8.506  10.850  16.056  0.1388 -0.0739 -0.2496
14039W        W30887   0.882   5.984  16.412 -0.0631  0.2847 -0.0480
14040W        W30888   3.169   0.570  13.730 -0.3274  0.1103  0.1579
14041W        W30889  11.635   6.121  12.820 -0.0947 -0.0541  0.1698
14042W        W30890  15.054   8.069   5.398  0.3796  0.0551  0.0556
14043W        W30891  14.953   4.861  15.714  0.0876 -0.2927  0.0729
14044W        W30892  16.046   1.876   4.230  0.0462  0.1654  0.0554
14045W        W30893   4.858   1.714   3.134 -0.1595 -0.0012  0.2291
14046W        W30894   1.789  14.364   3.116  0.0074 -0.0493 -0.0382
14047W        W30895  15.026  11.082   2.396 -0.2682  0.5014 -0.1576
14048W        W30896   9.784  11.319   3.601 -0.0982 -0.1772 -0.0079
14049W        W30897  15.292   9.681  14.765 -0.3644 -0.4321 -0.1375
14050W        W30898  15.142   1.216  17.830  0.0856 -0.0577 -0.0719
14051W        W30899   2.664  16.702  16.730 -0.0342 -0.0213  0.0976
14052W        W30900  14.761  16.634  15.733  0.3868 -0.1978 -0.1572
14053W        W30901   7.114  13.115   3.089 -0.2132 -0.3387  0.1366
14054W        W30902  11.398   0.390  14.037 -0.0018 -0.1526 -0.0282
14055W        W30903   3.298  16.374  16.985 -0.0901  0.0070  0.1316
14056W        W30904   6.525   5.059   5.292 -0.0890  0.1093  0.0322
14057W        W30905  15.891   6.084   2.701  0.0377  0.0988  0.0414
14058W        W30906  14.854  11.555  13.770 -0.0668 -0.1819 -0.0814
14059W        W30907  15.714   4.274   4.160  0.3272  0.0460  0.2465
14060W        W30908   4.661   0.603  15.151  0.1394  0.1818 -0.0346
14061W        W30909   3.468  14.415  11.881  0.1237  0.2075  0.3029
14062W        W30910   7.619  15.511   2.569 -0.1875 -0.3515 -0.0156
14063W        W30911  10.101   4.901   0.639 -0.1133  0.0116 -0.1891
14064W        W30912  12.881  15.950   4.384  0.3231  0.2401  0.0151
14065W        W30913   5.474  14.632   1.509 -0.0612  0.0491  0.1300
14066W        W30914   2.404  14.533  14.368 -0.2083 -0.3836 -0.1177
14067W        W30915   8.439   4.582  16.164  0.1160  0.0666 -0.1220
14068W        W30916  11.351   0.126   5.271 -0.0412  0.2285 -0.0933
14069W        W30917   7.147   1.619  17.325 -0.3151  0.1735  0.0191
14070W        W30918   5.332  13.032   1.681 -0.2089  0.1320  0.1278
14071W        W30919   7.278   1.592   4.014  0.1752 -0.1710 -0.0950
14072W        W30920  11.869  10.899   2.388 -0.1656 -0.0888 -0.4338
14073W        W30921   7.716  15.096  16.322 -0.1571  0.5147 -0.3887
14074W        W30922   4.104   1.646  15.879  0.0189 -0.0529 -0.4023
14075W        W30923   4.088  10.986   0.476 -0.1158  0.0904 -0.0456
14076W        W30924   4.535   1.673  16.178 -0.0103  0.0406  0.0201
14077W        W30925  14.083  11.021  14.128  0.0342  0.1003 -0.0961
14078W        W30926   8.319  12.321   4.600 -0.3892  0.3118  0.1253
14079W        W30927  16.451  11.776  15.666  0.1806 -0.0351  0.2554
14080W        W30928  12.418   7.891   0.058  0.1458  0.0602  0.1581
14081W        W30929  10.109   9.621   3.587  0.0161 -0.2075  0.1059
14082W        W30930  10.630  16.921  12.694 -0.3065  0.1202 -0.1845
14083W        W30931   9.469   7.597  14.096  0.1874 -0.2007 -0.1163
14084W        W30932  11.574  10.630  14.226  0.1632 -0.1571  0.0343
14085W        W30933   1.239  14.004  14.222 -0.1688 -0.0620 -0.1612
14086W        W30934   8.930  11.075  17.606 -0.3677 -0.0624  0.0459
14087W        W30935  15.397   4.535  12.280  0.3488  0.0445 -0.0574
14088W        W30936  12.821  15.872   2.323  0.3511  0.2900 -0.3067
14089W        W30937  15.579   3.184  12.236 -0.1898 -0.0320 -0.2746
14090W        W30938   3.572   0.591  17.213 -0.0501  0.0874  0.1587
14091W        W30939  14.788  13.164  14.524  0.1943  0.2415 -0.1335
14092W        W30940   9.974  10.849   3.354 -0.1187 -0.4135 -0.0003
14093W        W30941  12.268   4.205  11.091 -0.3199 -0.1647  0.0590
14094W        W30942  10.947   1.507  17.817  0.2981  0.0636  0.1096
14095W        W30943  14.172   2.827  16.334  0.0980 -0.0310 -0.1779
14096W        W30944   9.270   1.341  13.002  0.3954 -0.0825  0.0937
14097W        W30945  16.077   7.620   1.447  0.1978  0.0258 -0.0760
14098W        W30946   1.037   5.030   5.525  0.1291 -0.4581 -0.0215
14099W        W30947   8.130   8.271   3.045 -0.4166  0.1019 -0.2176
14100W        W30948   5.586   6.228   0.095  0.1127 -0.2039 -0.2940
14101W        W30949   7.073   9.767  14.062  0.0273 -0.4116 -0.1047
14102W        W30950  15.069   6.847  16.172 -0.0015 -0.0538  0.1596
14103W        W30951   4.381   1.280  16.474  0.1048  0.2311 -0.1480
14104W        W30952   9.899  14.882   0.269  0.0486 -0.1641 -0.3623
14105W        W30953   7.327   4.557   5.139  0.2220 -0.0540 -0.1324
14106W        W30954  16.639  12.119   3.813  0.0378  0.3404  0.0844
14107W        W30955   2.005  13.244   4.086  0.1905  0.1389  0.0426
14108W        W30956  14.874  15.324   1.457 -0.3536 -0.2684 -0.1133
14109W        W30957  10.712   9.257   1.365 -0.2944  0.3679  0.0361
14110W        W30958  11.011  14.147   1.872  0.0628  0.0877 -0.2836
14111W        W30959  12.183   4.517  13.811 -0.0810  0.1059  0.1058
14112W        W30960   0.038   5.595   0.752 -0.2814  0.0117 -0.1296
14113W        W30961  12.517  10.477  15.955  0.1052 -0.1890  0.0228
14114W        W30962   6.110   2.657   4.758  0.3303 -0.1318  0.1617
14115W        W30963   2.068  13.925   0.498  0.1561 -0.0815  0.0106
14116W        W30964  11.892   2.490   0.209 -0.3127 -0.0445  0.0110
14117W        W30965  15.878  11.910  13.643 -0.2151 -0.2577  0.1967
14118W        W30966  10.557   4.221  13.819  0.0058 -0.1388 -0.0696
14119W        W30967   3.806   6.769  12.396  0.0269  0.3142 -0.0090
14120W        W30968   1.625   7.854  12.829 -0.2770 -0.0704  0.0464
14121W        W30969   6.995  12.846  13.142 -0.2607  0.0279 -0.0519
14122W        W30970   8.730   2.880   3.341  0.1437  0.1392 -0.0223
14123W        W30971  15.139  10.596  12.499 -0.0653 -0.0246  0.0774
14124W        W30972  11.641   4.803  11.783 -0.2047 -0.0607 -0.0330
14125W        W30973   4.974   8.087   2.657  0.0392  0.0285  0.1375
14126W        W30974   6.506  12.955  16.929 -0.2026 -0.0371  0.1532
14127W        W30975  13.840   1.287   0.513  0.4784  0.0471 -0.0752
14128W        W30976   1.734  16.632   5.484 -0.0082 -0.0799  0.1328
14129W        W30977  13.535   9.688   3.359  0.0483  0.0590  0.4365
14130W        W30978  13.095  12.912  13.367 -0.0427 -0.1762 -0.0069
14131W        W30979  10.207   3.882  17.449 -0.0483 -0.1364  0.1523
14132W        W30980   6.806  12.075  16.479  0.1284  0.1158 -0.0357
14133W        W30981  10.420  10.956  17.685  0.3153  0.2097 -0.1800
14134W        W30982   3.267   8.669  13.363 -0.1664  0.0878 -0.0732
14135W        W30983  10.379  14.261   2.342  0.1226  0.0332 -0.3359
14136W        W30984  14.683  16.279   0.687  0.1996 -0.0496 -0.0509
14137W        W30985  14.453  14.644  16.375 -0.0750 -0.2097 -0.2500
14138W        W30986   3.404  17.057   4.932 -0.0310  0.0873 -0.0176
14139W        W30987   8.423  12.078   2.308 -0.0862 -0.0933 -0.1109
14140W        W30988  11.379  16.881  16.478  0.0228  0.2820 -0.0556
14141W        W30989  14.338   1.796  12.669 -0.0071 -0.1837  0.0083
14142W        W30990   8.489   4.417  16.765 -0.1869  0.1153 -0.0239
14143W        W30991   1.574  12.543   4.585  0.1212  0.2688 -0.0762
14144W        W30992   9.001   1.217   1.934 -0.0096 -0.1390 -0.1033
14145W        W30993   5.984  12.026  17.181 -0.4058  0.2566 -0.0178
14146W        W30994  11.482  13.383   5.186 -0.1810 -0.0818 -0.1587
14147W        W30995   1.135  10.983  12.608 -0.0027 -0.1377 -0.3208
14148W        W30996   2.985   4.752  13.279 -0.2325  0.2258 -0.0815
14149W        W30997   7.004  15.595  12.864 -0.0707  0.0056 -0.1248
14150W        W30998  15.142  16.657   1.987 -0.1939 -0.1602 -0.5440
14151W        W30999   8.235   7.893  14.737 -0.0606 -0.0258 -0.2955
14152W        W31000   8.684  12.019   1.475 -0.2139 -0.0767 -0.2762
14153W        W31001  12.346   9.198  15.559 -0.0519 -0.1096 -0.0612
14154W        W31002  14.472   9.519   3.170 -0.0821 -0.0870  0.0092
14155W        W31003  12.832   4.276  13.685  0.0268 -0.0106 -0.1990
14156W        W31004   6.310  10.303   3.568 -0.0916  0.0967 -0.0605
14157W        W31005   1.062   0.871   2.577  0.0746 -0.2332 -0.2346
14158W        W31006   8.402   1.663  12.899 -0.1020 -0.1474 -0.0511
14159W        W31007   4.989   1.914   6.242 -0.0017 -0.2387  0.1568
14160W        W31008  16.645   8.853  14.729 -0.0115 -0.1521  0.0225
14161W        W31009   8.774  13.033  16.673  0.3415 -0.2081 -0.1693
14162W        W31010   3.909  15.504  12.449 -0.3540  0.0851 -0.0356
14163W        W31011  12.025  12.648  13.956 -0.1439  0.0892 -0.1765
14164W        W31012   2.884   5.143   5.285  0.0583 -0.1046 -0.3202
14165W        W31013  12.191   5.042  13.557  0.1151  0.1436 -0.1672
14166W        W31014   2.779   6.504   3.421 -0.1711  0.0422  0.1322
14167W        W31015   5.457  11.465  12.521 -0.2010  0.0758 -0.1512
14168W        W31016   2.724  14.933   1.700 -0.1175  0.1934  0.3343
14169W        W31017  11.245  10.560  16.951  0.0705 -0.0613 -0.0326
14170W        W31018  14.689  13.779  16.169 -0.1549  0.2043  0.0233
14171W        W31019   7.634  10.868   0.337 -0.0598  0.1453  0.0417
14172W        W31020  10.258  15.766   1.864  0.0082 -0.1088  0.1005
14173W        W31021   9.972   3.281   2.743 -0.1654 -0.1640  0.0774
14174W        W31022   3.216  15.876  12.305 -0.1540 -0.0017 -0.2064
14175W        W31023   5.048  16.387   4.207 -0.1534  0.2211 -0.0436
14176W        W31024   0.612  15.863  16.247  0.0279  0.0406 -0.0318
14177W        W31025  16.874   1.964   0.614 -0.0521  0.1271 -0.3152
14178W        W31026   8.472   0.306  14.240  0.1100 -0.2833 -0.0562
14179W        W31027  11.145  14.308  17.170  0.4407  0.1536 -0.2275
14180W        W31028   3.883   3.260  15.552  0.0894 -0.0934  0.0987
14181W        W31029   4.476  10.004   5.816 -0.0345  0.1901 -0.1360
14182W        W31030   5.236   5.434   0.602 -0.1221  0.1919  0.2122
14183W        W31031   1.743   1.844  17.393  0.1580  0.2270 -0.1129
14184W        W31032  16.272   6.247   5.819 -0.1038 -0.0068 -0.1767
14185W        W31033   0.543   0.391   5.203 -0.4034 -0.0141 -0.0036
14186W        W31034   3.735  16.325  14.159 -0.1629  0.5294  0.0502
14187W        W31035   9.914  10.138   2.823 -0.3117  0.1374  0.1712
14188W        W31036   0.407  10.435   5.431 -0.1668 -0.0998  0.2956
14189W        W31037   8.526   0.951   1.958  0.0209 -0.0634 -0.2115
14190W        W31038   3.302   3.861   3.853  0.2343 -0.4674 -0.0254
14191W        W31039  11.292   8.290  15.668  0.3647 -0.3146  0.1832
14192W        W31040   7.865   5.259  14.386 -0.1794  0.0962  0.1163
14193W        W31041  13.708   9.606   5.370 -0.4140 -0.2317  0.1158
14194W        W31042   9.928   2.078   2.024 -0.0249  0.2357 -0.2283
14195W        W31043   5.078   6.187   0.264 -0.0842  0.0768 -0.0718
14196W        W31044   3.492  11.628  15.136  0.0579  0.0675 -0.1939
14197W        W31045  10.670   6.995   2.356 -0.1338 -0.0094 -0.1738
14198W        W31046  12.868  15.531  12.996  0.0550 -0.3448  0.0573
14199W        W31047   1.666   3.555   2.352 -0.0614 -0.0018  0.0108
14200W        W31048  16.821   5.536  16.438 -0.2216  0.2732  0.0664
14201W        W31049   8.779  13.964   4.775 -0.1267  0.1429  0.1132
14202W        W31050   5.209   5.776  16.811  0.0751  0.1438  0.0201
14203W        W31051  16.639  11.092  13.611 -0.4987  0.1361 -0.1713
14204W        W31052   9.212  16.511   3.204 -0.4205  0.1661 -0.1434
14205W        W31053   5.030  13.246   3.544  0.0631 -0.1791  0.4456
14206W        W31054  14.849  10.684   4.476  0.1386 -0.3147  0.0222
14207W        W31055  11.918   9.006  12.705  0.0697  0.1719  0.4310
14208W        W31056   4.209  14.459  13.957 -0.3278  0.2399  0.0386
14209W        W31057   1.254  11.217  14.720 -0.0648 -0.1217  0.0963
14210W        W31058   9.709   1.929  11.669 -0.0855 -0.1077 -0.0342
14211W        W31059   0.608   5.279  14.806 -0.2413 -0.1752  0.2424
14212W        W31060   7.482   3.441   4.739 -0.0184 -0.0480 -0.1164
14213W        W31061   8.422   3.479  16.765 -0.1492 -0.0821 -0.0052
14214W        W31062   7.444   2.536  13.689  0.1676  0.0541  0.2049
14215W        W31063  15.891  14.686  16.760 -0.2243  0.0452  0.0700
14216W        W31064   7.525   4.891   3.718  0.1536 -0.0330  0.2165
14217W        W31065  13.373   8.927  15.822 -0.0799  0.0836  0.0527
14218W        W31066  16.422  11.395  12.411  0.2959  0.0818 -0.3337
14219W        W31067  15.452  14.020  11.627  0.0986 -0.0428 -0.2324
14220W        W31068  13.925   7.237  14.696 -0.2558 -0.1154 -0.3510
14221W        W31069   4.438   1.003  17.550  0.1780 -0.1036 -0.0502
14222W        W31070   8.510   1.752  15.473 -0.2684 -0.0882 -0.4550
14223W        W31071   7.022   1.115   3.743 -0.1664 -0.0012 -0.0407
14224W        W31072  12.351   6.528   3.152  0.0867  0.0106  0.2309
14225W        W31073  13.218  12.783   5.818  0.1917  0.1102 -0.0570
14226W        W31074  12.291   8.372  16.561 -0.0351 -0.1804 -0.0155
14227W        W31075   3.658  10.283   5.268 -0.0433 -0.0794 -0.0568
14228W        W31076   0.093   9.739   1.510  0.1867  0.2207 -0.2439
14229W        W31077   2.177   4.921   4.879  0.3024 -0.0051 -0.0694
14230W        W31078   2.711  15.685   5.878  0.4400 -0.3184 -0.0091
14231W        W31079   2.249  14.447   3.735  0.0482 -0.1478  0.0661
14232W        W31080  13.893   6.472  16.382  0.1359 -0.3695  0.0672
14233W        W31081   8.330   8.485  15.697  0.1610 -0.1986  0.2931
14234W        W31082   3.828   6.719  15.414 -0.0195 -0.0779 -0.1591
14235W        W31083  11.533   3.403   3.614 -0.0405  0.3339  0.0119
14236W        W31084  13.644   3.393   2.116 -0.0141  0.0356 -0.0381
14237W        W31085  11.143   4.151  16.083  0.1626 -0.1933  0.3497
14238W        W31086   5.490   7.697  16.999  0.1933  0.1729  0.2151
14239W        W31087  12.700   6.191  17.746 -0.2794  0.3689 -0.1892
14240W        W31088   7.234  14.625   3.555  0.1261 -0.0784  0.1971
14241W        W31089  16.864   5.003  17.708  0.0093  0.1890 -0.2473
14242W        W31090   0.771   2.815   4.146 -0.2194  0.0178 -0.1072
14243W        W31091   5.469   0.865  11.168 -0.2380 -0.1400 -0.0587
14244W        W31092   8.255  12.569  15.628 -0.0696  0.0007 -0.1816
14245W        W31093  11.381   1.438  16.893 -0.2115  0.0949  0.1550
14246W        W31094  14.122   4.912  14.977 -0.0290 -0.1104 -0.2165
14247W        W31095   9.836  15.442   0.316 -0.1148  0.0696  0.2451
14248W        W31096   3.148   7.855   3.719 -0.1185 -0.2215 -0.1640
14249W        W31097  13.039  11.776   4.536 -0.2091  0.0838  0.0473
14250W        W31098   2.743  12.536   3.127  0.2943 -0.0062  0.1766
14251W        W31099   6.310   0.482   1.173 -0.1171 -0.0979  0.0450
14252W        W31100  15.500  10.523   0.490  0.0047 -0.0023  0.1915
14253W        W31101   0.130   0.456  12.369 -0.1716  0.1752 -0.1646
14254W        W31102  16.337  16.230  15.041  0.1316  0.0216  0.0833
14255W        W31103  14.975   8.343  15.614 -0.0017  0.0267 -0.0368
14256W        W31104  13.526   6.272  15.545  0.2450 -0.0146 -0.0288
14257W        W31105   8.638  15.441   0.756  0.0501  0.3146 -0.0983
14258W        W31106  14.032  11.310   2.429  0.0790  0.0034 -0.1126
14259W        W31107   7.299   9.330  13.851  0.1543 -0.3293 -0.3732
14260W        W31108  16.582  15.311  11.888 -0.2276 -0.1687 -0.0843
14261W        W31109  15.043   1.503   2.019 -0.1322  0.0889 -0.1794
14262W        W31110   0.387   2.409  13.268  0.0527 -0.1940 -0.0793
14263W        W31111   0.102   7.123   4.090  0.0140 -0.2175  0.1526
14264W        W31112  17.030   1.708   4.117  0.2422  0.0211  0.1473
14265W        W31113  14.504   5.703   4.272 -0.0111  0.0046 -0.0042
14266W        W31114   2.377  14.119  17.063 -0.1957 -0.3486 -0.1475
14267W        W31115   2.939  12.551   1.147 -0.0122  0.0324 -0.0532
14268W        W31116   9.664   9.089  13.251  0.0844 -0.3350  0.0197
14269W        W31117  13.440  11.881   4.887  0.2918 -0.0623  0.1523
14270W        W31118  15.872   6.082  14.984 -0.0537 -0.2156  0.0545
14271W        W31119  15.330  11.327  13.973 -0.0484 -0.2157  0.1853
14272W        W31120   3.762   1.917   3.295  0.0754  0.0139  0.3073
14273W        W31121   3.119  13.354   3.332  0.0659  0.1893  0.0728
14274W        W31122   7.832   1.927   4.540  0.0972  0.2527  0.2055
14275W        W31123  13.495   2.274   1.647  0.0283 -0.2075  0.1064
14276W        W31124   8.469  11.280  14.199 -0.1880  0.0335 -0.0116
14277W        W31125   7.718  16.829  13.888  0.1304  0.0333  0.0513
14278W        W31126   5.831  14.065  15.764 -0.1389 -0.1740  0.0579
14279W        W31127  10.489  14.385   3.387 -0.0333 -0.0119  0.0321
14280W        W31128  11.020  16.501  16.451 -0.0154  0.3528 -0.0192
14281W        W31129   4.357  13.512  14.535 -0.2409 -0.2917  0.0397
14282W        W31130   7.070  15.006  12.658 -0.1427 -0.2799  0.0731
14283W        W31131   5.140  16.347  16.786  0.1255 -0.4247 -0.2648
14284W        W31132   0.512  15.552  15.897 -0.0082  0.1465  0.0889
14285W        W31133   5.475   6.338   4.102  0.1592 -0.0926 -0.3451
14286W        W31134  13.725  10.454   4.907  0.1137 -0.3250  0.0150
14287W        W31135  10.137   3.876  13.665 -0.0081  0.1755  0.1606
14288W        W31136   4.022  17.008  14.952  0.2145  0.4643 -0.2478
14289W        W31137  17.059  13.791  12.195 -0.0137 -0.2241 -0.1986
14290W        W31138   0.465  13.978  11.836  0.0583  0.1422 -0.1592
14291W        W31139   7.239  15.264   2.231 -0.1938  0.0346 -0.0479
14292W        W31140  14.757   7.890   0.352 -0.0273 -0.2487 -0.0883
14293W        W31141   8.306   5.974  15.907 -0.1078  0.2098  0.0140
14294W        W31142  11.603   0.990   5.549 -0.1421  0.1764 -0.0653
14295W        W31143   4.614   5.052   0.693  0.1053 -0.1110  0.3425
14296W        W31144   4.369  15.940  16.460 -0.0537 -0.2928 -0.0558
14297W        W31145  10.125   4.527  14.714 -0.1636  0.0600 -0.3760
14298W        W31146   7.470   5.925  14.875 -0.0463 -0.1358  0.1068
14299W        W31147   4.108  16.426   0.304 -0.1739 -0.1599 -0.0104
14300W        W31148   4.572   9.731   2.405 -0.2223  0.1291 -0.2683
14301W        W31149  13.446  13.638   2.116  0.1846  0.2060  0.2057
14302W        W31150   8.741   3.437   5.495  0.0130  0.2027 -0.0688
14303W        W31151  10.977  10.192  13.313 -0.2044  0.2293 -0.4110
14304W        W31152   5.986   2.271  14.974 -0.2260 -0.2144  0.3683
14305W        W31153   9.239   5.192   5.359 -0.1861  0.1671 -0.0188
14306W        W31154   1.500   9.570  13.996 -0.2600  0.0410 -0.0480
14307W        W31155  11.762   3.748   3.971 -0.0658 -0.3832 -0.0735
14308W        W31156   3.043   2.910  15.720  0.1045 -0.1159  0.2545
14309W        W31157  15.164   7.902   2.254 -0.0233  0.0377 -0.1738
14310W        W31158   5.295  12.688  15.596  0.2459  0.2956  0.2393
14311W        W31159   5.217   7.247   1.037 -0.0977  0.2884  0.1250
14312W        W31160   2.967   0.477  15.855  0.1818 -0.0551  0.2757
14313W        W31161   2.375  16.790   1.681  0.2185  0.1484 -0.1060
14314W        W31162  16.349   6.665  14.389 -0.0414 -0.1890 -0.1324
14315W        W31163   0.299   8.794  15.497 -0.1869 -0.0888  0.0741
14316W        W31164   2.551   6.691  15.192 -0.0423  0.0024 -0.1792
14317W        W31165   8.087   4.194   3.763 -0.2179 -0.0424 -0.1561
14318W        W31166   6.114  12.919  12.988 -0.0378  0.0357 -0.0052
14319W        W31167   8.917  10.500  15.213  0.2218 -0.0214 -0.2708
14320W        W31168   3.627  11.848   1.378 -0.3274 -0.2994 -0.1155
14321W        W31169   0.381  13.122  15.309  0.2342 -0.0297 -0.1161
14322W        W31170  13.857   6.530  13.018  0.0845  0.0220  0.0613
14323W        W31171   9.276  13.763   4.473  0.0080  0.0824 -0.1863
14324W        W31172   6.984  13.801   1.304 -0.1196 -0.0662 -0.2248
14325W        W31173   0.496   1.867  14.880 -0.1095 -0.0158  0.2094
14326W        W31174   6.580   9.726   0.489 -0.3091 -0.0593  0.0127
14327W        W31175  15.929  14.818   5.693 -0.1140 -0.1023 -0.1434
14328W        W31176  10.607   0.494   4.871 -0.2780 -0.0972 -0.1240
14329W        W31177   4.937   2.398   0.886  0.2823  0.2438  0.0711
14330W        W31178  14.215   9.794  13.455  0.0137  0.3264 -0.4942
14331W        W31179  14.648   9.882  16.227  0.1642  0.3825  0.0743
14332W        W31180   1.888   7.978  16.069  0.1448  0.0028 -0.0578
14333W        W31181  12.213   7.086   0.304  0.0619  0.1069  0.1720
14334W        W31182  13.652  12.021   3.368  0.0793  0.1178  0.0228
14335W        W31183   3.221   3.571  13.953 -0.2332 -0.0275 -0.1449
14336W        W31184   4.684   6.643   1.562  0.0958 -0.0199 -0.4982
14337W        W31185   6.756   5.520  17.648  0.2425 -0.3319  0.2760
14338W        W31186  14.270  14.474  14.212  0.0950  0.0137 -0.0800
14339W        W31187   0.005   6.200   2.402  0.0847  0.1184 -0.1596
14340W        W31188  12.796   8.302   3.193  0.5744 -0.0680 -0.1335
14341W        W31189  14.517  11.371   5.775 -0.1089 -0.1263 -0.3298
14342W        W31190  12.420   4.682  16.632  0.0674 -0.2062 -0.1613
14343W        W31191   1.923   8.964  16.540 -0.3432 -0.0437 -0.1334
14344W        W31192  14.136   7.204  15.307  0.0430 -0.0367  0.1027
14345W        W31193  10.598   7.774  14.468  0.1785 -0.2729  0.0743
14346W        W31194  14.158   5.720   2.790  0.2653  0.0075 -0.2759
14347W        W31195  12.112  12.004  16.515  0.1310  0.1168  0.1731
14348W        W31196   2.897  16.835   1.707 -0.1425 -0.1367  0.0365
14349W        W31197  12.525  16.320  12.374  0.2539 -0.3059  0.4319
14350W        W31198  13.893   6.796   3.935  0.4346  0.2733 -0.0963
14351W        W31199   2.528   2.623  17.250 -0.4618  0.1875 -0.1033
14352W        W31200  13.177   9.680   5.078  0.0389 -0.0858 -0.0087
14353W        W31201  13.025   0.881  15.711  0.0968  0.0911  0.3960
14354W        W31202   0.574   9.648   4.796  0.0932 -0.1740 -0.1654
14355W        W31203  15.904  10.460  15.691  0.0361 -0.0339  0.1726
14356W        W31204  14.299   5.895  15.157  0.1886 -0.3460  0.0957
14357W        W31205   0.976  12.124   4.197  0.1894  0.0501  0.2571
14358W        W31206  11.699   4.400  15.260  0.1675  0.0302  0.3633
14359W        W31207  10.743   5.586  17.405  0.1517  0.1166  0.1427
14360W        W31208   0.721  15.603   0.616 -0.1960 -0.1297 -0.0390
14361W        W31209  12.064   5.269   2.176 -0.1412 -0.0167  0.0238
14362W        W31210   3.468   8.750   3.634  0.1606  0.0391 -0.1428
14363W        W31211  12.056   9.471  12.893  0.1298 -0.2913  0.4235
14364W        W31212   2.111  10.698   3.631 -0.2944  0.3047  0.2138
14365W        W31213  12.523   9.088   4.783  0.4339  0.0716 -0.0018
14366W        W31214   1.700  15.809   0.581  0.2613 -0.0047 -0.1680
14367W        W31215   6.413  10.719  16.575  0.3874 -0.1475 -0.3383
14368W        W31216  14.925  14.530   4.466  0.1530 -0.2504  0.0678
14369W        W31217   5.660   4.068   4.604 -0.2607 -0.1751  0.0664
14370W        W31218   0.644   3.177  11.360  0.2031 -0.0241 -0.3137
14371W        W31219  13.813   7.648  13.215  0.0993  0.2291 -0.1146
14372W        W31220  12.706   3.054   5.906  0.1486 -0.0119  0.2190
14373W        W31221  12.229   6.472  16.011  0.0962 -0.0983  0.2031
14374W        W31222   8.224  15.531   5.974  0.1532  0.1792  0.0895
14375W        W31223  12.656   2.385   3.207  0.1821 -0.0816 -0.2419
14376W        W31224  12.253  16.751  15.415 -0.1538 -0.1632  0.0181
14377W        W31225   3.643   7.213  17.600  0.1123 -0.3654 -0.0952
14378W        W31226   9.197  11.331   1.739 -0.2697  0.2412 -0.0424
14379W        W31227  14.991   3.435   6.807  0.0206  0.1706  0.2138
14380W        W31228  11.293  14.153   3.701  0.0328  0.1781 -0.1708
14381W        W31229  11.991   3.005   0.968  0.1069  0.1042  0.3324
14382W        W31230   8.406   7.034  13.598 -0.1665 -0.1223  0.1409
14383W        W31231  13.413   8.687   3.791 -0.0718  0.1521  0.2237
14384W        W31232   2.713   7.828   1.338 -0.0176 -0.0157  0.0682
14385W        W31233   8.903  16.213  12.495  0.0405  0.4411  0.0252
14386W        W31234   6.697   4.953  14.100 -0.0384  0.1119 -0.0329
14387W        W31235   7.921   5.514   0.208 -0.2041  0.0160 -0.2813
14388W        W31236   0.843   4.952   0.822  0.1564 -0.0255  0.0831
14389W        W31237   5.819   4.782  16.928  0.3483 -0.1566 -0.1352
14390W        W31238   6.687   8.429   1.193  0.3794  0.1674 -0.0697
14391W        W31239  13.585   0.147  16.653  0.0244  0.3097 -0.1422
14392W        W31240   9.544  16.952  16.558 -0.0504  0.1798 -0.0381
14393W        W31241  11.305   6.380   0.026 -0.2426  0.0117 -0.0424
14394W        W31242   4.676   2.496   4.163 -0.0125 -0.0810  0.0592
14395W        W31243   1.316   2.383   1.397 -0.3429  0.1918  0.1553
14396W        W31244   2.399  15.022  16.278 -0.0339 -0.0345  0.3086
14397W        W31245   5.928   8.060  17.647 -0.0165  0.1976  0.0763
14398W        W31246   3.032   5.141  12.990 -0.1894 -0.0263 -0.1242
14399W        W31247   8.947  10.504   4.248  0.2573  0.0147 -0.1824
14400W        W31248   9.362   2.980   4.815 -0.0338  0.0762  0.0621
14401W        W31249   4.369   4.622  14.617  0.0232 -0.2597 -0.1092
14402W        W31250   0.001   9.202  17.085 -0.1878 -0.1692 -0.2166
14403W        W31251   2.455   7.409   3.923 -0.2353 -0.1503 -0.0070
14404W        W31252  16.122   9.827   2.974  0.0623 -0.0177  0.0773
14405W        W31253   5.357  11.195   0.770  0.0572  0.2708 -0.4356
14406W        W31254   9.475  12.565   2.092  0.0957 -0.1684  0.0887
14407W        W31255  14.451   0.907   3.126  0.1053 -0.1027  0.0544
14408W        W31256  12.656   2.329   1.866 -0.0105 -0.1594  0.1458
14409W        W31257  13.419   3.931   2.026 -0.1410 -0.0616  0.0362
14410W        W31258   5.202   0.934  13.252 -0.0707 -0.2686  0.2260
14411W        W31259   4.255   4.597  15.499  0.1150 -0.1731 -0.0983
14412W        W31260   7.101   4.052   3.793 -0.0476  0.1194  0.1773
14413W        W31261  10.299  11.859  14.013 -0.0433 -0.0115  0.3651
14414W        W31262   2.245   5.110  17.803  0.1073  0.0138  0.1166
14415W        W31263  12.642   0.144  17.214 -0.0182 -0.1220 -0.1319
14416W        W31264   7.807   1.890  15.743  0.1448 -0.2138  0.0329
14417W        W31265  13.072  15.184  16.570 -0.1703 -0.1799  0.0133
14418W        W31266   8.526  14.164   0.572  0.2189 -0.2193  0.0187
14419W        W31267   8.999   0.924   1.411 -0.0709  0.2874 -0.0505
14420W        W31268  14.808   4.132  16.473 -0.1980  0.1083  0.2930
14421W        W31269   4.551  15.894  13.906 -0.1257  0.0884 -0.0377
14422W        W31270  16.918  15.940  17.712  0.1830 -0.1864 -0.0165
14423W        W31271   1.157   1.536   6.741 -0.1013 -0.0011  0.1121
14424W        W31272   5.242  13.642   3.745  0.1269 -0.1503  0.1087
14425W        W31273   8.753   2.181  17.497  0.3011 -0.0534  0.3390
14426W        W31274  15.385   9.098  12.465  0.0490 -0.2552 -0.1063
14427W        W31275  12.326   0.297   1.218  0.1914  0.0170 -0.0674
14428W        W31276   0.825   6.475  12.485 -0.3164 -0.2500  0.5589
14429W        W31277   3.583   9.523  15.461  0.2396 -0.2183  0.1184
14430W        W31278   1.139   2.562  15.314  0.0091 -0.0057  0.2612
14431W        W31279  12.276   9.161  16.951 -0.5527 -0.1975 -0.2363
14432W        W31280   5.583   9.929   4.416 -0.1292 -0.0136  0.0050
14433W        W31281   6.788  16.756   1.933 -0.0038 -0.1181 -0.5736
14434W        W31282  12.098   4.736   5.316  0.2423  0.2272 -0.0866
14435W        W31283   6.976  13.557  13.940  0.0325  0.0550  0.0636
14436W        W31284  15.368  12.443   0.588 -0.2054  0.3816 -0.4754
14437W        W31285   2.415  11.680  17.757  0.1908 -0.0016  0.1583
14438W        W31286   0.036   6.097  16.871 -0.0949 -0.2616 -0.0215
14439W        W31287  12.822  13.961  13.407  0.0556 -0.1390  0.0371
14440W        W31288   7.580   5.374  16.068  0.0090 -0.1345 -0.1333
14441W        W31289  13.329   6.696  17.781  0.1984  0.1494 -0.1378
14442W        W31290   8.048   9.568   5.224 -0.1664  0.0090  0.3934
14443W        W31291   3.511   8.876   2.005  0.1854  0.1924  0.0820
14444W        W31292   4.340  16.419  16.252  0.0064 -0.1937 -0.1792
14445W        W31293   1.688   8.879   4.880  0.1418 -0.2771 -0.1262
14446W        W31294   8.229  10.000  13.110 -0.1897 -0.1607 -0.0942
14447W        W31295  15.097   8.867  15.306  0.0940  0.2243  0.2009
14448W        W31296  16.144  13.757   2.971 -0.0913  0.0116  0.3001
14449W        W31297  13.873   6.031   3.113  0.1451 -0.1320  0.4401
14450W        W31298  15.900   9.968  15.834  0.0199 -0.1279 -0.0280
14451W        W31299   6.889   9.491   0.165 -0.1768  0.2817 -0.0672
14452W        W31300   6.731  12.575   0.918  0.1546  0.0156  0.0096
14453W        W31301  10.582  11.741   4.556  0.3512 -0.3958  0.1180
14454W        W31302   1.628  10.783  14.836  0.3151  0.0418  0.1111
14455W        W31303   0.091  15.061   1.614 -0.0579  0.0656  0.0265
14456W        W31304   4.175   4.989  14.321  0.0227  0.2547  0.0739
14457W        W31305  13.264  13.788   1.624  0.4458  0.1311  0.1919
14458W        W31306   6.062  11.761  12.966  0.5168 -0.2753  0.0155
14459W        W31307   5.540  11.094   3.468 -0.1228  0.1590  0.0157
14460W        W31308  10.634  14.393  15.388 -0.0401 -0.2532  0.0666
14461W        W31309   1.967   6.142  13.350 -0.0758 -0.1458 -0.2869
14462W        W31310   8.888   7.007   4.903  0.2981  0.3448 -0.3155
14463W        W31311   9.667   2.757  16.501  0.1287 -0.2353  0.0482
14464W        W31312  12.395  12.764   0.917 -0.0728  0.0172  0.0909
14465W        W31313  11.758   5.862  12.368  0.1619  0.0255  0.0489
14466W        W31314   0.719   4.593   5.412 -0.1414 -0.0725 -0.1232
14467W        W31315  16.710  13.957   1.050  0.0784  0.1861 -0.1520
14468W        W31316   2.576   1.430   3.809 -0.1925 -0.2064 -0.0329
14469W        W31317  16.816   4.815   3.570  0.0733 -0.2940 -0.0001
14470W        W31318  16.119   8.539  16.385 -0.0607 -0.0289 -0.2621
14471W        W31319   0.818   9.099  13.031  0.0077  0.0663 -0.0596
14472W        W31320   2.177   1.361  14.105  0.1897 -0.1424  0.0163
14473W        W31321   3.339   4.899   0.887  0.2220  0.0991 -0.1182
14474W        W31322   6.469   0.981   4.370  0.0512  0.0120 -0.3687
14475W        W31323  16.597   9.523  12.798  0.1068  0.1101  0.0574
14476W        W31324   6.835   8.297  14.723 -0.0935 -0.0630  0.1945
14477W        W31325  14.313   1.860  15.890  0.0405 -0.1073 -0.1424
14478W        W31326  11.578  10.882  13.663  0.2727 -0.1390 -0.0386
14479W        W31327   3.667   7.988  14.091 -0.0966  0.2711  0.3283
14480W        W31328   7.391   4.892  16.044  0.2470  0.2098  0.2103
14481W        W31329   6.274   0.483  15.974  0.0833 -0.2869  0.0843
14482W        W31330  14.431  15.955  13.819 -0.1838 -0.3201  0.1305
14483W        W31331  14.438   4.001   2.758 -0.0423  0.0390  0.1634
14484W        W31332   7.880  11.305  14.560 -0.0436  0.1550  0.0890
14485W        W31333   5.145   3.407   1.343 -0.1328  0.2731  0.1090
14486W        W31334   8.227  16.788  16.193  0.0671  0.1209  0.1159
14487W        W31335  13.267  12.071   1.437  0.0386  0.2436 -0.0313
14488W        W31336  14.884   0.885  12.880  0.0766  0.0380  0.2656
14489W        W31337   2.291   9.126   3.316 -0.0875  0.0616 -0.2659
14490W        W31338   3.001  15.204   5.519 -0.0290 -0.0203  0.0545
14491W        W31339   8.753  14.701  13.056 -0.1666  0.1725 -0.4099
14492W        W31340  10.913  10.822   3.989 -0.2862 -0.0695  0.2372
14493W        W31341   4.575  12.519  15.659  0.1530 -0.3778 -0.1654
14494W        W31342   1.273   4.020   2.230 -0.0167  0.3838 -0.2402
14495W        W31343   5.588  15.460  14.827  0.0269 -0.1336  0.1499
14496W        W31344  14.116   7.608  15.608 -0.0534  0.0623  0.0128
14497W        W31345   3.984  10.534   0.201 -0.2777  0.0227  0.3642
14498W        W31346   5.993   5.216  17.071  0.0666  0.2347  0.0009
14499W        W31347  13.070  10.410  13.335  0.0707  0.0381 -0.0867
14500W        W31348   8.412  12.208  13.172 -0.1950  0.0158 -0.0010
14501W        W31349   7.017  12.272   1.278  0.0164  0.0090  0.0317
14502W        W31350  10.901   1.940  12.658  0.2622 -0.0864  0.2234
14503W        W31351  13.799  12.749  12.033  0.0201  0.0333  0.1660
14504W        W31352   1.990  14.085  13.842 -0.1065  0.0034  0.2653
14505W        W31353   9.258  16.678  16.173  0.2910  0.0773 -0.1510
14506W        W31354   2.319   4.944   1.805  0.2131  0.2219  0.0641
14507W        W31355   5.595  12.349  12.479  0.2126  0.1501  0.2827
14508W        W31356  14.262   5.581  17.752 -0.2050  0.0725 -0.1241
14509W        W31357   9.437   0.454  15.191  0.2434 -0.0887  0.1830
14510W        W31358  12.388   0.566   3.165 -0.1189  0.1625  0.1110
14511W        W31359  13.043  15.753  14.331  0.1098 -0.1047 -0.2579
14512W        W31360   2.528   8.841   3.655  0.2248  0.1164  0.2806
14513W        W31361  12.347  14.474  15.381 -0.1385  0.1260 -0.0114
14514W        W31362   9.529  14.544   1.511  0.0397  0.3211  0.1512
14515W        W31363  12.004   5.793  14.608 -0.0488 -0.0536 -0.2678
14516W        W31364  12.237   3.019   3.770 -0.1313  0.2806 -0.1481
14517W        W31365   2.180   9.991   4.843 -0.0432  0.0636  0.2476
14518W        W31366   9.386  14.581   3.570 -0.0850 -0.2765 -0.2599
14519W        W31367   7.865  11.850  14.406  0.3296 -0.1957 -0.3422
14520W        W31368   9.500   0.858  13.684  0.0346 -0.1430  0.3226
14521W        W31369   0.830   8.704   4.893  0.1763  0.1038 -0.2162
14522W        W31370  10.189   3.496  13.182  0.1334  0.0006 -0.2136
14523W        W31371   0.050   6.964   4.975  0.0741  0.2054 -0.0609
14524W        W31372  12.718  15.419  16.141 -0.4925  0.0808 -0.0543
14525W        W31373  15.117   6.909   0.621 -0.1164 -0.0368  0.0669
14526W        W31374   5.619   6.822   4.989 -0.0738  0.2374  0.4840
14527W        W31375  10.204   1.094  13.299 -0.0051  0.1311 -0.1838
14528W        W31376  12.402   6.357   4.153 -0.1492 -0.2364  0.1077
14529W        W31377   7.508   1.257   5.175  0.1428  0.4033 -0.0663
14530W        W31378   4.442  12.725  13.448  0.2129  0.2581 -0.2361
14531W        W31379   7.181   0.734  13.193  0.1349  0.1809 -0.0612
14532W        W31380  16.280   9.300  16.803  0.0699 -0.1010 -0.1480
14533W        W31381   5.943   8.106  16.177 -0.4177  0.2043  0.0333
14534W        W31382  15.379   8.291  17.010 -0.1815 -0.1075 -0.0719
14535W        W31383  11.594   6.403   2.363  0.0109  0.1306 -0.0551
14536W        W31384  13.325   6.297  14.262 -0.0832  0.1958  0.0351
14537W        W31385   5.133   4.514   4.670 -0.2137  0.0118 -0.0236
14538W        W31386   9.730  15.065   2.135 -0.1958  0.0011  0.0182
14539W        W31387   9.533   2.121   4.281 -0.0613 -0.0463 -0.0827
14540W        W31388   9.334   8.695   1.030  0.1349  0.0225  0.1927
14541W        W31389   7.424   1.293  12.834  0.1108 -0.2649 -0.0856
14542W        W31390  14.563   6.971   2.270  0.1628 -0.1271  0.0315
14543W        W31391   0.610   6.845   0.912  0.0799  0.1357  0.2027
14544W        W31392  10.248  14.126  11.293  0.1068 -0.0341  0.1376
14545W        W31393   3.306  14.159   2.645  0.2330  0.0635  0.3054
14546W        W31394  11.622  14.038   0.759  0.1587 -0.1058 -0.2207
14547W        W31395  14.673   8.461  14.467  0.0179  0.0986  0.0708
14548W        W31396   1.412  11.788   5.117  0.1745  0.0773  0.1103
14549W        W31397   7.383  14.612   1.718  0.1911 -0.3418 -0.0758
14550W        W31398  16.062  15.075   3.474 -0.1065 -0.3217  0.4098
14551W        W31399  11.741  12.423   1.533  0.0196 -0.1526  0.1521
14552W        W31400  16.300   6.187   5.310  0.1034  0.0166  0.0219
14553W        W31401   2.882   2.759   1.753 -0.0593 -0.0845 -0.0613
14554W        W31402  15.306  10.317   3.232  0.1959  0.0869 -0.0467
14555W        W31403  14.131  11.468   2.962 -0.0274 -0.1092  0.2046
14556W        W31404  14.691  10.635   0.138 -0.3746  0.1841  0.1388
14557W        W31405  12.704   6.460  16.987  0.0027 -0.1632 -0.2009
14558W        W31406  15.364  11.835  14.728  0.1272 -0.2561 -0.1572
14559W        W31407  13.361   6.620   5.369 -0.0607 -0.2039 -0.2508
14560W        W31408  13.393  14.463  16.816  0.0730  0.1087  0.1710
14561W        W31409  16.332   9.786  16.746 -0.0054 -0.2376  0.1092
14562W        W31410   9.042   0.530  11.586  0.1189 -0.0810 -0.1205
14563W        W31411   2.093  16.511  17.592  0.2003 -0.4626 -0.2218
14564W        W31412   4.799  16.560   2.100  0.2069 -0.2403  0.3736
14565W        W31413   0.574  15.142  16.629  0.4267  0.3984  0.1334
14566W        W31414   6.755   0.158  12.717 -0.0295 -0.0783  0.1202
14567W        W31415   5.568  13.215   0.508  0.0214 -0.3853  0.1403
14568W        W31416   6.610  16.894   0.759 -0.1170  0.1068  0.0311
14569W        W31417  12.784   6.362   1.865 -0.1411 -0.1793  0.0667
14570W        W31418   0.677   4.511  13.514 -0.0663 -0.0413  0.1263
14571W        W31419   4.902   5.476  16.067 -0.1910 -0.1874 -0.1527
14572W        W31420  10.496  14.871   4.367  0.1063  0.4135 -0.1322
14573W        W31421  16.707  11.214   2.769 -0.0578  0.1638 -0.1011
14574W        W31422  11.707   4.316   5.550 -0.0485 -0.0404  0.0366
14575W        W31423   2.342   8.469   1.214 -0.0280 -0.0682 -0.1232
14576W        W31424   9.632   6.715  15.967  0.1304 -0.0161  0.2601
14577W        W31425  16.919  16.217  16.811  0.1045 -0.1021 -0.2247
14578W        W31426   9.962  14.497  14.716  0.1964 -0.1311 -0.1256
14579W        W31427   4.604   1.165   5.184  0.1647  0.1546  0.0825
14580W        W31428  15.362   4.038   1.643 -0.2023  0.0474  0.0038
14581W        W31429  15.047   9.846  15.801  0.0026  0.2203  0.2189
14582W        W31430   1.111  12.932   5.333 -0.0646 -0.1450 -0.1591
14583W        W31431   0.782   1.667  15.321  0.0991  0.2205 -0.0015
14584W        W31432   7.041  11.759  12.860 -0.0529 -0.2282 -0.0433
14585W        W31433  11.546  10.017  12.322 -0.0646 -0.3787  0.1309
14586W        W31434  12.781   6.782  15.123  0.2748  0.0226 -0.0150
14587W        W31435   8.679  11.434   3.410 -0.1810 -0.0479  0.0430
14588W        W31436   4.877   6.074  14.950  0.0340 -0.0199 -0.0701
14589W        W31437  13.044  13.698   4.930 -0.1131  0.2928 -0.1705
14590W        W31438  13.959  12.766  11.189 -0.0795  0.3305  0.1218
14591W        W31439   9.801   1.232   5.947  0.3153  0.1038 -0.3132
14592W        W31440   6.292  13.788  15.714 -0.2226 -0.0234  0.0245
14593W        W31441   1.274  16.123  17.352  0.0037  0.0582 -0.4737
14594W        W31442   9.112   4.381   2.793 -0.0800  0.1627  0.1500
14595W        W31443   9.676   6.223  15.972  0.1594 -0.0984  0.2593
14596W        W31444   3.353   5.572   0.196 -0.0882 -0.0019 -0.2427
14597W        W31445   2.065   1.257   3.247 -0.1355  0.4091  0.3134
14598W        W31446   9.043  16.138  13.620  0.2977 -0.1600 -0.7920
14599W        W31447   8.852   7.827  16.440  0.1344 -0.1549  0.3038
14600W        W31448  10.057   3.438  17.059  0.1893  0.1196  0.0103
14601W        W31449   8.377   0.461   2.085  0.3260 -0.2686 -0.1414
14602W        W31450   6.161  13.346  16.890  0.0431 -0.4978  0.2347
14603W        W31451   4.865   1.665  13.716 -0.1036 -0.2477  0.1198
14604W        W31452   7.767   0.400  14.008 -0.0127 -0.0330 -0.0317
14605W        W31453  12.072   4.644  17.568  0.2476  0.2265  0.0061
14606W        W31454  10.892   9.920  12.481  0.2449  0.0184  0.0366
14607W        W31455   8.179  13.609  14.730  0.0741 -0.1464 -0.1971
14608W        W31456   7.479   1.199   2.878 -0.1394  0.1753 -0.0187
14609W        W31457   3.278   7.268  17.312  0.1802 -0.0266  0.1208
14610W        W31458   8.437  10.472   0.371 -0.0603  0.0885 -0.1613
14611W        W31459   9.638   0.958   3.290 -0.2161  0.1835 -0.0094
14612W        W31460   8.932   8.924   2.278  0.1436 -0.0287  0.0189
14613W        W31461  14.386   7.576   1.791 -0.2453 -0.0626  0.1863
14614W        W31462  13.983   9.091  14.544 -0.1165 -0.1301  0.2310
14615W        W31463   3.128  10.554  12.681  0.2750 -0.0867  0.1523
14616W        W31464   0.329   6.822   2.237  0.0691 -0.1142 -0.2422
14617W        W31465   6.791   1.449  16.540  0.0703  0.3823  0.0362
14618W        W31466   3.462  15.428  14.363  0.1258  0.0759 -0.2155
14619W        W31467   6.169   8.160   5.074  0.1244  0.2959  0.0173
14620W        W31468   4.245  16.036   5.447  0.1556  0.0245  0.0702
14621W        W31469  15.139  13.122  12.447  0.0496  0.1886  0.0457
14622W        W31470   5.236  11.554  12.059 -0.0893  0.0184 -0.1789
14623W        W31471   8.744   1.238  13.091 -0.0618  0.5634  0.3075
14624W        W31472   4.748  16.188  11.611 -0.0364 -0.1330  0.0918
14625W        W31473   8.423  10.442  17.072  0.1507 -0.1876  0.0739
14626W        W31474  12.657  11.787  13.646 -0.1127  0.1701 -0.0553
14627W        W31475  15.877   2.812   2.944 -0.0894  0.1005  0.1109
14628W        W31476   1.392  10.990   1.113  0.0811  0.4171 -0.1087
14629W        W31477   4.362  11.379   3.353  0.0390 -0.0597  0.2486
14630W        W31478   5.470   8.696   5.969  0.1098 -0.1052 -0.0438
14631W        W31479   4.130   7.953  13.826 -0.0284 -0.0115  0.0200
14632W        W31480   2.296   5.756  15.437  0.1083  0.0713  0.2581
14633W        W31481   1.987  16.055   1.483 -0.3728  0.1017 -0.0090
14634W        W31482   7.930   6.554  12.764 -0.0506 -0.0730 -0.0530
14635W        W31483  16.657   8.296  17.052 -0.1604 -0.0453  0.1899
14636W        W31484  10.119   6.586   3.477 -0.0543  0.0499  0.2272
14637W        W31485   7.479   0.863   1.125 -0.1370 -0.2051  0.1415
14638W        W31486  16.350   9.136   4.083 -0.2274  0.0172 -0.0493
14639W        W31487  11.463   9.295   0.112  0.1028  0.0339  0.3000
14640W        W31488  11.264   4.883  15.814  0.4013  0.1291 -0.0381
14641W        W31489  11.645   4.050  16.200 -0.2141  0.0728 -0.4301
14642W        W31490  10.978  14.678  17.426 -0.0250  0.4865 -0.0442
14643W        W31491  13.888  14.008   3.758 -0.1489  0.2586 -0.3585
14644W        W31492  10.824  11.415   1.201  0.0109 -0.0765 -0.1589
14645W        W31493  11.946   1.301  13.086 -0.0521 -0.1587 -0.1619
14646W        W31494  15.031   4.912  17.709 -0.0705  0.0237 -0.2817
14647W        W31495  14.064   2.030   4.784  0.0881 -0.4114 -0.0529
14648W        W31496   2.622  10.489   4.371 -0.1614  0.0318 -0.0990
14649W        W31497  15.072  14.541   0.547  0.0776 -0.3129  0.0361
14650W        W31498   8.111   2.305  13.178  0.2007 -0.2399  0.0788
14651W        W31499   9.017  10.799   1.661  0.1644 -0.1527  0.1396
14652W        W31500   1.255   1.383  15.142  0.0870  0.0167 -0.1773
14653W        W31501  10.068   5.984  15.698 -0.5335  0.0138  0.1011
14654W        W31502   4.722   3.622   5.612 -0.1689  0.1483  0.1867
14655W        W31503   0.880   7.812   4.340 -0.1925  0.1964 -0.1800
14656W        W31504   5.090   1.342  12.914 -0.0576 -0.0433  0.1639
14657W        W31505   6.804   6.685  15.211  0.1539 -0.1646 -0.0469
14658W        W31506  13.465   8.296   2.901 -0.0646 -0.5469  0.2264
14659W        W31507   6.260  11.950   5.332 -0.1541 -0.1020  0.1716
14660W        W31508   6.154  16.276   2.568  0.0106 -0.0252  0.0335
14661W        W31509  10.562   5.246  11.845  0.1966 -0.0697 -0.2106
14662W        W31510   8.348   9.632   4.590  0.0529  0.1823 -0.0589
14663W        W31511   1.693   5.854  14.797  0.2781 -0.0325 -0.1136
14664W        W31512   8.592   6.295   4.336  0.1641 -0.0352 -0.2637
14665W        W31513  12.779  11.030  14.219  0.0928  0.0625 -0.0524
14666W        W31514   0.562   7.476   0.298 -0.0282 -0.1001 -0.1887
14667W        W31515   5.436   9.324  14.940 -0.0264  0.0853 -0.2774
14668W        W31516   7.376  14.150   3.851 -0.1193  0.2981  0.0595
14669W        W31517   5.543   8.272   3.373  0.1488  0.0766  0.0254
14670W        W31518  15.794   8.128  17.288  0.0094  0.0182 -0.1986
14671W        W31519  13.531  16.239  12.960 -0.0712  0.2624  0.0833
14672W        W31520   2.572  16.437  12.738 -0.4042  0.2166  0.0744
14673W        W31521  16.919   7.277   1.756 -0.1395  0.0479  0.0437
14674W        W31522  15.617   4.572   5.933  0.1314  0.1446  0.0830
14675W        W31523   2.586   3.632  17.340  0.2014  0.0120 -0.0340
14676W        W31524  12.643   2.571   4.976  0.0048 -0.1184  0.1614
14677W        W31525  11.966   5.159  17.806 -0.0459  0.0336  0.2848
14678W        W31526   5.716   3.003   4.987  0.0426  0.2169  0.2905
14679W        W31527   8.643   7.444  17.121 -0.1089  0.2845 -0.0438
14680W        W31528  13.863  16.085  14.019 -0.0530  0.1577 -0.4369
14681W        W31529   8.071  14.991   3.246  0.3383 -0.0490  0.0778
14682W        W31530  16.284   9.024  16.368 -0.3180 -0.0052 -0.0253
14683W        W31531   6.922   4.269  15.154 -0.1335  0.0840 -0.0479
14684W        W31532  13.382  12.560  16.209 -0.1009  0.1070 -0.1301
14685W        W31533  13.248  14.532   0.518 -0.2636 -0.0652  0.0316
14686W        W31534   0.721   2.365   3.940 -0.0634  0.0757 -0.0561
14687W        W31535   1.562  10.043  16.888  0.2532 -0.2916  0.2163
14688W        W31536  16.804  10.823  16.365  0.3762  0.1072  0.0295
14689W        W31537   0.477  12.846  17.166  0.2157 -0.0613  0.0833
14690W        W31538   7.104  16.769  13.267 -0.0090 -0.1514  0.1932
14691W        W31539   3.736   8.731  11.524  0.0122 -0.2942 -0.2438
14692W        W31540  15.395  11.127  15.984 -0.0880 -0.0783  0.2251
14693W        W31541  15.875   1.109  13.736  0.2214 -0.0307  0.0329
14694W        W31542   1.769  10.317   1.265 -0.1384  0.2550 -0.0017
14695W        W31543   2.702  16.268   4.174 -0.1811 -0.0511  0.1152
14696W        W31544   2.260  10.999   3.294 -0.1872 -0.1773 -0.0186
14697W        W31545   0.829   0.192  13.939 -0.0727 -0.0591  0.0393
14698W        W31546  11.639   5.585  16.999 -0.0478 -0.1855 -0.0624
14699W        W31547   6.057  12.301   3.341 -0.2616 -0.0158  0.3147
14700W        W31548   1.376   7.201   3.725  0.1265  0.3048  0.0530
14701W        W31549   4.455  15.106  16.182 -0.2425 -0.0839 -0.2230
14702W        W31550   8.464  14.204   2.337  0.1673 -0.1300  0.1235
14703W        W31551   8.477   9.794  13.853  0.1190 -0.0706  0.0970
14704W        W31552   8.030  10.975  14.000  0.0788 -0.0599  0.0646
14705W        W31553   7.437   8.911  13.628  0.1292 -0.0720  0.2704
14706W        W31554   5.938   1.340  12.666 -0.1051  0.1480 -0.3379
14707W        W31555   4.787  11.281  15.198  0.1104 -0.0115 -0.0089
14708W        W31556  14.582   1.488  16.083 -0.1612  0.0460 -0.2246
14709W        W31557   3.501  16.799  15.750  0.1957  0.1437  0.0234
14710W        W31558   7.193   9.875   2.147 -0.1044 -0.0575  0.2574
14711W        W31559  11.077   9.754  15.264  0.0504  0.1973 -0.0538
14712W        W31560   1.452   1.325   6.410  0.2143 -0.0292 -0.2381
14713W        W31561   4.018   6.003   2.970 -0.0217  0.0091 -0.1622
14714W        W31562  12.093  12.185   5.102  0.3658 -0.0933  0.2751
14715W        W31563   4.561   4.900  15.059 -0.0835  0.2141  0.2668
14716W        W31564   9.547  16.808   1.310  0.0188 -0.1746 -0.0308
14717W        W31565  13.526  14.166   2.841  0.2588 -0.2488  0.1748
14718W        W31566   6.416  14.214  12.667 -0.0220 -0.0136 -0.1310
14719W        W31567   8.175  17.017  14.468 -0.0387  0.2156  0.1048
14720W        W31568   7.525  17.011  17.729 -0.2089 -0.0426  0.1119
14721W        W31569  10.486  16.047  17.734 -0.0402  0.1204  0.1394
14722W        W31570  12.012   6.378  17.450  0.0839 -0.0487  0.2763
14723W        W31571   4.815   7.414  14.432 -0.2300  0.0135 -0.0142
14724W        W31572   4.715   8.342   2.282  0.2026  0.2342  0.0644
14725W        W31573   4.904  15.007   4.059  0.1528  0.0424 -0.2355
14726W        W31574   4.844  12.907  13.823 -0.1161  0.1510  0.1076
14727W        W31575   4.657  15.804   4.634 -0.2267  0.2305 -0.0940
14728W        W31576  14.910   8.281  17.172  0.2112 -0.1517  0.1242
14729W        W31577   2.426  12.723   1.206 -0.0225  0.3210  0.3201
14730W        W31578  11.950   9.927   4.100 -0.2586  0.0978  0.1214
14731W        W31579  15.704   3.763   4.299  0.3406 -0.1598  0.0639
14732W        W31580   4.409   9.958  12.656  0.0210 -0.1694 -0.0853
14733W        W31581   0.372  14.156   0.662 -0.1156 -0.1880  0.2068
14734W        W31582  10.306  14.957  15.974  0.1134  0.0423  0.1310
14735W        W31583  13.798  14.609   0.992  0.0150  0.2279 -0.1126
14736W        W31584   2.027   2.706   2.172 -0.0091 -0.0345 -0.4979
14737W        W31585  15.884   6.464  14.599 -0.1093 -0.1433  0.0168
14738W        W31586   7.672  12.015   5.233 -0.3158 -0.0875 -0.0266
14739W        W31587  17.000   7.539  16.956  0.0979 -0.1307  0.0418
14740W        W31588  14.914   0.049   1.806 -0.3402  0.0407 -0.1083
14741W        W31589   4.986   0.793   5.396 -0.0107  0.1268 -0.1763
14742W        W31590   6.855   0.046  12.024 -0.4108 -0.0704 -0.1676
14743W        W31591  12.380   9.751   5.713  0.2056  0.0368  0.1360
14744W        W31592  12.367   3.600  13.324  0.0086  0.1718 -0.0036
14745W        W31593  13.210   3.456  12.400 -0.1537 -0.1820 -0.0824
14746W        W31594   2.429  10.362   2.524  0.0038 -0.0288 -0.1404
14747W        W31595   0.881   1.557  17.001 -0.1860  0.2136 -0.1205
14748W        W31596  12.250  16.480  17.522  0.2476  0.0105 -0.1176
14749W        W31597   5.542   5.930  12.129 -0.1438  0.3553 -0.2605
14750W        W31598   2.064  16.313   3.286  0.1261 -0.0246 -0.0729
14751W        W31599   8.916   1.208   0.373 -0.2167 -0.1258 -0.0228
14752W        W31600   3.359   7.259  14.703  0.2920 -0.0288 -0.1813
14753W        W31601  12.690  12.157  11.258 -0.0068  0.0927 -0.0133
14754W        W31602   6.893   5.755  15.529 -0.0261  0.2337  0.1819
14755W        W31603   9.612   3.883  12.211 -0.1311  0.2615  0.0727
14756W        W31604   9.251  11.690   0.102 -0.0487 -0.2441  0.1685
14757W        W31605   5.839   2.817   1.321 -0.1799 -0.2529  0.3441
14758W        W31606  13.751  12.723   1.222 -0.1163 -0.1350  0.3142
14759W        W31607  12.458   4.921  12.349 -0.0789  0.3035 -0.3117
14760W        W31608   2.217   9.234  15.736  0.1619 -0.0204 -0.4244
14761W        W31609   8.049   9.163   4.454  0.0456  0.1502 -0.2695
14762W        W31610  13.003   1.771  15.661 -0.3387 -0.0022 -0.0785
14763W        W31611   7.903   0.806   5.871  0.2086  0.0070 -0.0250
14764W        W31612   0.735   3.218  12.913 -0.0738 -0.0015 -0.2018
14765W        W31613   6.751   0.399  14.149 -0.1265  0.0133 -0.1239
14766W        W31614  14.426   0.158   0.111 -0.0630  0.2787 -0.1313
14767W        W31615   1.210   5.528   5.569  0.1046  0.0249  0.0305
14768W        W31616   1.364   8.111   3.070  0.1902 -0.0041  0.2566
14769W        W31617   8.217   9.271  16.837  0.0012 -0.0919 -0.0528
14770W        W31618   6.690  15.465   1.560 -0.0726 -0.3199  0.0070
14771W        W31619  10.435   0.299  12.677  0.2555 -0.2422 -0.1196
14772W        W31620   7.471   5.710  12.961 -0.1014 -0.0767 -0.1715
14773W        W31621   2.511   2.440  14.511 -0.0135 -0.0206 -0.0391
14774W        W31622  13.213  16.180   3.316 -0.1041  0.0747  0.0049
14775W        W31623   2.077  14.270  13.262  0.0819  0.1068 -0.1426
14776W        W31624  12.299   3.907   3.313  0.0231  0.0981 -0.1552
14777W        W31625   3.743   7.863   3.689  0.0759 -0.2516 -0.1166
14778W        W31626  10.027   9.780   1.003 -0.2146 -0.1818  0.0309
14779W        W31627   8.793   3.025  12.407  0.0944 -0.1089 -0.1477
14780W        W31628  15.331  15.129  17.354 -0.0506 -0.0653 -0.3191
14781W        W31629   7.480   6.784  15.507 -0.0525  0.1730  0.1482
14782W        W31630   9.603   8.510   3.914  0.0933 -0.2408  0.1980
14783W        W31631  10.567   5.974   4.257  0.5790  0.0030  0.1049
14784W        W31632  11.533  12.347  14.298  0.0810  0.1247 -0.1499
14785W        W31633   4.615   8.612  13.511  0.1093 -0.3406 -0.0911
14786W        W31634  11.769   5.161  17.162 -0.2252 -0.0632 -0.2151
14787W        W31635  13.206   3.969   2.906  0.3517  0.0114  0.0148
14788W        W31636  12.479  11.549   4.267 -0.2123 -0.0641  0.2423
14789W        W31637  16.388   4.861   0.756 -0.0151  0.3022 -0.2591
14790W        W31638   6.583  11.871  15.191  0.0952 -0.2084  0.1740
14791W        W31639   0.575  16.922  16.473  0.1140  0.1888  0.0265
14792W        W31640  16.514   3.012  15.133 -0.2255 -0.2910 -0.0076
14793W        W31641  12.531   9.309   6.070 -0.1733 -0.1098 -0.1914
14794W        W31642   8.182   7.955  13.349 -0.5339  0.0002  0.0232
14795W        W31643  10.030   3.264  14.932 -0.1004  0.0304  0.1777
14796W        W31644   3.370  15.635  14.802  0.1066  0.0075  0.0908
14797W        W31645   3.132  15.651  16.190  0.0411 -0.0857  0.0088
14798W        W31646  14.955   9.000   4.898 -0.0020 -0.1758  0.0075
14799W        W31647  15.737   5.590  15.774 -0.0062 -0.0804  0.3102
14800W        W31648   4.023  12.025  16.184 -0.1494  0.0712  0.2041
14801W        W31649  14.863   4.885   1.489  0.0145 -0.0638 -0.2788
14802W        W31650  11.268   3.602  17.100  0.1084  0.2007  0.2189
14803W        W31651   8.067  13.469   5.294 -0.0311  0.0206  0.0668
14804W        W31652  16.297   0.171   3.448  0.0864 -0.1131 -0.0549
14805W        W31653  11.018   9.628   1.285 -0.0982  0.2911  0.0094
14806W        W31654   8.952   4.745   5.440  0.1483  0.0613  0.1787
14807W        W31655   4.863  14.028  16.642 -0.1448 -0.3074 -0.1549
14808W        W31656   2.388   6.245  16.572 -0.2535  0.2484  0.0612
14809W        W31657   0.654  16.191   3.052  0.0146  0.0210 -0.0262
14810W        W31658  12.954  11.296  16.436  0.1201 -0.1308  0.2178
14811W        W31659   4.450   8.935  15.381  0.1483 -0.0246  0.1484
14812W        W31660   4.937   7.713   3.603  0.2464  0.0143 -0.0068
14813W        W31661   2.745   8.816   4.848 -0.1147 -0.3525  0.0498
14814W        W31662  12.578   0.170  12.642  0.0662  0.0691  0.0300
14815W        W31663  10.258   2.713   4.569  0.0291  0.0033 -0.0651
14816W        W31664  15.938  11.765   5.926  0.0017  0.4597 -0.0278
14817W        W31665   1.031   8.263   2.697  0.3714 -0.0207 -0.1349
14818W        W31666  11.769   1.035  14.272 -0.1640  0.3101  0.1609
14819W        W31667  10.207  11.173   1.766 -0.0413 -0.5477 -0.1558
14820W        W31668   8.233   2.389  12.097  0.1714 -0.0730 -0.2552
14821W        W31669  13.705  11.073  12.730  0.0864 -0.0659  0.1600
14822W        W31670  17.001  14.596   1.685 -0.1314  0.0379 -0.2199
14823W        W31671   8.016   9.533   0.046 -0.0145 -0.0721 -0.0088
14824W        W31672   8.426   2.830  12.133 -0.0972 -0.1420 -0.1174
14825W        W31673   9.492  15.076   0.616 -0.0746  0.0093  0.1093
14826W        W31674  15.466  12.645   1.618  0.0472 -0.0145 -0.1219
14827W        W31675   2.106   1.005  16.191 -0.0935  0.0866 -0.3788
14828W        W31676  15.816   5.369  17.524  0.1361  0.0436 -0.2126
14829W        W31677   1.030  14.520   1.515  0.0791 -0.3297  0.2341
14830W        W31678  14.155   5.269   4.116  0.2066 -0.0010 -0.1268
14831W        W31679  14.225   5.044  16.592  0.4132  0.2166  0.0040
14832W        W31680   0.785   0.969  12.828  0.0759 -0.3451  0.4033
14833W        W31681   3.239   2.564  17.440  0.0771 -0.0036  0.1255
14834W        W31682   0.900  12.574  13.375 -0.0468 -0.1538 -0.0311
14835W        W31683   9.654   9.096  14.244  0.2728 -0.2806 -0.1506
14836W        W31684  14.901   5.417  17.494 -0.0709  0.4017  0.0085
14837W        W31685   3.606  16.924  14.184 -0.0357  0.3890  0.1277
14838W        W31686  12.928  16.705  16.219 -0.4146  0.2116  0.0471
14839W        W31687   6.212   6.333  12.635  0.1817 -0.0317 -0.1747
14840W        W31688  16.201   8.656   0.493  0.1617 -0.0129 -0.0866
14841W        W31689   0.210   1.621  13.962 -0.0110  0.2000  0.0307
14842W        W31690  15.467  16.218   5.211  0.0547 -0.1100  0.1184
14843W        W31691   8.677  13.036   4.106  0.2361 -0.2158  0.1527
14844W        W31692   8.588  10.194   2.064 -0.1711  0.3446 -0.0372
14845W        W31693   5.400  10.435   2.709  0.1647  0.1378  0.0535
14846W        W31694  15.921  15.882  16.272 -0.1129  0.0656 -0.1324
14847W        W31695   1.068  14.902  11.736 -0.1447  0.0972  0.1061
14848W        W31696   7.680   9.791   2.057 -0.1342  0.0053  0.1491
14849W        W31697  11.822   2.244   2.092  0.0403 -0.0811 -0.1722
14850W        W31698   5.587  14.563   5.036  0.1993  0.2257 -0.0061
14851W        W31699   9.788   2.954  13.925  0.1950 -0.2792 -0.0579
14852W        W31700  10.226  11.666   0.041  0.2065  0.0058  0.1717
14853W        W31701  11.063   6.008  15.353  0.1604  0.2452 -0.0665
14854W        W31702   3.114  10.277  17.314 -0.3223 -0.2203 -0.0380
14855W        W31703  16.428  16.211   1.318 -0.0789  0.0344 -0.1613
14856W        W31704   7.551   7.711  16.182 -0.3658 -0.3326 -0.0709
14857W        W31705  16.744  16.202   4.103  0.0173  0.2840  0.1265
14858W        W31706   6.242  12.276   3.804  0.3468 -0.2210  0.2366
14859W        W31707  13.163   2.037  13.767 -0.2226  0.0245 -0.0721
14860W        W31708  15.480  11.122  16.506 -0.0313 -0.3504 -0.3629
14861W        W31709  16.782  14.999   0.770 -0.1287  0.0778 -0.0666
14862W        W31710  11.031   4.088  14.516  0.0589  0.0463 -0.0762
14863W        W31711  16.051  16.660  13.488  0.0959 -0.0665  0.0178
14864W        W31712  14.220   7.769   0.854  0.2029 -0.0645 -0.1280
14865W        W31713   3.138  11.336   0.647 -0.1997  0.1545 -0.3470
14866W        W31714   6.402   3.695  14.167  0.0223  0.0424 -0.0927
14867W        W31715  12.328   3.123  14.988  0.0302  0.1868  0.2382
14868W        W31716   0.013   8.200   4.581  0.2005 -0.0676 -0.0467
14869W        W31717   3.621   3.032  12.643 -0.0115 -0.2021  0.1028
14870W        W31718  16.721   0.239   2.569 -0.1059  0.0828 -0.0887
14871W        W31719  16.482   3.506  17.602 -0.1062 -0.1101  0.0766
14872W        W31720   8.666   9.439   0.856 -0.1109  0.0231 -0.0864
14873W        W31721   9.113   0.103   5.585  0.2172 -0.0773  0.2189
14874W        W31722   4.048   4.780  15.954  0.0885  0.0658 -0.2988
14875W        W31723  10.500  13.385   6.252 -0.2441 -0.0384 -0.0355
14876W        W31724   0.248   1.201   0.553  0.1625  0.0896 -0.0483
14877W        W31725   7.763  16.172   0.227 -0.0520 -0.1214  0.0383
14878W        W31726   8.364   0.559   0.170 -0.0440 -0.0990 -0.2342
14879W        W31727   3.303   9.376   2.772  0.0919  0.1448  0.1206
14880W        W31728  10.736  10.216   3.793  0.4598 -0.1029  0.0250
14881W        W31729   2.159   2.337   2.477 -0.0053 -0.1428 -0.0652
14882W        W31730  10.674  13.517  13.041 -0.0230  0.0447 -0.1024
14883W        W31731   7.473   5.362   5.610 -0.0907  0.1531  0.1990
14884W        W31732   0.529   4.033  15.249 -0.0764 -0.3688 -0.2254
14885W        W31733  11.392   5.861   4.300 -0.0407 -0.1586  0.2340
14886W        W31734  10.634   5.488   4.417 -0.1094  0.0307 -0.1253
14887W        W31735   2.650   4.113   5.890  0.0381 -0.1592  0.0537
14888W        W31736   1.358   0.706   5.330  0.1101 -0.3071 -0.0890
14889W        W31737  16.561   2.443  12.652  0.2284  0.2484  0.1055
14890W        W31738   9.003   4.440  16.367 -0.0312 -0.1028 -0.0271
14891W        W31739  13.151   0.499  12.646 -0.1078  0.0904 -0.2341
14892W        W31740   7.266  16.544   2.430 -0.0137  0.2739 -0.0600
14893W        W31741  11.898   5.655  15.716 -0.0362  0.5136 -0.0605
14894W        W31742   7.973  12.931  12.424 -0.0154 -0.0577 -0.0022
14895W        W31743   5.115   2.948  16.169  0.2964 -0.2765 -0.0815
14896W        W31744   6.292  16.681  13.867  0.1201  0.0752  0.0426
14897W        W31745   4.095  15.436   1.852 -0.0564  0.0608  0.0189
14898W        W31746   5.729  12.041   1.668  0.0214  0.0751  0.2406
14899W        W31747   2.128  12.332   4.541 -0.0755 -0.0490  0.1594
14900W        W31748  12.886   4.281  14.322 -0.2185  0.2211  0.1432
14901W        W31749  10.651   0.815  16.323  0.2663 -0.1723 -0.0206
14902W        W31750   1.268   7.627   1.210  0.0004 -0.0832 -0.0410
14903W        W31751   7.076  15.348   4.142  0.0524  0.0928  0.1314
14904W        W31752   3.277   0.152   3.071 -0.0225  0.2485 -0.0646
14905W        W31753   1.430   7.416   0.276  0.0623 -0.0807 -0.2971
14906W        W31754  14.894   1.452  16.485  0.1819  0.0784 -0.0910
14907W        W31755   4.184  15.605  13.728 -0.1371  0.1075 -0.0919
14908W        W31756   1.264   4.889   1.885 -0.0564  0.0775 -0.0638
14909W        W31757   3.815  10.553  16.099 -0.1216  0.0281  0.2134
14910W        W31758  16.683   5.699  13.877 -0.3149 -0.0013  0.1715
14911W        W31759   9.383   3.456  17.738  0.1150 -0.0726 -0.0912
14912W        W31760  10.887   1.342  13.978  0.1340  0.1463  0.2250
14913W        W31761   2.890   9.833  14.370 -0.0054  0.3830 -0.0442
14914W        W31762  11.614   7.165   4.989  0.3483 -0.1370 -0.4503
14915W        W31763   4.578   7.142  15.268  0.2294  0.1555  0.2252
14916W        W31764   6.528   3.952   1.869  0.3956  0.0147 -0.0315
14917W        W31765   0.237   5.222   4.959 -0.2190  0.1065 -0.0344
14918W        W31766  14.896   5.612  17.031  0.0777 -0.0091 -0.1551
14919W        W31767   8.915  16.294  17.150  0.2795  0.1090 -0.2401
14920W        W31768   1.566   0.421   3.746 -0.1306  0.2494  0.3026
14921W        W31769   4.237   0.768   0.140  0.0275  0.0022  0.0274
14922W        W31770   8.680  16.893   2.458 -0.0773  0.0889  0.0980
14923W        W31771  15.218   4.119   4.466  0.1005  0.0724  0.0913
14924W        W31772   5.179  13.588  16.667 -0.0504 -0.3044 -0.0345
14925W        W31773   3.276  12.538   3.101  0.0954  0.0394 -0.1088
14926W        W31774   7.252  11.793  17.658 -0.4131  0.1580 -0.1252
14927W        W31775   2.247  16.669  11.917  0.2266 -0.0956  0.2000
14928W        W31776   5.585  14.580  11.310  0.3806 -0.0178  0.0322
14929W        W31777   2.561  13.578  16.318  0.0944 -0.1844 -0.2538
14930W        W31778   7.269   6.800   2.066  0.0216 -0.1914 -0.1290
14931W        W31779   8.781   1.274  14.214  0.1119  0.2636  0.2656
14932W        W31780   5.151  13.240   0.795 -0.2983  0.1219 -0.2352
14933W        W31781   3.060   8.167   0.819 -0.1682  0.2429  0.2452
14934W        W31782  11.189   1.365   2.560 -0.0306  0.0879 -0.1776
14935W        W31783  12.942  16.139   2.914  0.3061  0.2065 -0.1939
14936W        W31784  15.340   8.826   0.996  0.0527 -0.2813  0.0385
14937W        W31785  14.871  16.329  14.398  0.0267 -0.0152  0.0112
14938W        W31786   5.760  16.818  16.348 -0.1288 -0.1929 -0.0078
14939W        W31787  12.074   8.033  16.072 -0.0581 -0.0677  0.2002
14940W        W31788   7.567   3.752  15.364  0.1642 -0.2685  0.1066
14941W        W31789  13.470   8.459   0.445  0.3109  0.0626 -0.1255
14942W        W31790  11.060  10.480  16.006 -0.0481  0.1003 -0.0787
14943W        W31791  13.735   2.491  17.226  0.2048  0.2308  0.0955
14944W        W31792   5.086  10.512   5.411 -0.1410  0.1734  0.2226
14945W        W31793   6.074   0.445   3.247 -0.0511  0.0674 -0.0594
14946W        W31794  14.064   2.772   3.267 -0.0017  0.0237 -0.2959
14947W        W31795   3.310  12.413  17.740  0.3619  0.1032  0.2717
14948W        W31796  13.991  17.044   1.754 -0.1822 -0.2084 -0.1073
14949W        W31797   5.637  16.132   1.245  0.0534  0.1895 -0.0786
14950W        W31798  10.842   3.382   3.603  0.0337  0.0571 -0.0308
14951W        W31799   1.207  13.930   3.696 -0.1198 -0.0630 -0.2814
14952W        W31800   0.448  13.907  12.352 -0.1891  0.2537  0.5041
14953W        W31801  16.890   4.424   0.957  0.1076  0.1119  0.0013
14954W        W31802   1.906   9.938   3.166  0.1174  0.0535  0.0633
14955W        W31803  16.334   3.396   5.672 -0.2377 -0.2389 -0.0571
14956W        W31804  13.533  11.104  15.201  0.1191 -0.1097 -0.1341
14957W        W31805  15.415   4.772  15.908  0.1684  0.0848 -0.1025
14958W        W31806  10.544   3.092   2.293  0.1278 -0.2042  0.0079
14959W        W31807  15.989  16.552   3.067 -0.0617  0.0171  0.0708
14960W        W31808   4.489   4.314  17.666 -0.2559 -0.0389  0.1755
14961W        W31809   7.225   0.654   2.086 -0.0291  0.0323  0.2187
14962W        W31810   9.107   4.245   5.292  0.3902 -0.0585  0.1335
14963W        W31811   6.734   5.030   5.754 -0.2642  0.2970  0.3297
14964W        W31812  12.971  13.623  14.607  0.3501 -0.0102 -0.0350
14965W        W31813  16.236   3.178   4.553 -0.1246  0.0039 -0.0205
14966W        W31814  15.462  14.432   1.864  0.0496 -0.2018 -0.0740
14967W        W31815  15.548  14.952  14.291 -0.0542 -0.2219  0.1386
14968W        W31816   7.324   5.201  12.776  0.2474  0.2246 -0.0896
14969W        W31817   0.722  16.075  17.426  0.0021  0.0056 -0.1825
14970W        W31818   4.985   4.005  12.763 -0.0491 -0.2940 -0.0650
14971W        W31819   7.071   6.420  13.306  0.0777  0.0092 -0.0619
14972W        W31820   7.328   3.240  15.998 -0.1434 -0.0917  0.2212
14973W        W31821  10.163   5.591   5.520 -0.1107  0.1405  0.0027
14974W        W31822   4.148   6.222  13.826 -0.0003  0.1698 -0.2432
14975W        W31823  14.760   7.940   3.025 -0.1370  0.2816 -0.0354
14976W        W31824  11.829   0.316  16.208 -0.0125 -0.0538 -0.1494
14977W        W31825   5.117   5.396  12.933  0.2328 -0.2387 -0.4323
14978W        W31826  13.975   3.146  12.990 -0.0868 -0.0081 -0.2966
14979W        W31827   2.596  10.131   0.164  0.3254  0.3058 -0.2997
14980W        W31828   2.597   6.789   1.955  0.0393 -0.4888 -0.2176
14981W        W31829  15.397  11.549  13.424 -0.0817 -0.2151 -0.1299
14982W        W31830  11.096   0.944  14.267  0.1209 -0.0203 -0.3388
14983W        W31831  15.045   1.607  13.454 -0.0083 -0.0271  0.1443
14984W        W31832  14.428   9.557  15.044  0.1028 -0.0422 -0.0655
14985W        W31833   4.109  16.961  16.268  0.2802  0.0675 -0.1174
14986W        W31834  11.654  14.435  17.464  0.4082  0.3417 -0.1748
14987W        W31835   5.647   8.952  13.153 -0.1059 -0.0172 -0.0246
14988W        W31836   0.572   0.574   3.761 -0.1670 -0.4695 -0.0484
14989W        W31837  16.598   2.451  12.155 -0.1313 -0.0482  0.2217
14990W        W31838   2.948  16.386   0.095  0.2496  0.3331  0.0055
14991W        W31839   2.677   1.702  16.407 -0.0550  0.2772  0.0648
14992W        W31840   0.263  10.839  17.741  0.0301 -0.0986  0.1519
14993W        W31841  10.890  10.665  15.321  0.0350 -0.0074 -0.0786
14994W        W31842   8.943  14.294   2.316  0.1980 -0.0305  0.2870
14995W        W31843  15.436   0.868   5.198 -0.2467  0.0713  0.0410
14996W        W31844  11.295   0.794  12.148  0.1354  0.2165  0.2761
14997W        W31845  14.243  13.799   0.111 -0.0380  0.0886  0.0432
14998W        W31846   5.498  15.560   2.997  0.1433 -0.1104 -0.0064
14999W        W31847   0.887  15.067   4.067  0.0850  0.2488  0.0602
15000W        W31848  16.875   5.397  12.650  0.1146 -0.1316 -0.3750
15001W        W31849  15.905   1.284   2.434 -0.1386 -0.2349 -0.0011
15002W        W31850  12.061   2.067  16.829 -0.1984 -0.0150 -0.0447
15003W        W31851   0.976   2.504   2.409 -0.1869  0.2440  0.1197
15004W        W31852  15.505  13.193  13.878  0.0673  0.2598 -0.1078
15005W        W31853   8.968   0.304  17.046  0.3137 -0.2561  0.2745
15006W        W31854   2.219  12.378  15.479  0.2592  0.1213 -0.3573
15007W        W31855  12.704   3.906  14.879 -0.0396 -0.4633  0.1230
15008W        W31856  12.350   1.618   1.578  0.1013  0.1188  0.0404
15009W        W31857   9.065   3.788  16.120  0.3181  0.1330 -0.3473
15010W        W31858  16.984  12.690  15.224  0.0238  0.0724  0.1013
15011W        W31859  15.292   0.830  16.214 -0.0891 -0.1958 -0.0113
15012W        W31860  14.317  12.234   5.640  0.3849  0.3911  0.0998
15013W        W31861  10.277   6.386  15.764 -0.2529 -0.3615 -0.0498
15014W        W31862  11.313   1.763  12.428  0.3767  0.0503 -0.0666
15015W        W31863  11.701  14.699  13.760 -0.0998 -0.1095  0.0069
15016W        W31864  11.353   2.350  13.690  0.3701 -0.0057  0.0291
15017W        W31865   4.371   2.952  14.275  0.1452 -0.1218  0.1906
15018W        W31866   4.470   5.185  16.071  0.1892 -0.2404 -0.2241
15019W        W31867   3.212  13.362   2.237  0.0303 -0.0424  0.0632
15020W        W31868   8.318   4.418   1.563 -0.0231 -0.1888  0.1372
15021W        W31869  16.849   5.473   5.724  0.1541  0.0032 -0.1877
15022W        W31870   4.064  13.718  16.405 -0.2133 -0.1065 -0.1438
15023W        W31871  15.328   4.923   5.715  0.1025 -0.3116  0.0554
15024W        W31872   7.255   1.748   5.130 -0.1853  0.0895 -0.0067
15025W        W31873   3.405  11.342   4.469 -0.2096  0.4692  0.1629
15026W        W31874  15.472  14.113  16.755  0.0996  0.1503 -0.1539
15027W        W31875  15.025   4.896  12.293 -0.1701 -0.0391 -0.2442
15028W        W31876   6.945   8.378  13.986  0.0638 -0.1252  0.1346
15029W        W31877   4.869  12.374  15.237 -0.0668 -0.0203 -0.0661
15030W        W31878  16.685   7.889   5.849 -0.3150 -0.2260 -0.2332
15031W        W31879   7.333   4.466  14.224 -0.1261 -0.0349  0.3169
15032W        W31880   0.908  11.025   3.332  0.3820 -0.2501 -0.2244
15033W        W31881  10.378   3.159   5.674 -0.0814 -0.2960 -0.1316
15034W        W31882  11.932  15.579   2.945 -0.2694 -0.0563  0.0823
15035W        W31883   9.636   0.494   4.809 -0.1973 -0.1270 -0.1176
15036W        W31884  12.094   3.751  14.165  0.2581 -0.0460 -0.1585
15037W        W31885   8.612   9.324  14.119  0.0685 -0.0613  0.1208
15038W        W31886  16.710  15.080  13.261  0.1406  0.0498  0.0523
15039W        W31887  14.955   1.160   1.043 -0.1443 -0.0053 -0.0722
15040W        W31888  12.934  14.800   3.334  0.0217 -0.2647  0.1703
15041W        W31889   0.807  13.246  16.963 -0.0403 -0.0926  0.1097
15042W        W31890   6.677  16.431  17.592 -0.0882  0.1864  0.0641
15043W        W31891  10.906   8.211  12.624  0.1860  0.0355  0.1149
15044W        W31892  11.482   4.298  15.689 -0.3596 -0.0460  0.1428
15045W        W31893   7.866   2.340  15.920 -0.1500 -0.1596  0.0629
15046W        W31894  12.419   4.450  12.023  0.1039  0.1870  0.0565
15047W        W31895   6.500  16.375   0.643  0.3149 -0.0362 -0.1355
15048W        W31896  13.519  10.086  15.657 -0.2386  0.1033 -0.2054
15049W        W31897  13.603   5.355  12.746  0.2796  0.2087  0.2477
15050W        W31898  15.131  13.951   4.385  0.1495 -0.2159 -0.0373
15051W        W31899  10.455  11.791   3.417  0.0599  0.2141 -0.3917
15052W        W31900   4.861   3.200  14.458 -0.3915 -0.0358 -0.0872
15053W        W31901   4.529   8.678  12.677 -0.0798  0.1020 -0.0479
15054W        W31902  15.936   9.761  14.161  0.1239  0.0611  0.1157
15055W        W31903   7.843   2.038   2.914 -0.0017  0.0126 -0.0593
15056W        W31904  10.620   2.641   3.420 -0.3471  0.0904  0.2427
15057W        W31905  16.112  13.051  12.092 -0.1908 -0.1282 -0.1830
15058W        W31906  13.810  12.682  13.862  0.2525  0.0673  0.3224
15059W        W31907  10.638  11.901  16.000 -0.1115  0.4534  0.0697
15060W        W31908  15.827  12.846  14.159 -0.0028 -0.0125  0.0638
15061W        W31909   8.251   5.351  12.260 -0.0914  0.1093 -0.1678
15062W        W31910   1.176   4.709   1.128 -0.0138 -0.2734  0.1396
15063W        W31911   8.164  13.327   1.984 -0.0911  0.1528  0.2118
15064W        W31912  16.586   4.637   4.669 -0.0500  0.1923 -0.3645
15065W        W31913  16.413   1.332   4.145  0.0976 -0.1491  0.3525
15066W        W31914  13.427   7.968   1.927 -0.0463 -0.0571 -0.0202
15067W        W31915   0.030   4.233   6.145  0.1407  0.2117  0.0397
15068W        W31916   9.779  12.459   5.704  0.0579  0.0272  0.3028
15069W        W31917   1.315   5.322   1.663  0.1799  0.0409 -0.1698
15070W        W31918  11.102  16.200  15.990 -0.0731  0.1463 -0.3109
15071W        W31919  10.357  15.265  16.384  0.0269 -0.1134 -0.2380
15072W        W31920   3.456   2.206  16.105  0.1263  0.2847 -0.0652
15073W        W31921  12.450  14.636   2.397 -0.0196  0.2065  0.3045
15074W        W31922   0.778  16.741   2.929  0.1100 -0.0399 -0.1168
15075W        W31923  15.478  14.654   4.472  0.1408  0.2652  0.3627
15076W        W31924  14.946   5.410  14.794 -0.3682  0.1215 -0.1938
15077W        W31925  16.806   7.689  15.433 -0.3059  0.2118 -0.2931
15078W        W31926   7.557  13.252   1.976 -0.1792  0.1050  0.3079
15079W        W31927   5.412   4.382  12.404 -0.2638  0.0598  0.2402
15080W        W31928   8.440  11.681   1.801  0.1226  0.0737  0.1282
15081W        W31929   5.879   8.954  17.271 -0.1687  0.2479 -0.0070
15082W        W31930   5.170  11.017  16.657 -0.0724  0.0127  0.0530
15083W        W31931  12.386   3.368  14.259  0.0310 -0.1531 -0.0831
15084W        W31932  12.487   9.950  15.953  0.3278  0.0476  0.0634
15085W        W31933  15.985  15.350  15.671  0.2606 -0.3005  0.1534
15086W        W31934   9.361   2.911  17.112 -0.3092  0.4147  0.3139
15087W        W31935   4.918  13.003  12.540 -0.0971 -0.1758 -0.1355
15088W        W31936  16.148   6.943  15.363  0.5835 -0.0533 -0.2227
15089W        W31937   3.903   8.142  16.886 -0.0809 -0.1620 -0.0048
15090W        W31938  13.877   7.701  13.807 -0.0379 -0.3038 -0.1138
15091W        W31939   2.254  12.187  16.064 -0.1878 -0.2994  0.2715
15092W        W31940   1.838  16.638  11.622  0.2129  0.0706 -0.1933
15093W        W31941  16.426   8.717   3.604 -0.0167  0.1077 -0.1827
15094W        W31942   6.817  13.090  16.492  0.1586 -0.0752 -0.0474
15095W        W31943  16.733   1.700   2.821  0.0972 -0.0943 -0.0711
15096W        W31944  10.033   8.752   0.944 -0.2074 -0.1642  0.4082
15097W        W31945   9.668   5.852   0.420 -0.0414  0.3237 -0.2718
15098W        W31946  15.250  16.786  15.506 -0.1164  0.1105  0.1965
15099W        W31947  13.962   6.470  15.331  0.2535 -0.0478  0.3701
15100W        W31948   1.773   9.286   2.511 -0.0596  0.0176  0.0143
15101W        W31949  15.545  13.933  14.101  0.1654 -0.0058  0.0522
15102W        W31950  11.128  14.570   0.406  0.3199 -0.1870  0.2462
15103W        W31951   7.178   7.279   3.427  0.1955 -0.6186  0.0522
15104W        W31952   9.794   9.377   2.289 -0.0296  0.0932  0.1491
15105W        W31953   7.900   0.133  15.876 -0.0724  0.0616 -0.0604
15106W        W31954  12.714  10.771  13.422 -0.3646 -0.1840 -0.0041
15107W        W31955   5.471   2.972  12.464  0.1450 -0.2435 -0.0269
15108W        W31956  11.025  11.550   1.945 -0.1203 -0.1934  0.2370
15109W        W31957  16.072  10.927   1.637  0.0699  0.1276  0.2415
15110W        W31958   8.637   8.243  14.724 -0.1854  0.1270  0.2421
15111W        W31959  16.430   3.800  12.711 -0.1345  0.0351 -0.0550
15112W        W31960   8.010  11.170   1.038 -0.0264 -0.4347 -0.1167
15113W        W31961  16.406  10.581   3.436  0.1044  0.2661  0.1449
15114W        W31962   1.344  10.091   5.405 -0.2477  0.1443  0.0154
15115W        W31963   6.766   2.032  17.288 -0.1218  0.0726  0.2869
15116W        W31964  16.390   7.383  16.804  0.1265  0.1431 -0.1604
15117W        W31965   4.486   2.585  16.269  0.0429 -0.2108 -0.2824
15118W        W31966   5.785  11.144   2.247  0.0568  0.0713 -0.1818
15119W        W31967   6.713   2.008   2.695 -0.0505 -0.2638  0.0316
15120W        W31968  14.005  14.057   4.809 -0.1179  0.1954 -0.0899
15121W        W31969   0.078  14.770   3.695 -0.1106 -0.2296 -0.1243
15122W        W31970   4.738   8.414  15.523 -0.1631 -0.0514 -0.1379
15123W        W31971  12.456  14.393  12.525  0.0123  0.1901 -0.0170
15124W        W31972  13.719  10.953   5.525  0.2049  0.0896  0.1258
15125W        W31973  14.656   1.382  14.168  0.2628 -0.3994 -0.2505
15126W        W31974  11.182   1.034   4.530 -0.2298  0.0031  0.0456
15127W        W31975   7.654  13.053  17.537 -0.0710  0.0329  0.0783
15128W        W31976   2.815   1.488  15.000  0.0207  0.2729  0.1463
15129W        W31977  15.103   7.427  13.314 -0.1735 -0.0544 -0.0208
15130W        W31978   4.784  12.039   1.639 -0.1154  0.0546  0.0537
15131W        W31979   9.333  15.336  13.363 -0.1764 -0.2542 -0.1152
15132W        W31980   6.988  12.213   2.137  0.5104 -0.3447  0.1726
15133W        W31981   2.213   1.570  13.225  0.1428  0.1202  0.2298
15134W        W31982  15.411   1.357  11.878  0.0705  0.0582 -0.2169
15135W        W31983   6.852  16.166  15.038  0.0296  0.2041 -0.0054
15136W        W31984   1.227   2.937   0.666 -0.1243  0.3000 -0.0778
15137W        W31985   6.708   1.753   5.036  0.1439 -0.0184 -0.0167
15138W        W31986   6.234   1.708  12.418 -0.0067 -0.4179 -0.3029
15139W        W31987  15.857   6.513  15.171  0.0836 -0.3328 -0.1259
15140W        W31988   3.901   1.963   1.679  0.0032  0.3289 -0.2788
15141W        W31989   3.768   5.440  11.854 -0.0195  0.0422  0.0344
15142W        W31990   2.801  14.239   0.922 -0.0292 -0.0376 -0.1862
15143W        W31991   3.014   4.289   4.694 -0.0118 -0.1827 -0.3163
15144W        W31992  10.214   9.044   2.012 -0.0851 -0.0642 -0.0075
15145W        W31993   8.791  15.787  17.284 -0.0591  0.1705 -0.0232
15146W        W31994  10.324   3.166   3.742 -0.0238 -0.3950 -0.4486
15147W        W31995   8.435   9.848  14.741 -0.0728  0.2909  0.0272
15148W        W31996   0.897  14.978  14.627 -0.0613  0.1948  0.0006
15149W        W31997  16.369  12.863  14.676  0.0500 -0.3418  0.1303
15150W        W31998   7.822   8.580  15.450 -0.0564  0.3529 -0.1267
15151W        W31999   2.898   1.990  12.078  0.1306  0.1406 -0.2051
15152W        W32000   3.911   8.974   3.412  0.1401  0.0418  0.2407
15153W        W32001   5.635  12.911  11.449 -0.0353 -0.2850 -0.0401
15154W        W32002   3.254  15.258   2.678 -0.2970  0.0428  0.2371
15155W        W32003   3.529   2.636   3.951  0.2391 -0.1799  0.1170
15156W        W32004   5.674   2.417   4.997  0.0226  0.4741  0.1921
15157W        W32005   6.667   8.893   0.821 -0.1558  0.1705 -0.2058
15158W        W32006   0.527   5.817  15.005  0.0523  0.2408  0.2013
15159W        W32007   2.690  10.673   2.049  0.0505 -0.1149  0.2020
15160W        W32008   7.777   4.711  14.546  0.2570 -0.2045 -0.0608
15161W        W32009  15.611  12.245  14.898  0.0165  0.1086 -0.1928
15162W        W32010   5.754   8.293   5.764 -0.0163 -0.3178  0.2257
15163W        W32011   2.298  16.595  16.377  0.0810 -0.2545  0.2174
15164W        W32012  13.618  11.005  14.313 -0.0735  0.0566  0.1203
15165W        W32013   8.425   9.546  11.860 -0.0049 -0.0461 -0.2496
15166W        W32014   7.327   9.976   1.157 -0.0505  0.1029 -0.0324
15167W        W32015  14.478   4.217  16.809  0.0606 -0.2192  0.3507
15168W        W32016  12.070  11.706  13.188 -0.1198 -0.0787  0.0013
15169W        W32017   1.469  16.575  13.319 -0.1805 -0.0750 -0.2033
15170W        W32018  13.764  10.050   5.658  0.3014  0.0912  0.1359
15171W        W32019   4.996   9.575  13.019  0.2325  0.3204  0.0484
15172W        W32020   9.464  15.518   4.050 -0.1430 -0.0966  0.3033
15173W        W32021   2.993   6.979  13.467 -0.1144 -0.2042  0.2914
15174W        W32022  11.398  16.930   0.920 -0.0512 -0.0165 -0.1020
15175W        W32023   7.819   8.992   5.464  0.3086 -0.2424  0.1947
15176W        W32024  10.827  10.417  12.837 -0.0203 -0.1688  0.0277
15177W        W32025   0.545   0.824  16.574  0.0887  0.2730 -0.2049
15178W        W32026  12.526  10.607  14.089 -0.1425 -0.0975 -0.0477
15179W        W32027   6.605  11.549   2.567 -0.0056 -0.0514 -0.0924
15180W        W32028  13.670   9.427  12.299 -0.2101  0.0192  0.2180
15181W        W32029   4.544   8.415   4.528 -0.1879 -0.0082  0.0579
15182W        W32030   5.932   7.799   2.305 -0.1760  0.0930  0.0239
15183W        W32031  16.125  12.290  17.748 -0.4476  0.2019  0.3105
15184W        W32032   4.249   6.941  14.462 -0.2098 -0.0066 -0.0353
15185W        W32033  16.647   5.790  13.254  0.1525  0.0203  0.2564
15186W        W32034   8.570  10.446  16.570 -0.1621 -0.0287 -0.0766
15187W        W32035   7.597  13.463   5.540  0.1424  0.0522  0.3957
15188W        W32036  12.477   0.198   2.278  0.1613  0.0003  0.1319
15189W        W32037   0.173  11.504   3.357 -0.0659 -0.0055 -0.1491
15190W        W32038  10.124   6.086  16.184 -0.0254 -0.2262 -0.0054
15191W        W32039   7.117  13.261   5.820  0.0591 -0.1237  0.1269
15192W        W32040   6.609   7.110  16.051  0.3088  0.1443  0.1605
15193W        W32041   3.988  13.720   3.447  0.1667  0.1315  0.0017
15194W        W32042   1.300  16.963   2.906  0.1408  0.0231 -0.0699
15195W        W32043  13.514   8.794  16.894 -0.2631  0.0529 -0.3027
15196W        W32044   3.451  16.301   5.255 -0.4750  0.1373  0.0810
15197W        W32045  13.906   9.380   1.466  0.0374  0.0689 -0.3995
15198W        W32046   3.040   6.335   2.501 -0.1926  0.1750  0.4458
15199W        W32047  13.254  12.189  15.204  0.1294 -0.2427  0.1747
15200W        W32048  14.375   6.276   4.963 -0.0836 -0.0617  0.0285
15201W        W32049   8.232   7.827  17.422 -0.2041  0.0592 -0.1621
15202W        W32050   0.312   1.905  16.731 -0.1069 -0.0276  0.1700
15203W        W32051  13.235  10.989   0.815  0.0291  0.0131 -0.2628
15204W        W32052   4.257   0.289   1.634  0.0322 -0.1615  0.0957
15205W        W32053  15.900  13.831   4.313 -0.3258  0.1153 -0.1296
15206W        W32054  12.851  16.254   4.738  0.1396 -0.3124 -0.1166
15207W        W32055  10.957  11.792   0.090 -0.1713 -0.0410 -0.1614
15208W        W32056   4.425   3.714  13.436 -0.2126 -0.0243 -0.1755
15209W        W32057   6.838   7.469   0.242  0.0364 -0.2561 -0.0141
15210W        W32058   1.546   1.188  16.197  0.0206 -0.2469  0.1576
15211W        W32059  12.431  13.111  15.803 -0.1500  0.0216 -0.2767
15212W        W32060   5.008   8.078  12.983  0.0463  0.0803  0.4142
15213W        W32061   9.222  10.916   4.201  0.0539 -0.0558  0.2147
15214W        W32062   4.472  11.570   2.450 -0.0244  0.0345 -0.0836
15215W        W32063   3.986  13.037  12.848 -0.1087 -0.0179 -0.0675
15216W        W32064  11.984  11.498   6.491  0.1656  0.1028 -0.0191
15217W        W32065  14.078   6.750   1.416 -0.1091 -0.0548  0.1952
15218W        W32066   4.327   5.402  16.558  0.0844  0.4738  0.0258
15219W        W32067   3.744   3.543   1.134 -0.1520 -0.1493  0.4649
15220W        W32068   4.566  12.583  12.117  0.1862  0.0722  0.4534
15221W        W32069   9.587   0.332   4.233  0.2641 -0.0198 -0.1818
15222W        W32070   4.226  15.618   4.805  0.0430 -0.0132 -0.3960
15223W        W32071   5.471  14.252  13.818  0.3558  0.2844  0.3061
15224W        W32072   6.016   5.875   1.894 -0.0049 -0.0168  0.2631
15225W        W32073  17.019  16.710  15.485 -0.0668 -0.5527  0.1878
15226W        W32074   3.158   1.827  16.830  0.1230  0.1912 -0.1014
15227W        W32075  11.241  10.351   0.658 -0.2071 -0.1627  0.0711
15228W        W32076   4.295   3.927   0.027  0.0790  0.1377 -0.0403
15229W        W32077   9.631   2.549   0.289  0.0885 -0.0171 -0.0529
15230W        W32078  17.002  10.692  13.573  0.0211  0.2265 -0.2507
15231W        W32079  15.689   2.081  14.845  0.1134 -0.0971  0.0608
15232W        W32080   6.385   6.884   5.605 -0.2557  0.0370  0.1240
15233W        W32081  14.025   4.980   1.164  0.1654 -0.1751  0.1668
15234W        W32082  15.202  10.570   0.120  0.0930 -0.0773  0.0475
15235W        W32083   9.235   5.660   2.261 -0.1284 -0.2202 -0.0476
15236W        W32084   4.806   3.874  17.687  0.0399 -0.0159  0.2772
15237W        W32085   8.237   8.817  17.078  0.0083 -0.0707  0.0091
15238W        W32086   0.585  11.925  14.027  0.0724 -0.0087  0.1191
15239W        W32087  16.122  12.504  16.935  0.1350  0.2154 -0.2232
15240W        W32088   7.674  14.160  16.274 -0.0566 -0.2180  0.1891
15241W        W32089   0.405   7.908   0.060 -0.3260  0.1035  0.1113
15242W        W32090   7.625   6.661  13.324 -0.1638  0.0750 -0.0505
15243W        W32091   4.890  14.543   3.851  0.0055 -0.0754  0.1010
15244W        W32092   5.557   2.607   0.297  0.0911 -0.1780 -0.0134
15245W        W32093   9.452   3.050  13.332 -0.2363  0.0261  0.0094
15246W        W32094  11.250  15.124   3.792 -0.0958  0.3077  0.2231
15247W        W32095   1.605  13.426   4.346 -0.2189  0.1878  0.0534
15248W        W32096   2.577   7.973   5.312 -0.0823 -0.0813  0.1811
15249W        W32097  11.568   4.579   0.705  0.3442 -0.1104 -0.2093
15250W        W32098   1.901  16.471  16.621 -0.2163  0.2992  0.1292
15251W        W32099   2.753  14.867   4.943 -0.0033  0.3949 -0.2304
15252W        W32100   7.537   4.684   0.484 -0.3000  0.0802  0.0645
15253W        W32101   3.104  15.418   5.065 -0.0046 -0.2035 -0.1929
15254W        W32102   1.523  14.932  13.393 -0.0760  0.1276 -0.0800
15255W        W32103   0.291  11.304  12.251  0.0006 -0.3092 -0.0576
15256W        W32104   9.325   0.470  12.021 -0.4218 -0.0765  0.0846
15257W        W32105  13.930  15.982  15.433  0.0387 -0.1317 -0.2914
15258W        W32106  14.082   0.703  12.701 -0.0418 -0.0833  0.1187
15259W        W32107  15.206  11.084   3.800  0.2870  0.3379  0.1484
15260W        W32108   9.467   6.403   1.417 -0.2775 -0.0988 -0.0353
15261W        W32109   3.547  10.163   1.600  0.1353  0.1064 -0.1697
15262W        W32110  11.032  16.438   4.203 -0.0292 -0.0644 -0.0409
15263W        W32111   2.968   8.114  14.720 -0.0076 -0.2640  0.3489
15264W        W32112   1.470   3.974   3.080 -0.0420  0.1101 -0.0262
15265W        W32113  16.477   8.063   4.571 -0.4881  0.1657  0.1823
15266W        W32114  13.795  14.992   3.213  0.1405 -0.0058  0.2053
15267W        W32115   1.368   2.068  15.285  0.0507  0.1273  0.1552
15268W        W32116  10.556  14.076  13.670 -0.2122 -0.0009 -0.0460
15269W        W32117   1.252  10.401  17.266 -0.0398 -0.1044 -0.3099
15270W        W32118   1.302   5.139  16.523 -0.1361 -0.1689 -0.5204
15271W        W32119   1.065   4.922   0.298  0.2071  0.1323  0.3298
15272W        W32120  16.419   4.989  15.883 -0.1098 -0.2879  0.3747
15273W        W32121   1.577   2.386   4.991 -0.1017 -0.2097 -0.1047
15274W        W32122  11.476  11.751   2.002  0.1185  0.1081 -0.0791
15275W        W32123  13.996  10.675  13.730  0.0617  0.2737 -0.1924
15276W        W32124  14.387  10.174  13.793  0.0502 -0.0540  0.1303
15277W        W32125  16.607   5.284  17.257 -0.1477  0.1012 -0.2487
15278W        W32126   4.693   5.120   4.925  0.1196 -0.3464  0.2236
15279W        W32127   6.221  13.906  13.912 -0.0132  0.2553 -0.0430
15280W        W32128   6.068  13.655  12.072 -0.2555 -0.3183 -0.0096
15281W        W32129   1.172  14.522   4.729  0.3063 -0.0607  0.0518
15282W        W32130   8.594   8.193   4.634  0.0897  0.0493  0.1228
15283W        W32131  16.751  14.520  15.429  0.0022  0.0393 -0.2217
15284W        W32132   3.538  14.927   2.945  0.3444  0.0553 -0.3537
15285W        W32133  10.391   6.989   2.847  0.1304  0.0600 -0.3390
15286W        W32134   7.491   0.362  16.635 -0.0836 -0.1837  0.0017
15287W        W32135   7.136   9.252   4.949  0.0733 -0.1245  0.1851
15288W        W32136   3.176  13.492  14.636 -0.0317 -0.0160  0.1295
15289W        W32137  16.877   1.195   6.312 -0.1952 -0.0463 -0.1051
15290W        W32138  10.439   9.526  16.648 -0.4166  0.1570 -0.2406
15291W        W32139  14.918   0.217   1.324  0.1716  0.0868  0.1500
15292W        W32140   3.366   3.424   2.914 -0.1530  0.3991  0.2692
15293W        W32141   2.010   4.025  16.701 -0.0540  0.1355  0.0548
15294W        W32142  14.712  13.221   0.613 -0.2020  0.1178  0.3021
15295W        W32143  10.053  11.415  12.889  0.1690  0.0885 -0.1206
15296W        W32144  13.983   9.791  15.560  0.1547 -0.0605  0.0932
15297W        W32145   1.087  12.065  13.954  0.2942 -0.3514  0.0451
15298W        W32146   1.414   8.742  13.032 -0.2995  0.0129 -0.3425
15299W        W32147  11.362   4.863   4.325  0.2474  0.0486  0.1731
15300W        W32148   8.565  15.858  13.753  0.3024  0.0355 -0.1099
15301W        W32149   6.805   2.050   3.587 -0.0002 -0.0912  0.0055
15302W        W32150   8.025   1.732  17.727  0.1812 -0.0459  0.0541
15303W        W32151   0.811  11.647   5.244 -0.2827  0.0276  0.1845
15304W        W32152  15.480   6.201   1.378 -0.1236  0.4742 -0.0652
15305W        W32153   4.659   9.910  12.098 -0.0288  0.0475  0.1205
15306W        W32154   2.604   5.512  17.670  0.1228  0.2047  0.1411
15307W        W32155   2.663   0.490  13.274 -0.0591 -0.0124 -0.1065
15308W        W32156  10.952   1.850  15.093  0.2523 -0.1839 -0.0133
15309W        W32157  15.623   0.209  15.443  0.2723  0.0837  0.0061
15310W        W32158   7.253   7.571   3.012 -0.1210  0.0708  0.2376
15311W        W32159  15.064  12.364   1.503  0.2042 -0.2795  0.0134
15312W        W32160  11.649  11.487   2.844  0.0400  0.1992  0.3295
15313W        W32161  13.679  12.013  17.828  0.0978  0.2629  0.0592
15314W        W32162   0.439  13.433   2.096  0.2781 -0.2684  0.2156
15315W        W32163   4.808   1.729   5.737  0.0920  0.1528  0.1803
15316W        W32164   2.527   8.115   1.707 -0.2266 -0.1404  0.0338
15317W        W32165   5.251   2.166  15.800  0.2347 -0.0435 -0.0561
15318W        W32166   7.657   6.827   5.670  0.0257 -0.1966  0.2062
15319W        W32167  14.046  15.353   2.491 -0.0905  0.0702 -0.3323
15320W        W32168   1.338   3.048  14.084  0.0425  0.2683  0.3114
15321W        W32169  10.389   5.071  17.454 -0.3392  0.1708  0.1061
15322W        W32170  16.397   4.774  17.247 -0.1083  0.3337  0.2199
15323W        W32171   3.043   2.525  15.333 -0.1342  0.1782  0.2355
15324W        W32172  14.010   3.943  15.943 -0.0238  0.5382  0.0934
15325W        W32173   5.598   6.108  16.035 -0.2948 -0.0189  0.1520
15326W        W32174  12.164   1.971   4.378 -0.1344 -0.1024  0.3349
15327W        W32175  14.856   1.527   1.509  0.0299  0.2918 -0.1963
15328W        W32176  12.839   9.295   3.019  0.1028  0.2782  0.0257
15329W        W32177   6.503   1.412   5.307  0.1318  0.0162 -0.0859
15330W        W32178  14.144   6.628  14.009 -0.1740 -0.0090  0.1091
15331W        W32179  16.039   2.756   3.425  0.2166  0.0865  0.1363
15332W        W32180  16.430   9.554   4.379 -0.0943 -0.0149 -0.2387
15333W        W32181  12.169   3.774   1.533 -0.1325 -0.2438  0.0009
15334W        W32182  10.785   4.818  12.104  0.1245 -0.0647  0.0995
15335W        W32183   6.915   8.241   3.414  0.2512  0.3174  0.2686
15336W        W32184   3.959  12.623   4.050 -0.1230  0.1606 -0.1758
15337W        W32185  14.993  16.710  14.094 -0.1987 -0.0180 -0.1059
15338W        W32186   9.273   2.202   3.214  0.1096 -0.1927  0.0014
15339W        W32187  14.323   3.929   4.024  0.1523  0.2484 -0.1032
15340W        W32188  15.350  13.739  13.303  0.1311 -0.0181 -0.1918
15341W        W32189   3.375   5.147  17.578  0.2329  0.0111  0.0399
15342W        W32190   9.041   6.631   3.042 -0.0903  0.0854  0.0429
15343W        W32191   4.657  11.637   1.921  0.0206  0.3993  0.0194
15344W        W32192   7.486   3.765   1.802  0.3627 -0.1258  0.0261
15345W        W32193   5.759   7.234  13.598 -0.0252  0.1811  0.0265
15346W        W32194  16.042  13.171   1.997 -0.0324  0.0614  0.1074
15347W        W32195  15.498  14.970  12.874 -0.0219 -0.1699 -0.0008
15348W        W32196  14.978  15.799  14.514 -0.0134  0.0758 -0.1433
15349W        W32197  13.328   3.330   1.264  0.1478 -0.1802 -0.0415
15350W        W32198  15.009   9.373   5.460 -0.0620  0.1283 -0.3067
15351W        W32199  12.742   2.907  14.923 -0.0359  0.0861  0.1197
15352W        W32200   4.843  10.349   5.796  0.1361  0.0425  0.1245
15353W        W32201   2.935   5.775   4.628  0.0641  0.0093 -0.3809
15354W        W32202  11.595   8.902   1.304 -0.0413 -0.0105 -0.2620
15355W        W32203   9.950  16.633   5.580  0.4076  0.3784 -0.1911
15356W        W32204   9.863  13.492   0.136  0.3398 -0.2175 -0.0504
15357W        W32205   4.348   4.784   5.708 -0.1185  0.0635  0.1688
15358W        W32206   7.284   4.377   0.864 -0.2799  0.3181 -0.0869
15359W        W32207   5.656   3.536  15.686  0.0354  0.0043  0.1681
15360W        W32208  13.549  10.680   3.080  0.0051 -0.1771 -0.2762
15361W        W32209   9.417  14.851   5.245 -0.1254 -0.0837  0.1567
15362W        W32210   1.986   7.076  14.278 -0.0548 -0.2617  0.0632
15363W        W32211  15.195   6.752  17.702  0.1343  0.3710 -0.2062
15364W        W32212   7.979   6.041  12.843 -0.0084  0.1771  0.0292
15365W        W32213   2.423   3.627   4.993  0.2583  0.2272 -0.0715
15366W        W32214   8.950  13.983   6.236  0.2934  0.4296  0.1921
15367W        W32215   8.070  10.498  16.702  0.0566 -0.3479  0.0905
15368W        W32216   2.177   8.655  14.623  0.0006  0.1748 -0.0011
15369W        W32217   9.243  11.941   5.056 -0.0574  0.0434 -0.0584
15370W        W32218   8.598  10.185  12.723  0.1614  0.0418 -0.1392
15371W        W32219   8.517   2.242  16.143 -0.2778  0.2209  0.1528
15372W        W32220  12.248  16.174  14.473  0.0431 -0.2290 -0.1133
15373W        W32221   8.508  13.486   5.041  0.0619 -0.4001  0.1123
15374W        W32222   6.219   5.685   0.565 -0.0598  0.2956 -0.0743
15375W        W32223  16.461   5.022   1.997 -0.1140 -0.0492  0.1161
15376W        W32224   4.194   9.096  12.775 -0.2846 -0.0923 -0.1849
15377W        W32225   6.953  15.741   0.214  0.0100  0.1752  0.1979
15378W        W32226  13.193   5.796  11.421  0.0731 -0.1380  0.0613
15379W        W32227  16.586   8.548   5.355 -0.1881  0.1950  0.3851
15380W        W32228   3.938  13.344   4.812 -0.0418 -0.2740 -0.1026
15381W        W32229  12.770  11.025   4.965  0.3984 -0.1434  0.0090
15382W        W32230  13.182   5.032   5.181 -0.0662 -0.0971  0.0700
15383W        W32231   4.239   5.788   4.287  0.1963 -0.0304  0.1688
15384W        W32232   6.495   2.438   4.520  0.1991 -0.0699 -0.0846
15385W        W32233   2.966   9.385   5.677  0.1049 -0.0907  0.1348
15386W        W32234   4.331  13.478  15.569 -0.2113 -0.1113  0.3138
15387W        W32235  11.032  17.042   4.436 -0.0422 -0.0220  0.2666
15388W        W32236   5.387   9.202   3.805 -0.1371  0.2046  0.0099
15389W        W32237  14.239   6.325   1.731  0.1275  0.1900  0.1316
15390W        W32238  14.910   0.668  15.796  0.0840 -0.1769  0.0817
15391W        W32239   1.567   5.907  16.867 -0.1591 -0.0189 -0.1767
15392W        W32240  14.809  15.156   3.958  0.3923 -0.1522  0.0889
15393W        W32241   8.058   8.806   1.653 -0.1088  0.0718 -0.2174
15394W        W32242   9.811   5.320  16.321 -0.1285 -0.0546 -0.1577
15395W        W32243   4.535   3.439   6.059 -0.1405  0.0296  0.0894
15396W        W32244   8.060   7.500   5.206 -0.0982  0.0934  0.3536
15397W        W32245  16.725  13.855  16.264 -0.1523  0.0084  0.2261
15398W        W32246   9.756   3.520   4.623  0.0231  0.1253  0.0619
15399W        W32247   6.258   7.361   4.047  0.2395 -0.2002 -0.1447
15400W        W32248  15.729  13.948   3.420  0.2736  0.2314  0.0111
15401W        W32249   4.750   3.260  13.878  0.0718  0.0065 -0.3932
15402W        W32250   1.079  11.750   0.882 -0.1501 -0.1830 -0.0903
15403W        W32251   8.935  16.822  15.711  0.1081 -0.0678 -0.0828
15404W        W32252   9.017   3.926  13.514 -0.1459  0.1130  0.1619
15405W        W32253  14.162   0.242  11.833 -0.1388  0.0031  0.1103
15406W        W32254   7.542   9.027   2.486 -0.1315  0.0607 -0.3511
15407W        W32255  16.462  14.558   4.216  0.3117 -0.0895 -0.2067
15408W        W32256  12.256   3.534   1.083 -0.1970 -0.0073  0.1866
15409W        W32257   3.214  14.691   0.047 -0.1633  0.1872 -0.0034
15410W        W32258   8.706   2.394  14.137 -0.1312 -0.2590  0.0097
15411W        W32259   8.939  10.063  14.814  0.1615  0.3677  0.0279
15412W        W32260   2.459   5.769  12.440 -0.1355 -0.2718  0.1944
15413W        W32261  16.880  10.280  13.364  0.2446 -0.0983 -0.0475
15414W        W32262   0.214  12.093   1.034 -0.2002 -0.0046  0.0097
15415W        W32263  15.352   3.968   3.979 -0.0960  0.0434  0.0014
15416W        W32264  15.483   4.127   3.126 -0.2675  0.0800  0.0786
15417W        W32265  14.732   0.159   5.084 -0.0750 -0.1515  0.3383
15418W        W32266  15.795  17.046   0.089  0.2808 -0.0666  0.1113
15419W        W32267   0.149   9.080   3.998 -0.0988 -0.1084  0.2119
15420W        W32268   9.676  12.512   1.674 -0.3704  0.0715  0.0438
15421W        W32269   6.644  13.198   2.283  0.0199 -0.1560 -0.0760
15422W        W32270   5.793   5.303   4.486  0.3376 -0.4052 -0.2145
15423W        W32271   2.703   3.034  12.890 -0.0108 -0.0123 -0.1088
15424W        W32272   0.457   4.237   1.472 -0.1381  0.1036  0.2268
15425W        W32273   6.493  13.797   4.751  0.2629  0.0301 -0.0447
15426W        W32274   0.523   8.107  13.855  0.1536 -0.3722  0.1349
15427W        W32275   4.769   8.118  14.985  0.0280  0.0815 -0.2002
15428W        W32276   8.768   7.650  11.848 -0.1197 -0.1794  0.1083
15429W        W32277   6.408   2.969  12.448 -0.3341  0.1195 -0.2937
15430W        W32278  11.755  10.654   4.399 -0.2586 -0.0336  0.0998
15431W        W32279   1.606   1.697  15.896  0.0289 -0.0066  0.3076
15432W        W32280   4.160   5.673  15.409  0.1094  0.1357 -0.1266
15433W        W32281   3.572  12.008  15.496  0.0631 -0.2619 -0.2436
15434W        W32282  16.363   7.220   4.701  0.1574 -0.2478 -0.0721
15435W        W32283  13.595  16.411   4.806  0.0306 -0.0653 -0.1795
15436W        W32284   8.176   1.087  16.625  0.1108  0.1373 -0.0083
15437W        W32285   2.819   3.453   5.223  0.2820 -0.1305 -0.2060
15438W        W32286   7.612   8.509  14.945 -0.2386 -0.0834  0.2103
15439W        W32287  14.531   4.473   4.090 -0.2446 -0.0537  0.0389
15440W        W32288   0.589  14.249   1.199 -0.2690 -0.1409  0.1822
15441W        W32289   1.893   7.402   1.256  0.0477  0.2917 -0.3090
15442W        W32290   1.622   3.240  14.827  0.2762 -0.0141 -0.0577
15443W        W32291  13.394   0.418   3.746  0.2300 -0.0785  0.0535
15444W        W32292   2.134  11.994   1.450 -0.0890 -0.0466 -0.0296
15445W        W32293   8.002  10.118  17.178  0.0947  0.0501 -0.1510
15446W        W32294   0.738  15.529   4.514  0.0218 -0.0534 -0.1894
15447W        W32295  15.841  10.824  13.682  0.2023 -0.0166  0.2725
15448W        W32296   1.959  12.735   3.918 -0.1278 -0.1585 -0.1757
15449W        W32297   0.182  13.845   0.962 -0.2253 -0.1284 -0.1764
15450W        W32298   6.096   8.133   0.687  0.1023  0.0774 -0.3972
15451W        W32299  11.294  13.634  16.589  0.2208 -0.0979  0.1086
15452W        W32300   6.056  16.760  13.230 -0.2278  0.4625  0.1519
15453W        W32301  14.479   4.771   4.528  0.0504  0.1229 -0.2677
15454W        W32302  14.642   3.497   4.162  0.2683  0.0851  0.0052
15455W        W32303   8.795   7.711   3.321  0.1218 -0.2328  0.1044
15456W        W32304   9.328   9.003   3.889 -0.2008  0.2475 -0.0097
15457W        W32305   2.308   0.062  16.471  0.1503  0.0081 -0.1734
15458W        W32306   9.446  14.657   0.278  0.2405  0.0178 -0.1964
15459W        W32307   6.088  13.456   5.353  0.0496 -0.2112  0.2445
15460W        W32308  12.524   3.943  16.601  0.1795 -0.1119 -0.1643
15461W        W32309  13.683   7.646  15.348  0.1047 -0.1971  0.0741
15462W        W32310  14.665   2.130  16.983 -0.1197 -0.0804  0.1077
15463W        W32311  11.061  15.969  14.349  0.0793 -0.1071 -0.0907
15464W        W32312   4.861   4.738   3.661 -0.0767  0.0880  0.1725
15465W        W32313  14.330   5.956  13.330  0.0547 -0.1836 -0.0135
15466W        W32314  15.215   2.739   5.041 -0.0571  0.2060 -0.0037
15467W        W32315   3.700   0.458  13.993 -0.1887  0.2309  0.2662
15468W        W32316   3.295  14.599  14.027 -0.0147 -0.1570  0.0872
15469W        W32317   6.373   7.568  13.731  0.0417 -0.1006 -0.1657
15470W        W32318   5.048   8.982  12.497  0.1009  0.0042 -0.1056
15471W        W32319   0.619   3.809  13.045 -0.0156  0.1023 -0.2942
15472W        W32320  15.722   3.012  13.229  0.1155  0.4216  0.0006
15473W        W32321   3.923   8.621  12.006 -0.1180 -0.0015 -0.3660
15474W        W32322   8.339   1.016  16.087  0.0562 -0.2551 -0.0082
15475W        W32323  16.451   7.626  17.830 -0.0403 -0.1271  0.1811
15476W        W32324   8.272   9.275   3.115 -0.0867  0.0459 -0.2549
15477W        W32325  16.002   3.768   5.552  0.0116  0.1122 -0.1791
15478W        W32326  10.557   5.289   3.734  0.0448 -0.2664 -0.0889
15479W        W32327  16.922   0.071   3.387  0.0065  0.2652  0.0742
15480W        W32328   4.050   0.836   2.696  0.0947 -0.1715 -0.1651
15481W        W32329  12.567   6.509  13.285 -0.0060 -0.0281 -0.0372
15482W        W32330   8.537   8.861  15.999 -0.2360  0.0414 -0.0096
15483W        W32331   2.466   9.975  15.249  0.3201 -0.1378  0.1140
15484W        W32332  13.046   7.416  13.692  0.1492  0.1150  0.2360
15485W        W32333  13.331  15.763   4.774  0.1766 -0.0583  0.3340
15486W        W32334   5.676   6.970   5.802  0.0936 -0.0382  0.0324
15487W        W32335  16.567  16.597  12.758 -0.1504 -0.2161  0.0385
15488W        W32336  16.834  15.612  12.261  0.1042  0.0008 -0.2429
15489W        W32337  14.023   5.736   4.024 -0.0607  0.1269  0.0402
15490W        W32338   7.022  15.601   4.625 -0.0007  0.1751  0.1929
15491W        W32339  14.317   3.750  12.247  0.0530  0.0121  0.0355
15492W        W32340   4.306  10.607  15.005  0.0121 -0.3508  0.1014
15493W        W32341  10.254  13.357   2.699  0.1234 -0.1038 -0.1387
15494W        W32342   7.096  11.167  14.859  0.0013  0.1580  0.1762
15495W        W32343   2.563  15.812   4.005  0.3086  0.1301  0.3932
15496W        W32344   9.529   4.975  15.415 -0.3151  0.3719 -0.0869
15497W        W32345   0.404  12.635  16.207 -0.0523 -0.2511  0.1337
15498W        W32346   2.755   5.995  17.706  0.0896  0.2811 -0.1839
15499W        W32347  13.730   6.814  12.338  0.1575  0.1629 -0.0801
15500W        W32348   3.537   9.668   4.032  0.1263 -0.0191 -0.2446
15501W        W32349   4.767   8.959  17.719  0.0800 -0.1900 -0.1413
15502W        W32350   4.078   6.305  12.288  0.0012 -0.0147  0.1314
15503W        W32351   5.683   9.751   4.914 -0.1183 -0.2009  0.1639
15504W        W32352  13.478  16.712   1.004  0.1849  0.0836  0.0743
15505W        W32353  11.244  12.844   0.732 -0.1446  0.1546 -0.0394
15506W        W32354   4.994   6.135   3.269  0.3165  0.2765  0.0919
15507W        W32355  11.961  13.352  11.337  0.0784 -0.0740 -0.1798
15508W        W32356  15.935   4.980   0.473 -0.0961  0.4712 -0.2657
15509W        W32357   5.214   1.588  14.970 -0.2373  0.0074 -0.1441
15510W        W32358  13.066  10.974  15.193 -0.1034 -0.0537  0.0342
15511W        W32359  11.611   0.135   1.916 -0.0810 -0.1646 -0.3433
15512W        W32360  16.616  12.260   5.757  0.0085 -0.3114 -0.1440
15513W        W32361  10.264  15.468   2.828  0.0017  0.2078 -0.0004
15514W        W32362  14.564  11.169   3.769  0.0520 -0.3302  0.2815
15515W        W32363  11.528   3.887  14.264 -0.0552  0.0713 -0.6733
15516W        W32364   4.755   6.878  14.406 -0.1686 -0.0552  0.3494
15517W        W32365   8.522  16.660  17.393 -0.5271  0.0665  0.0274
15518W        W32366  14.280   4.530  16.420  0.3214  0.2071 -0.0535
15519W        W32367   2.015   6.488  12.925  0.1030  0.0275 -0.1031
15520W        W32368  16.817   1.503   4.508  0.0253  0.2669 -0.0424
15521W        W32369   5.839   5.217  16.321 -0.3556 -0.1088 -0.1027
15522W        W32370  13.911   7.946   4.560 -0.1845  0.3731 -0.0849
15523W        W32371  16.452  12.738   2.828 -0.0675 -0.1529 -0.0021
15524W        W32372  11.335   4.125  16.981  0.0406 -0.2459 -0.2657
15525W        W32373   9.949   4.151   2.937  0.1296 -0.2023  0.1638
15526W        W32374  16.078   8.822  16.810 -0.1949 -0.2941 -0.2029
15527W        W32375   1.119  14.376   3.984 -0.2128 -0.1050 -0.0922
15528W        W32376  14.877  15.951  13.563 -0.1012 -0.0672 -0.0151
15529W        W32377   5.621   0.062  11.551 -0.0206  0.1130  0.1187
15530W        W32378  11.895   2.957   0.365  0.1503 -0.1906  0.1849
15531W        W32379  16.503   3.024   1.459  0.0794 -0.1066  0.1066
15532W        W32380   2.526   5.673   0.299  0.0234  0.1327  0.0649
15533W        W32381  12.243   3.042  17.399  0.0708 -0.2336 -0.0095
15534W        W32382   0.234  14.243   3.796  0.5116 -0.0954  0.0374
15535W        W32383   9.157  15.666  13.796 -0.1629  0.3316 -0.0039
15536W        W32384   4.010   4.268  14.722  0.1312  0.0089  0.0659
15537W        W32385   6.580   6.656  16.934  0.1079  0.2798  0.0596
15538W        W32386   2.236   7.582   5.086 -0.1755 -0.1291  0.0797
15539W        W32387   5.640  14.743   0.985  0.1906 -0.0028 -0.1137
15540W        W32388   7.986   7.524  13.112 -0.2856 -0.3351 -0.0518
15541W        W32389  10.388   0.940   3.231 -0.1525  0.5451 -0.1344
15542W        W32390  12.296   1.132   0.100  0.1116 -0.2691 -0.2337
15543W        W32391   1.631  11.947  14.520  0.0198 -0.0707 -0.1387
15544W        W32392   4.303   3.275  17.777  0.0025 -0.0878 -0.2377
15545W        W32393  14.207  10.441   2.269  0.0664  0.2267 -0.2294
15546W        W32394   0.313   7.765   1.129 -0.1797 -0.0468 -0.2138
15547W        W32395   2.446  17.020   2.104  0.2687 -0.0618  0.0782
15548W        W32396   1.007   5.169  16.116  0.1211  0.2090  0.0151
15549W        W32397   4.173  11.182   2.258 -0.2768  0.0536  0.0212
15550W        W32398  10.883   8.754   1.298 -0.0459  0.0493 -0.0341
15551W        W32399   9.367   6.492   4.704 -0.0335  0.1344  0.0584
15552W        W32400   5.331  15.007  13.075  0.1498  0.1192 -0.2379
15553W        W32401   5.392   8.350   2.873 -0.1726 -0.0538 -0.1315
15554W        W32402  15.842  11.688   3.222  0.0225 -0.1135  0.1716
15555W        W32403   6.438  14.793   0.342 -0.1279 -0.0082  0.5031
15556W        W32404   5.276   7.862   1.683  0.1020  0.2629 -0.2373
15557W        W32405   4.902   6.257  12.665 -0.0813 -0.0028 -0.1600
15558W        W32406   0.476   3.074  15.453 -0.3817 -0.0177 -0.0754
15559W        W32407  13.309   4.015   3.947 -0.1131  0.2299 -0.4769
15560W        W32408   8.663   6.013  17.797  0.1083 -0.2462 -0.3679
15561W        W32409  10.415   2.130   4.057 -0.0486  0.0920  0.0513
15562W        W32410   7.182  14.878  16.973 -0.3333  0.1727 -0.1763
15563W        W32411  15.638  12.073   0.804  0.0227 -0.0336 -0.0912
15564W        W32412  16.870   1.530   5.121 -0.1594  0.1491 -0.0156
15565W        W32413  16.121   5.403   0.545  0.0127  0.0514 -0.5272
15566W        W32414   0.813   3.029  14.085 -0.2015 -0.0159 -0.1242
15567W        W32415  12.792  12.402   4.760 -0.0792  0.0850  0.1525
15568W        W32416  12.028  13.626  13.041  0.2274  0.1065 -0.2386
15569W        W32417   1.616   1.443   3.080  0.1511 -0.3003 -0.1047
15570W        W32418   6.943   0.997  11.602  0.0394  0.1363  0.1546
15571W        W32419  11.990  15.715   3.739 -0.0037  0.0956  0.2852
15572W        W32420  10.834  10.473   1.363 -0.1393  0.0438 -0.0426
15573W        W32421  11.011  14.908   3.320  0.2518  0.0787 -0.1408
15574W        W32422   9.449  15.021   1.712  0.1492 -0.2468 -0.1985
15575W        W32423  11.335  16.910  15.024  0.1799  0.0133  0.0628
15576W        W32424  11.273  10.324  14.012  0.2647  0.0771 -0.0593
15577W        W32425   2.081  10.387   4.507  0.2020 -0.3916 -0.2256
15578W        W32426   1.242  12.535   4.228 -0.0953  0.0134  0.4567
15579W        W32427  16.995   6.703   3.249 -0.1079  0.3174 -0.0572
15580W        W32428   3.606   6.882  14.990 -0.2476  0.2295  0.0615
15581W        W32429   5.974   9.960   3.479 -0.1576  0.1387  0.2033
15582W        W32430   0.572   2.436  14.178  0.4290  0.0583 -0.0896
15583W        W32431  15.119   1.386  12.948 -0.1747 -0.1101  0.0906
15584W        W32432  12.577   5.639  16.971  0.3991  0.2907 -0.1165
15585W        W32433   7.684  11.839  15.772  0.0869 -0.0959 -0.2472
15586W        W32434   0.764  12.365  15.967 -0.1247 -0.1174 -0.1231
15587W        W32435  14.283  14.320   0.151 -0.0874  0.0441 -0.0306
15588W        W32436   5.125  12.275  16.323  0.2958  0.0743 -0.3505
15589W        W32437   7.311   5.820  12.506  0.2561  0.0339 -0.1237
15590W        W32438   1.825  13.262  15.124 -0.0706  0.1462  0.1240
15591W        W32439  11.732   3.456  16.839 -0.1463 -0.0977  0.0634
15592W        W32440   9.042   9.803   2.867 -0.0128 -0.1510 -0.0089
15593W        W32441   4.042  12.103   3.165 -0.0973 -0.2197 -0.2279
15594W        W32442   3.200   2.313  14.910  0.0631 -0.0751 -0.0632
15595W        W32443   9.461   4.455   0.234  0.3006 -0.1747  0.0381
15596W        W32444   2.574  14.045   1.510 -0.1455  0.0432 -0.1187
15597W        W32445   7.480   0.453  17.699  0.2073 -0.0628  0.0899
15598W        W32446   9.822   8.958   1.345  0.3392  0.1761 -0.0962
15599W        W32447  11.873   8.626   5.080  0.1724  0.0594 -0.0448
15600W        W32448  11.207   5.921   3.084  0.1105 -0.1044  0.2153
15601W        W32449   7.533  14.086  13.386  0.2926  0.3257 -0.2887
15602W        W32450  14.162   7.049   3.612  0.0001 -0.0471 -0.2920
15603W        W32451  16.543   3.247  12.512  0.2227  0.0863  0.1410
15604W        W32452  13.152  15.655   5.257 -0.0718 -0.0301  0.1128
15605W        W32453   2.677  16.583   2.132 -0.1993 -0.0251  0.0247
15606W        W32454   7.475   8.427   3.952  0.0321 -0.0877 -0.2624
15607W        W32455   6.274   4.992  16.547 -0.0175  0.0759 -0.3136
15608W        W32456   2.494  12.089  12.927  0.0029 -0.0600  0.0286
15609W        W32457   1.520  14.269  14.530  0.0971 -0.0302 -0.4180
15610W        W32458  15.849   4.418   1.844 -0.1185 -0.1091  0.1359
15611W        W32459   6.139  11.482   2.118  0.0235 -0.1073  0.2165
15612W        W32460   6.149  14.585  16.904 -0.0151 -0.4377 -0.2082
15613W        W32461   5.757  15.050  17.639 -0.0964  0.0244  0.0158
15614W        W32462   5.922  15.396  17.325  0.1910 -0.0714  0.1433
15615W        W32463  11.954   1.280  13.634 -0.0416 -0.1576  0.0239
15616W        W32464  15.421  11.002  17.555  0.1728  0.0636  0.0078
15617W        W32465   6.920  13.754   4.467 -0.0969  0.0412  0.0175
15618W        W32466   5.768  12.953   3.945  0.4129  0.1657  0.1176
15619W        W32467  12.147   0.528  12.556 -0.0834 -0.1702 -0.1738
15620W        W32468  13.433  10.782   0.449  0.3131 -0.1039 -0.1274
15621W        W32469  12.704   0.196   4.479  0.2479  0.0222  0.0308
15622W        W32470  13.903   2.169  15.684 -0.2589  0.2057  0.0481
15623W        W32471  14.281  11.821  12.771 -0.1735  0.2074  0.1512
15624W        W32472  13.652   7.164  15.181  0.0881  0.0089  0.2811
15625W        W32473   9.570  15.384  15.531 -0.2045 -0.1012 -0.0962
15626W        W32474  16.810   6.577   0.916  0.0235 -0.4293 -0.1834
15627W        W32475   0.688  10.019  13.054  0.1391 -0.0531 -0.0180
15628W        W32476   5.943   7.660  15.509  0.3006 -0.0543 -0.0019
15629W        W32477  10.534  10.396  15.980 -0.3075  0.0601 -0.1410
15630W        W32478  16.827   1.125   3.309 -0.0129  0.1004 -0.0010
15631W        W32479   1.258   3.147   3.769 -0.0077  0.1915 -0.0294
15632W        W32480  10.051   8.508   2.947 -0.1880 -0.1180 -0.1017
15633W        W32481   6.723  15.678   3.254 -0.1255 -0.2100  0.0978
15634W        W32482   8.409   9.299   0.381  0.0021  0.2160 -0.2819
15635W        W32483  14.729  15.004   1.965  0.1823  0.0421 -0.0251
15636W        W32484  10.900  11.005   1.529  0.0515  0.0440  0.0132
15637W        W32485   6.725  10.043  13.254  0.1171 -0.2616 -0.1520
15638W        W32486   1.764   9.023   4.119  0.0025 -0.1674  0.2868
15639W        W32487  13.212   8.269  13.155  0.1885  0.1688 -0.0827
15640W        W32488  13.208   0.308  17.356  0.1946  0.1292  0.1039
15641W        W32489   1.546   1.215  15.637 -0.0882 -0.0856 -0.3165
15642W        W32490  12.987  12.244   5.720 -0.0769 -0.0827 -0.0659
15643W        W32491  10.223   6.340   4.818 -0.1382 -0.1249  0.2556
15644W        W32492   4.764   6.531   0.182 -0.2075  0.0786  0.1225
15645W        W32493  11.878  13.347  12.636  0.2442  0.2826  0.2590
15646W        W32494   7.904   1.447  12.974  0.0928 -0.1085 -0.0595
15647W        W32495  10.465   8.449  12.845 -0.3519  0.0692  0.0575
15648W        W32496  14.831  13.538  12.423  0.1449 -0.2960  0.1196
15649W        W32497  11.170  15.436   4.186  0.2821  0.0230  0.2064
15650W        W32498  16.256  13.860  15.838 -0.2324 -0.1487 -0.1408
15651W        W32499   9.942  12.991   4.262 -0.2212 -0.0368  0.0417
15652W        W32500   0.088  13.216   2.877  0.2495 -0.0398 -0.0755
15653W        W32501  15.749  10.469  13.310  0.0114  0.0081 -0.2254
15654W        W32502  10.682  14.301   1.498  0.0856  0.0968 -0.0853
15655W        W32503   3.581   0.344   5.204 -0.0009 -0.0298  0.2323
15656W        W32504   8.291   2.391  17.061 -0.1675  0.0547 -0.1641
15657W        W32505   5.219  15.401  11.576  0.1281 -0.1440 -0.0988
15658W        W32506   3.525   7.584  12.717 -0.0689 -0.1837 -0.2963
15659W        W32507  14.335  14.614  14.890  0.2247 -0.2647  0.0691
15660W        W32508  12.336   9.005  16.037 -0.1034  0.0009 -0.1275
15661W        W32509   1.902   0.634  13.504 -0.1136 -0.1040  0.0729
15662W        W32510  15.703   1.364   2.849  0.1572 -0.1714 -0.3112
15663W        W32511   2.827   2.728   2.786  0.2137 -0.0139  0.0220
15664W        W32512   8.259   8.365   2.541 -0.1408  0.1757  0.0212
15665W        W32513   4.298   2.417  13.766 -0.0055  0.0283  0.0508
15666W        W32514  11.986  11.478  15.961 -0.2311  0.0973  0.0814
15667W        W32515   5.350   1.657  11.889  0.1720  0.0169  0.1240
15668W        W32516   5.265  14.414  12.901  0.0808  0.0192  0.0530
15669W        W32517  15.228  14.639  13.352  0.0271  0.1521  0.1397
15670W        W32518  16.992  10.693  12.919  0.1425 -0.2555  0.0452
15671W        W32519  13.185   4.706   4.221  0.3594 -0.0105  0.1367
15672W        W32520  16.705   5.799   1.119 -0.1679  0.1037  0.0833
15673W        W32521   2.897   8.372  17.450 -0.0783  0.0928  0.1029
15674W        W32522   5.573  13.517   5.257  0.1041  0.3785 -0.0475
15675W        W32523   2.821   5.875   6.075  0.1342  0.0590 -0.2739
15676W        W32524  16.320   9.485   5.257 -0.2462 -0.1548  0.0918
15677W        W32525   5.541   2.595   5.878 -0.2600  0.1100 -0.2183
15678W        W32526   3.815   0.875  13.083  0.2147  0.0816  0.0571
15679W        W32527  10.360  14.481  12.490 -0.2183 -0.0433 -0.2274
15680W        W32528   7.709   1.325   0.977 -0.0425 -0.0084  0.0012
15681W        W32529   5.917   4.328   6.231 -0.1609 -0.1073  0.1432
15682W        W32530  10.670  16.705   4.515 -0.2066 -0.4332  0.0682
15683W        W32531  11.825   9.811   0.979 -0.0666 -0.0691  0.1450
15684W        W32532  11.501   1.548  13.777 -0.0809  0.0805  0.1050
15685W        W32533   0.839  16.757  16.016 -0.0978  0.1007  0.1121
15686W        W32534   9.930   0.491  14.512 -0.0725 -0.3750  0.4396
15687W        W32535  11.747   1.206  16.633 -0.1295  0.0113  0.0646
15688W        W32536  13.907   5.147   4.707  0.0334  0.2290 -0.0039
15689W        W32537  12.796  12.595  13.729 -0.1266 -0.1654  0.1321
15690W        W32538  13.266  13.498   4.214 -0.1137  0.4662  0.1892
15691W        W32539  11.207   3.705  13.940  0.2969  0.1422  0.0539
15692W        W32540   9.137   5.834  17.631  0.1367  0.1378 -0.0339
15693W        W32541   1.820   5.935  15.340  0.1857 -0.0070 -0.0292
15694W        W32542  14.802   8.709   2.458 -0.0768  0.0087 -0.2038
15695W        W32543  12.108  10.642   6.331  0.1483  0.1103 -0.0671
15696W        W32544   6.450   6.795  14.793 -0.1558 -0.0790  0.1824
15697W        W32545  13.405   6.130   1.678 -0.0974  0.1518 -0.2664
15698W        W32546   0.144  10.483   4.549 -0.1193 -0.1578 -0.2574
15699W        W32547  11.380   1.283  17.590  0.2682 -0.1784 -0.0200
15700W        W32548   3.077  10.797   3.659  0.1523 -0.0751 -0.3769
15701W        W32549   0.156   2.263   4.000  0.1973 -0.0066 -0.1249
15702W        W32550  14.209  10.502  15.046 -0.3701 -0.0193 -0.0409
15703W        W32551  13.572   4.562  14.783 -0.1407 -0.0033  0.0492
15704W        W32552   0.777   3.862   4.549  0.3118 -0.0074 -0.2393
15705W        W32553   5.348   2.025   4.904  0.0739 -0.0445  0.0629
15706W        W32554  15.540   1.493  13.669 -0.0090 -0.1612 -0.0979
15707W        W32555  16.102   2.270  15.826  0.0883 -0.2449 -0.2162
15708W        W32556   3.655   1.857   0.281  0.1664  0.2567  0.0245
15709W        W32557   9.142   4.343   3.572  0.0658  0.4939  0.2450
15710W        W32558   5.986   3.530   3.479  0.2732 -0.0155 -0.0792
15711W        W32559   9.865  15.237  16.429 -0.1054  0.1930 -0.0432
15712W        W32560   0.908   3.332   0.762 -0.0680 -0.0683  0.0349
15713W        W32561  12.584  10.800   1.303  0.3022  0.0292  0.1520
15714W        W32562   4.030  13.203  17.134 -0.0680 -0.2458  0.1383
15715W        W32563  12.118  10.720  16.747  0.0241  0.1268  0.0293
15716W        W32564  11.687  12.521   4.427 -0.0555 -0.1543  0.1475
15717W        W32565   5.111   8.284   3.713 -0.0039  0.0831  0.0088
15718W        W32566  16.524  14.592  12.417 -0.0947  0.0047 -0.0618
15719W        W32567   4.800   2.391  15.608 -0.2870  0.1087  0.1444
15720W        W32568  12.985   7.105   4.713  0.2350 -0.0201 -0.0163
15721W        W32569   4.952   7.411   5.068  0.0404  0.1067 -0.0680
15722W        W32570   3.032  16.404  12.448  0.0381 -0.2371  0.1080
15723W        W32571  12.294   0.595   3.672  0.0616  0.0098 -0.0602
15724W        W32572  15.130   0.560  14.671 -0.1385  0.3710  0.1717
15725W        W32573  11.007  11.892   4.136 -0.0219  0.3505  0.1151
15726W        W32574  14.007  10.133   6.078  0.2968 -0.2320  0.0613
15727W        W32575  14.262  14.138  14.664 -0.3619  0.0096  0.3496
15728W        W32576  13.788  11.771  12.903  0.4058  0.0318  0.0061
15729W        W32577   0.564   4.658   0.510  0.0182  0.1627 -0.4259
15730W        W32578   3.843   0.604  11.985  0.3149  0.2419 -0.0855
15731W        W32579  14.151  10.022   2.682 -0.0337  0.1586 -0.0393
15732W        W32580   7.029   7.101   0.613  0.2775 -0.0320 -0.1376
15733W        W32581  15.796  11.365  13.668  0.1398 -0.2184  0.0021
15734W        W32582   0.387   8.903   4.367  0.1807  0.0634  0.0801
15735W        W32583  11.307  16.163  17.717 -0.0110  0.1043 -0.1341
15736W        W32584  13.282   2.881  16.292 -0.0479 -0.1839  0.0267
15737W        W32585   3.007   1.335   3.594 -0.1632 -0.2584 -0.1138
15738W        W32586   4.211  11.865  13.142  0.2620 -0.0836  0.0371
15739W        W32587  10.205  16.052   3.825  0.0035 -0.0414 -0.2347
15740W        W32588   5.834  10.385  12.722 -0.0840  0.0690  0.1743
15741W        W32589   1.009   0.248   0.377  0.0487  0.1602 -0.1887
15742W        W32590   9.935   8.039   3.868 -0.1269  0.0191  0.2327
15743W        W32591   8.338  11.388   4.367 -0.3125  0.0131 -0.0729
15744W        W32592  10.200   9.592   1.997 -0.0370 -0.2102 -0.1521
15745W        W32593  14.341   0.355  14.151  0.0312 -0.0811 -0.0194
15746W        W32594   1.805  13.048   2.606  0.0378  0.0243  0.0211
15747W        W32595  14.997   3.837   6.011 -0.2527 -0.2724 -0.1638
15748W        W32596   4.178  15.932   5.931 -0.0199  0.0780  0.2139
15749W        W32597  10.085   6.369  15.152 -0.1780  0.1786 -0.0621
15750W        W32598   6.740  11.597   4.581  0.1497 -0.0426  0.1976
15751W        W32599  15.404   7.709  15.548 -0.1046 -0.1797 -0.0851
15752W        W32600   1.660  11.008   0.134 -0.1262  0.0106 -0.1712
15753W        W32601   3.071   9.748   4.636 -0.0032  0.1414  0.0624
15754W        W32602   8.080   1.936  12.294 -0.1405  0.1156  0.0783
15755W        W32603  13.074   1.093   0.111  0.2300  0.3321 -0.0762
15756W        W32604   0.001   8.179   2.228  0.0191  0.2955  0.1648
15757W        W32605   1.337   0.896  16.759  0.0669  0.2087  0.0557
15758W        W32606   7.688   6.126   3.789 -0.2905  0.0130  0.2561
15759W        W32607  14.573   9.258  15.748 -0.3501 -0.0639  0.1694
15760W        W32608  11.633   2.388   2.565 -0.0794  0.3797  0.0342
15761W        W32609  16.564  13.831  13.465 -0.0626 -0.0638  0.2972
15762W        W32610   6.353   4.692  17.004  0.0397 -0.1617  0.2431
15763W        W32611   1.455  15.887  14.220  0.1244 -0.0987  0.4259
15764W        W32612  14.890  15.068   5.371  0.0973  0.1587  0.2542
15765W        W32613   4.072   5.740  13.828 -0.0715 -0.0727  0.0065
15766W        W32614   4.419   6.058  12.863 -0.0305  0.1041  0.0698
15767W        W32615   0.468  15.202  12.943 -0.2521 -0.2613 -0.0358
15768W        W32616  13.946   1.502  17.165  0.7358 -0.1571  0.2418
15769W        W32617  12.796   0.239   0.489  0.0922  0.1078 -0.0914
15770W        W32618  13.996   8.104  15.547  0.0508  0.3761 -0.0709
15771W        W32619  10.647   3.598  13.695 -0.0175 -0.2305 -0.0833
15772W        W32620   7.559   4.754  17.776  0.2782  0.0845 -0.0881
15773W        W32621  13.344   7.111  12.381 -0.0043  0.0064 -0.1687
15774W        W32622  14.446   6.907   3.223  0.0808  0.2535 -0.2882
15775W        W32623  11.453   8.058  12.679 -0.1996 -0.0943  0.0186
15776W        W32624  16.740   0.912   3.792 -0.0648 -0.0678 -0.0372
15777W        W32625   7.483   2.103  16.079 -0.1562  0.0744 -0.0773
15778W        W32626  15.573   2.240   4.134 -0.2449 -0.0132  0.1868
15779W        W32627  12.666  16.858   3.560 -0.0797 -0.0910  0.0276
15780W        W32628  11.931   6.665  14.935 -0.4402  0.1751  0.0118
15781W        W32629   3.500   4.029  14.913 -0.1428  0.1050  0.1997
15782W        W32630  13.298   5.532   0.089 -0.0803 -0.0396 -0.1429
15783W        W32631  13.963  11.284  15.568 -0.2900  0.2540 -0.2757
15784W        W32632  12.774   1.772   1.280  0.1107 -0.0319 -0.1170
15785W        W32633  11.095   5.890  11.679  0.0231 -0.0883  0.0149
15786W        W32634  12.223  15.207  14.043 -0.1092 -0.1601 -0.0424
15787W        W32635   8.417  16.738   3.632  0.0910 -0.1641  0.1953
15788W        W32636  13.720   2.890   2.861 -0.0736  0.2568 -0.0073
15789W        W32637   4.460   2.411   3.683 -0.1399 -0.0094  0.0015
15790W        W32638   4.198  11.734   5.374 -0.3322 -0.0950 -0.1029
15791W        W32639  16.560  14.955   6.434  0.0077 -0.0842 -0.0777
15792W        W32640  14.711   9.037   3.491  0.1329 -0.1115  0.0019
15793W        W32641  12.835   5.886   3.636  0.0526 -0.0989  0.2612
15794W        W32642   6.303  13.934   2.610 -0.2093 -0.0874  0.0082
15795W        W32643   1.115  10.123  13.279 -0.0799  0.0364  0.1193
15796W        W32644  11.326   5.373   0.777  0.0937 -0.0655  0.1044
15797W        W32645   7.983  15.451   2.960 -0.0374  0.1065 -0.1598
15798W        W32646   6.357   4.066  15.372  0.1927 -0.2892  0.2425
15799W        W32647   0.968   7.273   4.486 -0.0119  0.3432  0.2435
15800W        W32648   5.540  14.163   6.202 -0.0733 -0.0211 -0.1199
15801W        W32649   8.503   0.052  16.531 -0.0201 -0.1754  0.1749
15802W        W32650  14.316  14.411   2.863 -0.0643  0.1373  0.0545
15803W        W32651   3.353   4.703   5.416 -0.0200 -0.1135 -0.1579
15804W        W32652   2.580   4.922  12.351  0.0476  0.1219 -0.1618
15805W        W32653   6.901  12.397   4.927  0.0780  0.1149 -0.0050
15806W        W32654   1.295  12.515   2.458 -0.0266  0.4381  0.1554
15807W        W32655  12.443  16.850   1.221  0.1651 -0.0266 -0.1045
15808W        W32656   8.230   4.306   3.297 -0.0234 -0.1727  0.0030
15809W        W32657   6.764   2.006   4.571  0.0381  0.0029  0.1454
15810W        W32658   4.252  16.313  17.091 -0.0844  0.1774  0.0313
15811W        W32659   2.495   8.163  13.670  0.0132  0.2338 -0.0978
15812W        W32660   5.209   0.114   5.721 -0.2864 -0.0478  0.0611
15813W        W32661  10.999   3.837  12.991 -0.0411  0.2179 -0.1160
15814W        W32662  16.120  12.843  12.574 -0.0316  0.1049  0.0216
15815W        W32663   9.140   3.893  17.517  0.0179  0.1933  0.0286
15816W        W32664   2.920   1.617  12.406  0.1467 -0.2507 -0.1813
15817W        W32665  13.438   3.168  12.061 -0.0671  0.1400 -0.1619
15818W        W32666   5.868   6.819  17.046 -0.1319  0.2321  0.0601
15819W        W32667  10.123  14.415  16.719 -0.1006  0.1945 -0.0044
15820W        W32668  10.530   1.972   3.578  0.3742  0.0480 -0.0162
15821W        W32669  11.093   0.272  14.863 -0.0719 -0.0282 -0.1939
15822W        W32670  12.477  12.914   0.404  0.1515 -0.3526 -0.1577
15823W        W32671  11.675  15.191  14.918 -0.0471 -0.1250  0.1426
15824W        W32672  11.276  11.052   5.258  0.2043 -0.0624  0.1838
15825W        W32673  12.663   7.865  15.301 -0.0647 -0.0136  0.0781
15826W        W32674  14.697   8.175  12.588  0.0532  0.1354  0.1321
15827W        W32675   3.519   9.857  12.319  0.0143  0.1757 -0.0277
15828W        W32676   9.699   6.131   4.955  0.0483 -0.0493  0.1470
15829W        W32677   7.952   9.308   3.910 -0.1682 -0.2832  0.0584
15830W        W32678  14.078  14.863   4.075  0.0447  0.0764 -0.1120
15831W        W32679   4.430   4.973   3.538 -0.0373 -0.0253 -0.0082
15832W        W32680   0.425  13.600  15.560 -0.0055 -0.0133  0.1470
15833W        W32681  13.942  17.058  13.448  0.2256 -0.0310  0.1021
15834W        W32682  16.621   8.073  12.096 -0.0469 -0.0548  0.2894
15835W        W32683  15.727   7.496  12.252 -0.1278 -0.2181 -0.0267
15836W        W32684   6.933  11.601  14.056  0.1250 -0.2352 -0.1423
15837W        W32685   0.648  13.574   0.572  0.0346 -0.1633 -0.1491
15838W        W32686   6.494   0.536   4.606  0.0759  0.0654  0.0163
15839W        W32687  14.573  10.000  13.026 -0.0351  0.0533 -0.0032
15840W        W32688   4.036  11.295  12.451  0.0217 -0.3140  0.0685
15841W        W32689   3.283   3.693   5.239 -0.4110 -0.0731 -0.3435
15842W        W32690   0.036   7.872   3.586  0.0042 -0.0560  0.1244
15843W        W32691  11.891   8.660  16.765 -0.1199  0.1990  0.3094
15844W        W32692  10.700   9.901  12.953 -0.1451 -0.3295 -0.3924
15845W        W32693   7.012   3.896   1.711  0.2362  0.0579 -0.1378
15846W        W32694  10.420   1.424   0.852  0.0379  0.1059 -0.0989
15847W        W32695  13.242   1.858  16.173  0.1142 -0.1629  0.1372
15848W        W32696   5.049  14.213  16.197 -0.1753  0.0283  0.0816
15849W        W32697  13.648   0.547  13.321 -0.2748  0.0453 -0.2274
15850W        W32698  12.852   1.896   3.395  0.0238 -0.2142 -0.1382
15851W        W32699  11.015   0.659   5.745 -0.0255 -0.4089 -0.0878
15852W        W32700   0.105   3.951  13.825 -0.0594 -0.1389  0.0692
15853W        W32701   1.287  15.245   4.433  0.0907  0.0410 -0.0291
15854W        W32702   2.018  15.195   1.713 -0.0436  0.0881 -0.1043
15855W        W32703  15.696  14.364  17.439 -0.0892  0.0960  0.1050
15856W        W32704   8.031  17.047   5.276 -0.1608  0.4171 -0.1642
15857W        W32705   5.934   3.606   2.617  0.0988 -0.1431 -0.1206
15858W        W32706  14.122   1.703   3.386 -0.1681  0.0231  0.0294
15859W        W32707   5.896  15.101  15.020 -0.0866  0.1266 -0.0465
15860W        W32708  11.702  15.180  17.027  0.1191  0.1341  0.2196
15861W        W32709   0.337   3.517  15.135 -0.2413 -0.4931  0.1719
15862W        W32710  12.575  15.625   0.189 -0.0473  0.1011  0.0654
15863W        W32711  14.300   6.386  12.920  0.0183  0.1305  0.1482
15864W        W32712   3.951  14.439   1.594 -0.1492 -0.0533  0.0274
15865W        W32713   5.599   4.778   5.360 -0.3401  0.1224 -0.1336
15866W        W32714   3.997  12.626   1.377 -0.1912  0.1329  0.3206
15867W        W32715  13.229   5.014  17.199 -0.1047  0.1614  0.2406
15868W        W32716   0.173  11.660  16.051 -0.0947  0.2081 -0.0761
15869W        W32717   5.827  10.264   4.879 -0.3285 -0.1050 -0.0671
15870W        W32718   5.987   2.550  14.028 -0.1000  0.1679  0.2851
15871W        W32719  10.784   4.231  16.460 -0.1211 -0.2769  0.3257
15872W        W32720   1.231  14.010   4.960 -0.0242 -0.1096 -0.1891
15873W        W32721   8.975  10.277   1.719  0.0361 -0.2157  0.1156
15874W        W32722   3.420   8.741   5.892 -0.1760 -0.1401  0.3921
15875W        W32723  14.561   7.379   3.070 -0.0660 -0.1297 -0.3688
15876W        W32724  15.574   9.883  12.158 -0.1218 -0.3629  0.1967
15877W        W32725  13.420   5.772  16.631 -0.2738 -0.1691  0.0603
15878W        W32726   9.252   8.861   5.190  0.3637 -0.1291  0.0736
15879W        W32727   2.555   2.245   1.617  0.0016  0.1200  0.3753
15880W        W32728  15.638   6.959  17.559  0.1909  0.3998 -0.0595
15881W        W32729   5.891   7.530  14.452  0.2375 -0.0153 -0.0074
15882W        W32730  14.058  13.962   2.627  0.1673 -0.1955  0.0721
15883W        W32731   5.171   4.281  14.500 -0.2250 -0.1950 -0.0787
15884W        W32732  16.912   0.016  14.740  0.0480 -0.2136  0.2032
15885W        W32733   8.331   6.732  13.961  0.1243 -0.1493  0.0132
15886W        W32734   4.658  13.594  16.557  0.0695 -0.1336  0.0434
15887W        W32735   9.780   7.450   0.497 -0.0354  0.4241  0.2190
15888W        W32736   1.086   9.169   0.033  0.0925 -0.1779  0.3072
15889W        W32737   5.706   7.153   0.996 -0.1854 -0.1631 -0.0225
15890W        W32738   3.944   4.714  12.578  0.1525 -0.1595 -0.0923
15891W        W32739   8.445   6.179   2.511 -0.1237  0.3294  0.0116
15892W        W32740  14.958  16.150   4.446 -0.3424 -0.3027  0.0885
15893W        W32741  15.731  10.988   1.257 -0.1876  0.0924 -0.1209
15894W        W32742  11.863   6.293  16.819 -0.4150  0.1163 -0.0599
15895W        W32743   2.676   5.148  14.587  0.0570  0.0210  0.1932
15896W        W32744  11.543   6.517  17.133 -0.1797 -0.1937 -0.0477
15897W        W32745   9.295   8.848  17.571 -0.5658 -0.0460  0.1038
15898W        W32746   2.014   0.762   3.717 -0.0177 -0.1317 -0.2885
15899W        W32747   6.642   4.559  16.540 -0.0657  0.3806 -0.2568
15900W        W32748   7.773  10.002  15.016 -0.0144  0.1253  0.2962
15901W        W32749   0.385   2.046  15.381  0.1367  0.3228  0.0101
15902W        W32750   4.531   3.742  16.927  0.0505  0.1115  0.0721
15903W        W32751   3.552   6.537   5.928 -0.1902 -0.1461  0.0947
15904W        W32752   1.299  12.517  13.669  0.2309  0.0788  0.0194
15905W        W32753   1.417   9.235  16.489  0.0088  0.0343 -0.1234
15906W        W32754  11.162   9.482   0.556  0.0091 -0.2150  0.2241
15907W        W32755   7.211   6.161   2.967 -0.1095 -0.0073  0.0609
15908W        W32756   8.554   4.822  14.741 -0.0778 -0.1532 -0.2345
15909W        W32757   5.254   8.189  14.391  0.0400 -0.0801  0.1552
15910W        W32758  13.404   5.772  13.101 -0.1997 -0.0746 -0.0796
15911W        W32759   3.881   6.681  12.929  0.2844 -0.2458  0.1698
15912W        W32760  10.759   6.520  12.722 -0.0478  0.3473 -0.0313
15913W        W32761   3.834   0.499   1.720  0.2338 -0.0498  0.2765
15914W        W32762  14.207  12.879  16.938  0.0062  0.1807  0.0026
15915W        W32763   5.902   8.129   2.988 -0.0744  0.0635  0.1300
15916W        W32764   4.498  15.801  11.975 -0.0391  0.2438  0.1344
15917W        W32765   0.451  10.041  17.189 -0.0291  0.0574 -0.0642
15918W        W32766  13.271   1.090  13.688 -0.2418 -0.1959 -0.1775
15919W        W32767   8.023   4.508   2.881  0.1624 -0.1820 -0.1615
15920W        W32768  13.875   4.084   1.164 -0.0297  0.0421 -0.1768
15921W        W32769   6.359   5.851  13.750  0.1183 -0.0920  0.0472
15922W        W32770   7.961   5.203  13.440 -0.0337  0.3871  0.2244
15923W        W32771  13.758   4.226   3.065  0.1802  0.2000 -0.0667
15924W        W32772   4.786   3.761   2.941 -0.1020 -0.0005 -0.2061
15925W        W32773   2.054   0.507   0.807  0.1005 -0.0584  0.3197
15926W        W32774   3.375   9.658  12.796 -0.0834  0.2028  0.3459
15927W        W32775   1.565   8.990  13.584 -0.3408  0.2367 -0.0955
15928W        W32776   7.507   4.497  14.889 -0.0543 -0.2165 -0.1450
15929W        W32777   8.243   7.700   6.373 -0.1597  0.2917  0.0733
15930W        W32778   9.714  11.848   0.094  0.0217  0.3349  0.3061
15931W        W32779   4.690   9.235   1.693 -0.0079 -0.0581 -0.1444
15932W        W32780  11.695  15.409  15.795 -0.1243 -0.0033  0.1387
15933W        W32781   6.598  14.632   4.343 -0.1182 -0.0320 -0.0214
15934W        W32782   4.564  11.556  13.291  0.1586  0.0673 -0.2846
15935W        W32783   0.738  15.236  12.477  0.0401  0.2573 -0.1005
15936W        W32784   2.812   2.857  16.322  0.3505  0.0228 -0.1959
15937W        W32785   8.948  11.482   0.978  0.1065 -0.0951 -0.0592
15938W        W32786   5.154   1.904   4.447  0.0773  0.0149  0.1523
15939W        W32787   4.978   3.158  12.818 -0.2011 -0.5099 -0.0106
15940W        W32788   2.562   0.954   1.400  0.2413 -0.0748 -0.2723
15941W        W32789  11.305  13.400  14.695  0.2027 -0.1826 -0.2949
15942W        W32790  10.120  11.968  13.139  0.2121 -0.0157 -0.1033
15943W        W32791   6.354  16.914  12.799  0.2236 -0.2791 -0.2505
15944W        W32792   7.851   2.607   0.414 -0.0195  0.0640 -0.2365
15945W        W32793   2.324  13.904   5.582  0.0738  0.0815 -0.1228
15946W        W32794  12.313   5.535  15.346 -0.3721 -0.0641 -0.1123
15947W        W32795   7.461   1.086   4.005 -0.2245 -0.3930 -0.0002
15948W        W32796   2.884  12.004  16.914  0.4513  0.0392 -0.1010
15949W        W32797  14.028  12.445  16.504  0.2275  0.3109 -0.0053
15950W        W32798  15.046   2.298  17.334 -0.0232  0.1656 -0.2681
15951W        W32799  14.950   4.009   0.207 -0.2217  0.1325  0.4904
15952W        W32800  11.291  12.235   2.305  0.0867  0.2981 -0.0594
15953W        W32801   4.111   2.149   5.877  0.0474 -0.2630  0.0771
15954W        W32802  16.382  11.312  15.288  0.1100 -0.1741  0.0111
15955W        W32803   6.424   0.104  13.721 -0.0245 -0.1739 -0.1360
15956W        W32804  16.640  16.451   2.009  0.1243  0.1425 -0.1423
15957W        W32805  15.332   8.677   1.822  0.2295  0.0085 -0.1748
15958W        W32806   4.642   9.202   3.515 -0.2433  0.2375 -0.0482
15959W        W32807   6.258  15.998   4.365  0.1246  0.1342  0.0528
15960W        W32808  11.641   2.419   1.554 -0.0044  0.0008 -0.2753
15961W        W32809  11.587  15.100  13.476  0.0252  0.4025  0.0873
15962W        W32810  11.688  14.160   1.243 -0.3372 -0.1062  0.2758
15963W        W32811   3.398   6.894  13.690 -0.1915 -0.0075 -0.0863
15964W        W32812   4.127   8.706   1.089  0.0272  0.0952 -0.0281
15965W        W32813   8.297  10.566   4.716  0.0929  0.0613 -0.1072
15966W        W32814   5.091   2.778  15.329  0.1602 -0.3625 -0.2644
15967W        W32815   0.654   4.317  15.664  0.2063  0.0247 -0.1262
15968W        W32816  10.394  10.823   5.191  0.0798  0.0582 -0.0465
15969W        W32817  16.712   7.819   0.518 -0.1241  0.2612  0.1263
15970W        W32818   1.406   7.333   4.881  0.3072 -0.1185 -0.1493
15971W        W32819   0.235   2.814  14.446 -0.1061  0.2833 -0.2514
15972W        W32820   5.511  12.208   2.781  0.0357 -0.2942 -0.3312
15973W        W32821   3.409   4.475   3.313  0.0383 -0.1423  0.2697
15974W        W32822  16.548   1.940   4.149  0.2980  0.3371  0.1877
15975W        W32823   2.756  10.282   3.092 -0.0872  0.2392 -0.1377
15976W        W32824   8.373  11.249   2.175  0.1184  0.0555 -0.0955
15977W        W32825   9.751   0.427  13.555  0.2596  0.3531 -0.0016
15978W        W32826   0.585  16.575   5.258  0.1083  0.1447 -0.1271
15979W        W32827   1.108  14.785  14.238 -0.2922 -0.0050 -0.0252
15980W        W32828  13.057   3.376   5.026 -0.0159 -0.4693 -0.0808
15981W        W32829   9.460  12.635  17.222  0.2613 -0.0525 -0.1248
15982W        W32830  12.221  15.497  17.182 -0.1516  0.1092 -0.3326
15983W        W32831  14.512   0.212  16.605 -0.1108 -0.0684  0.2471
15984W        W32832  12.253   7.357   5.701  0.1794  0.0897 -0.0104
15985W        W32833   4.101  10.143  17.695  0.1876 -0.0735 -0.3477
15986W        W32834   9.521  10.817   0.342 -0.0735 -0.1165 -0.1183
15987W        W32835  15.041   8.906  16.329 -0.1598 -0.2303 -0.0910
15988W        W32836   4.296   6.237   1.039  0.1482 -0.2329  0.0206
15989W        W32837   9.306  15.039  14.402  0.0407 -0.1340 -0.0546
15990W        W32838   8.447   9.675  15.251 -0.2416 -0.1854 -0.0210
15991W        W32839   9.621  13.781   1.481 -0.0714  0.0735  0.0871
15992W        W32840  15.545  10.679   2.917 -0.4745  0.0733 -0.0909
15993W        W32841   7.869   6.592  14.212 -0.0169  0.0030 -0.0115
15994W        W32842   8.672   5.622  17.441  0.2392 -0.4093 -0.0596
15995W        W32843  13.254   4.833   1.802 -0.1049  0.0873 -0.0926
15996W        W32844   5.585  14.150   6.682  0.1185  0.3046 -0.0659
15997W        W32845   7.573  14.414   0.733 -0.0467  0.0526  0.0999
15998W        W32846   8.750  11.524   2.881  0.0082  0.2671 -0.1476
15999W        W32847   1.102  13.847   3.115  0.2615  0.4105 -0.0507
16000W        W32848  12.999   8.567   2.657 -0.2330  0.0778 -0.0208
16001W        W32849  11.265  14.671  16.472 -0.4459 -0.1154 -0.2619
16002W        W32850   5.288  10.156  14.393 -0.0177 -0.0322 -0.3098
16003W        W32851  13.346   7.709  13.943 -0.0097 -0.2208 -0.1420
16004W        W32852  16.549   5.470   2.351 -0.2182 -0.2369  0.3649
16005W        W32853   4.578   5.334  12.721 -0.1755 -0.2813  0.0830
16006W        W32854  12.044  10.893  15.207 -0.0806 -0.0303  0.1590
16007W        W32855  11.010   5.258  12.188  0.0478  0.1243 -0.0925
16008W        W32856   8.637  10.053   0.545 -0.0384 -0.2566  0.0941
16009W        W32857   1.570   9.004   1.260  0.1777 -0.1666  0.0329
16010W        W32858  15.360   9.615   3.522 -0.0369  0.0474  0.1836
16011W        W32859   5.226  10.840  17.615 -0.0063  0.0379  0.1602
16012W        W32860   1.584   2.934   3.000  0.2034 -0.1423  0.2116
16013W        W32861  10.712   6.397   0.065  0.0476 -0.0201 -0.0422
16014W        W32862   5.679   6.620   2.273 -0.0352  0.0754  0.0166
16015W        W32863   3.528   7.409   4.725 -0.0979 -0.0177  0.0353
16016W        W32864   3.677   5.642  17.625  0.0438 -0.0068  0.0004
16017W        W32865   3.476  11.042   0.985  0.0346  0.0422  0.2835
16018W        W32866   4.776   3.725   0.705  0.1111 -0.0949  0.2419
16019W        W32867  14.567  14.201   2.504 -0.0789  0.0541  0.0697
16020W        W32868   1.384  13.540   4.843 -0.1194  0.3096 -0.1702
16021W        W32869  14.768   5.394   5.222  0.1533  0.2384  0.1901
16022W        W32870  13.763   6.875  16.749  0.0253  0.3299  0.2820
16023W        W32871   2.739  10.970   0.429 -0.0215 -0.0178  0.1454
16024W        W32872   5.756   0.038   2.516 -0.1509 -0.1085 -0.0564
16025W        W32873  11.223  15.263   4.644  0.2688  0.3156 -0.1797
16026W        W32874  12.813   9.732   5.486  0.2328 -0.1698  0.0902
16027W        W32875   0.308  12.787   2.858  0.1728 -0.1779  0.0981
16028W        W32876   4.846  12.947   4.871  0.0948  0.1046 -0.2306
16029W        W32877  15.500  14.657   5.405 -0.0607  0.0088 -0.0112
16030W        W32878   5.751   3.177  13.998  0.0393 -0.2264 -0.0479
16031W        W32879   8.453   3.490  15.373  0.2596  0.1225 -0.0463
16032W        W32880  10.575  15.764   3.725  0.2378  0.1418  0.3586
16033W        W32881  13.542   7.068   4.180 -0.3325  0.0185 -0.1240
16034W        W32882  11.432  15.000   4.272 -0.1918 -0.1856 -0.2335
16035W        W32883  15.058  15.986   5.451  0.1696  0.1095 -0.0272
16036W        W32884   2.446   6.259  13.143 -0.2345  0.2749  0.0943
16037W        W32885   5.006   2.422   4.599  0.0727 -0.0471 -0.1922
16038W        W32886  13.352  13.915  14.313  0.2736 -0.0455  0.2178
16039W        W32887   0.771   9.039  15.264 -0.3259 -0.0563 -0.0230
16040W        W32888   3.307   0.951  17.542  0.0226 -0.0490  0.0489
16041W        W32889   3.839  15.309   1.391  0.0608 -0.0231 -0.0058
16042W        W32890  10.509  10.797   0.671 -0.1437  0.0383 -0.1628
16043W        W32891  12.544  11.293  15.112  0.2605  0.2011 -0.0745
16044W        W32892   5.438   0.266  16.320  0.1289  0.2438  0.0555
16045W        W32893   6.780   6.489  12.898 -0.1680  0.4085 -0.1423
16046W        W32894  12.407  15.124  16.905  0.1867 -0.0860 -0.2685
16047W        W32895   0.969   5.914   2.725 -0.1988 -0.1264 -0.2220
16048W        W32896  15.804  10.125   4.771  0.2077  0.2185 -0.0467
16049W        W32897  15.170   7.755  14.498  0.1364  0.1904 -0.1511
16050W        W32898   6.097   1.808   5.605 -0.3377 -0.0249  0.2121
16051W        W32899  17.045  10.155   5.461 -0.0060  0.0343 -0.1223
16052W        W32900  16.689   9.589  14.043  0.4480  0.0082  0.3572
16053W        W32901  14.677  14.095   1.989  0.1528 -0.0651 -0.0016
16054W        W32902   3.948  11.450   4.442 -0.0095 -0.1415 -0.0800
16055W        W32903   9.855  11.975   2.782  0.0711  0.1563 -0.0861
16056W        W32904   0.248  16.568  12.665  0.2909  0.2620 -0.1405
16057W        W32905  12.692  10.204   5.546 -0.1098 -0.1144  0.2000
16058W        W32906   7.075  14.945   5.248  0.0937  0.1249  0.1819
16059W        W32907   0.824   1.686  16.453  0.3253 -0.0664 -0.2947
16060W        W32908   9.848  11.355  16.156 -0.1958 -0.3253 -0.2186
16061W        W32909  11.904   3.493  15.484 -0.0097 -0.0354  0.0781
16062W        W32910  10.050  14.481   4.365  0.0092  0.0173 -0.0911
16063W        W32911   5.330   0.188  15.709  0.4051  0.0303  0.0427
16064W        W32912  15.563   0.494   2.158 -0.0325  0.1089 -0.0108
16065W        W32913  10.387   2.122  16.898 -0.1088 -0.1095 -0.0701
16066W        W32914   1.622  15.602   4.171 -0.1280 -0.1598 -0.2814
16067W        W32915  13.736   6.185  13.336 -0.1022 -0.0103  0.2744
16068W        W32916   7.835   0.403   3.917 -0.1026  0.2352 -0.2824
16069W        W32917   6.098  11.206  12.958 -0.0925 -0.1357 -0.3011
16070W        W32918  12.112  12.593   1.851 -0.0974 -0.1276  0.0731
16071W        W32919   2.872   9.313  14.744 -0.4660  0.0089  0.2569
16072W        W32920   5.331  17.047   3.437 -0.0247 -0.0772  0.4313
16073W        W32921   3.384   7.725  17.481 -0.0426 -0.0934  0.0837
16074W        W32922  12.781   5.294  15.567 -0.0216  0.1962  0.1677
16075W        W32923   5.515   6.155  16.618  0.0291  0.3389  0.0990
16076W        W32924   6.760  15.127  13.063 -0.1054  0.2313  0.0718
16077W        W32925  16.460   0.517  15.556  0.0257 -0.0524 -0.0165
16078W        W32926   6.710   4.448   0.619 -0.2996 -0.0763  0.2759
16079W        W32927   1.657  15.362  15.192  0.2309 -0.2876  0.0510
16080W        W32928  11.566   9.648  14.487  0.1314 -0.1108 -0.3118
16081W        W32929  11.382  12.945  12.590  0.1152  0.1864  0.1777
16082W        W32930  16.991  11.808  14.902  0.0616  0.2171  0.0103
16083W        W32931   5.024  14.298  14.231  0.0610 -0.1897 -0.0353
16084W        W32932   4.687  15.291  15.064 -0.0678  0.0674 -0.0134
16085W        W32933   1.926   2.764   5.849  0.0733  0.1679  0.2933
16086W        W32934   6.626  11.173  16.795 -0.3178 -0.3513  0.0604
16087W        W32935   2.307   5.742  13.338 -0.3156 -0.1410 -0.0566
16088W        W32936   1.316  14.369   3.386  0.0605  0.2453  0.1444
16089W        W32937   0.322  10.925   4.201  0.0466 -0.1438 -0.0703
16090W        W32938   6.268  15.224   5.414  0.0373  0.0074 -0.2791
16091W        W32939   9.350  14.705   0.978 -0.0332 -0.0943  0.1666
16092W        W32940   6.138   1.430   1.487  0.0030 -0.2321  0.1267
16093W        W32941  15.582   6.002  15.929  0.2434  0.1042 -0.1846
16094W        W32942   0.545  13.980  15.832  0.0817 -0.2530  0.0952
16095W        W32943  14.669  16.404  13.788  0.3423  0.0708  0.2301
16096W        W32944   9.572  13.515  16.995  0.0487 -0.0944  0.1583
16097W        W32945   1.057   4.010   0.717  0.2113  0.1853  0.2523
16098W        W32946  10.223   2.714   2.432  0.2167  0.2261 -0.1661
16099W        W32947   6.915  13.351  17.841 -0.0508 -0.2595 -0.0713
16100W        W32948  12.659   2.250  15.077 -0.1090 -0.4890 -0.0100
16101W        W32949   9.802   3.935   4.159 -0.2791  0.2500  0.3011
16102W        W32950  16.214   2.283   3.603 -0.2730 -0.0717  0.0420
16103W        W32951   7.635   0.187  14.501 -0.0020  0.0224  0.1900
16104W        W32952  15.022  13.682  17.350  0.1494  0.1541 -0.3738
16105W        W32953   8.710  13.117   4.753 -0.2972  0.2478  0.1897
16106W        W32954   9.659   9.946   0.107  0.0414  0.2410 -0.0166
16107W        W32955   1.147   1.139   1.621  0.2298 -0.0190  0.1489
16108W        W32956   1.605   1.253  13.879  0.0517  0.0946 -0.1448
16109W        W32957  16.699  14.324   1.341 -0.1942  0.2370  0.2089
16110W        W32958   7.345  12.899   4.321 -0.2045 -0.2125  0.1306
16111W        W32959   2.920   0.527   1.340  0.0768  0.1890  0.3356
16112W        W32960   5.189  12.628   5.172 -0.2401  0.0405  0.0605
16113W        W32961   7.732   9.120  15.455 -0.0619 -0.0821  0.0131
16114W        W32962   3.133  15.774   3.871 -0.0762 -0.0663  0.1336
16115W        W32963  13.467   8.346  15.589 -0.0495  0.0303 -0.2751
16116W        W32964  16.648   3.892  16.082  0.1109 -0.2762 -0.0431
16117W        W32965   4.317  11.231   1.337 -0.0628 -0.2889 -0.2505
16118W        W32966   3.467  13.142  16.102  0.1315  0.0495  0.0331
16119W        W32967  12.544   2.028  13.706  0.2169 -0.1532 -0.0067
16120W        W32968  15.283   3.850  16.462  0.0982 -0.2385  0.0277
16121W        W32969  15.721  12.661   3.344  0.0524 -0.2344  0.0031
16122W        W32970  15.440   8.508  16.225 -0.3255 -0.2118 -0.0362
16123W        W32971  14.729   8.946   2.996  0.0665  0.0740 -0.3124
16124W        W32972   2.801  13.554   2.037  0.1027  0.1693  0.1488
16125W        W32973  11.609   2.588  12.816 -0.0924  0.3499  0.0527
16126W        W32974   9.268   9.792   2.438  0.1372 -0.0915 -0.1160
16127W        W32975   9.724  11.150  12.595  0.1780 -0.3827 -0.0798
16128W        W32976   7.931   6.805  13.729  0.1496  0.0301  0.4307
16129W        W32977   7.312   1.241   0.703 -0.0324 -0.0139  0.0372
16130W        W32978  14.433   8.603   3.427  0.3021  0.2056 -0.1568
16131W        W32979  14.644   3.489  13.392  0.1708  0.3888  0.4325
16132W        W32980   8.308  15.042   5.969  0.1758  0.1484 -0.0399
16133W        W32981  11.928   3.856  13.557 -0.2156  0.2589  0.0545
16134W        W32982  16.142   3.960   4.278 -0.0577  0.1598  0.0008
16135W        W32983   4.324   6.805   0.128  0.1861  0.2489  0.2336
16136W        W32984   7.773   0.747  16.790 -0.0311 -0.1207 -0.2233
16137W        W32985   3.307   8.328  16.100  0.0101 -0.2384 -0.1690
16138W        W32986   9.826  16.999   0.887  0.1459 -0.2125 -0.1120
16139W        W32987   8.614   3.827  14.498  0.0955  0.0285  0.0531
16140W        W32988   6.473  15.856   1.751 -0.2094  0.0663 -0.2950
16141W        W32989   2.949  14.439  13.152  0.0243  0.0471 -0.0811
16142W        W32990   0.390   4.379   2.779  0.1746  0.0704 -0.2230
16143W        W32991  14.528  13.663   1.818  0.0160 -0.0052  0.3813
16144W        W32992   3.115   0.462   5.665  0.0172  0.1786  0.1147
16145W        W32993   4.717   3.749  15.174  0.0465  0.0406 -0.0572
16146W        W32994   0.375   6.663  16.349  0.2849 -0.1604 -0.1133
16147W        W32995  11.031   8.949  13.778 -0.1911 -0.1762  0.0774
16148W        W32996  10.931  14.385   2.524 -0.0660 -0.2573 -0.0462
16149W        W32997   2.326   4.455   2.979  0.1894  0.4570  0.0669
16150W        W32998   1.800   0.810  15.838 -0.2658 -0.0231  0.0873
16151W        W32999   5.954   7.193   0.521 -0.0420 -0.3391 -0.2548
16152W        W33000   7.138  17.003   2.177  0.3427  0.2359 -0.2018
16153W        W33001  16.263   0.255   5.263  0.3191  0.0572  0.0111
16154W        W33002  14.051   3.764   4.404 -0.0243 -0.1905 -0.4016
16155W        W33003   5.144  12.494   0.997 -0.0333 -0.0667 -0.0478
16156W        W33004   8.371  13.584  15.894 -0.1605 -0.2029  0.0238
16157W        W33005   2.619  13.651   5.916 -0.2266 -0.3031 -0.2835
16158W        W33006  10.819  16.300   0.079 -0.0769 -0.0978 -0.1155
16159W        W33007   2.700  15.061  12.834  0.2542 -0.0513 -0.2392
16160W        W33008   3.817  15.838   1.215 -0.2402 -0.1416  0.0858
16161W        W33009  12.007  14.070   4.275  0.0023  0.2445  0.3548
16162W        W33010  14.441   7.194  14.702 -0.1284 -0.1196  0.0079
16163W        W33011   7.014  12.994  16.945  0.0742  0.1743  0.0017
16164W        W33012  14.426   2.538  13.481 -0.0574 -0.0548 -0.2295
16165W        W33013   9.114   2.547  17.302 -0.4966  0.1384  0.0491
16166W        W33014  16.907   2.855   4.493  0.0209  0.1438  0.0566
16167W        W33015   3.533  13.391   4.080 -0.1573 -0.0027 -0.0782
16168W        W33016   8.779  13.556  16.530  0.0919  0.1914  0.1054
16169W        W33017   4.286  15.144  17.397 -0.0094  0.0073 -0.0460
16170W        W33018  11.769   6.520   5.380  0.2656  0.1720 -0.1479
16171W        W33019   6.516   5.947   2.098 -0.2978  0.0819 -0.2210
16172W        W33020   5.564   1.741  15.884 -0.0472 -0.0075  0.4834
16173W        W33021  13.392   7.187  13.997 -0.0222  0.0727 -0.2143
16174W        W33022   4.203  16.731  12.720 -0.1087 -0.0730  0.3424
16175W        W33023   2.195   1.857  15.594  0.1056  0.2419  0.0584
16176W        W33024   9.518   6.953   2.911  0.3068  0.2577 -0.0268
16177W        W33025   9.901  13.163  13.780 -0.0020  0.0794  0.0134
16178W        W33026   5.199   3.672  17.459 -0.4438  0.0046  0.0923
16179W        W33027   9.643   1.685   4.517  0.0239  0.0572  0.0754
16180W        W33028   8.563   9.941   1.085 -0.0287  0.2741  0.0332
16181W        W33029   1.477   4.662  16.472  0.0863 -0.1936  0.0736
16182W        W33030  16.193   3.391   1.577 -0.1380 -0.2011 -0.0736
16183W        W33031  14.308   4.057  14.754  0.0016  0.0506 -0.0130
16184W        W33032   1.625   4.112  17.759 -0.0943  0.0443 -0.0029
16185W        W33033  15.329   5.938   3.457  0.0298  0.0807 -0.0053
16186W        W33034   7.213   6.280   5.181  0.3690 -0.1197 -0.0203
16187W        W33035   7.291   2.472   2.320  0.0010 -0.0790 -0.1820
16188W        W33036   3.081  10.145   1.284  0.1583 -0.1212 -0.1599
16189W        W33037  16.705  14.347  11.788  0.1473 -0.3047  0.1086
16190W        W33038  10.939   1.055  17.499  0.0576  0.1315  0.1086
16191W        W33039   3.767   4.901   0.049 -0.0427 -0.0847 -0.0675
16192W        W33040   4.732   9.233  17.342  0.0578  0.2824  0.2483
16193W        W33041   6.782   3.334   5.730  0.0133 -0.1365  0.2085
16194W        W33042   2.176   4.100   2.608  0.0877  0.0231 -0.0212
16195W        W33043   4.529   5.744  16.196  0.0015 -0.3815 -0.0798
16196W        W33044   3.666  11.606  14.013 -0.1185  0.0159 -0.1755
16197W        W33045   7.916   3.046  14.304  0.2590  0.1064 -0.0546
16198W        W33046  11.849   8.670  13.523  0.1898 -0.0471  0.1808
16199W        W33047   1.899   7.549  15.843 -0.1893 -0.0316  0.2607
16200W        W33048   5.428   0.157  14.921  0.1384  0.2283  0.0739
16201W        W33049   4.117   8.449   1.500 -0.0670 -0.0832 -0.2051
16202W        W33050  10.944   9.684   2.065  0.1326 -0.1084  0.3132
16203W        W33051   7.469   8.095   3.545 -0.0984  0.3408  0.0398
16204W        W33052   4.414   9.220  13.738  0.1291 -0.1693  0.0783
16205W        W33053  10.881  12.646   0.423 -0.0698  0.0904  0.3945
16206W        W33054  16.059   1.547  13.498 -0.0756  0.1133  0.1482
16207W        W33055  15.382  11.721   0.550 -0.1523  0.1655  0.3701
16208W        W33056   6.877   8.411  16.258 -0.3178  0.0434 -0.0226
16209W        W33057   3.210  12.537  13.780  0.1865 -0.0379  0.1123
16210W        W33058   6.101   3.678  15.135  0.1088 -0.0068  0.1678
16211W        W33059  11.190  13.450   4.774 -0.1701 -0.1774  0.0199
16212W        W33060   2.042  12.981  13.875 -0.2807 -0.0886 -0.1367
16213W        W33061   4.588  15.308   3.573  0.0036 -0.0070  0.0489
16214W        W33062  13.237   3.552   1.764 -0.0234  0.1151 -0.1571
16215W        W33063   9.945   6.682  17.366  0.0746 -0.0490 -0.3234
16216W        W33064   0.562  13.168  15.804 -0.2055 -0.0600  0.1979
16217W        W33065  16.560  15.912   3.706  0.0982  0.3104  0.2645
16218W        W33066  10.034   1.873   3.744  0.0756 -0.1042  0.2515
16219W        W33067   8.400   4.935   2.874  0.0144  0.1722  0.1543
16220W        W33068   0.103   2.813  16.570  0.0717 -0.0305 -0.0509
16221W        W33069   5.034  10.136   2.840  0.0067 -0.1810  0.0918
16222W        W33070   3.099   1.203  13.802 -0.1042  0.0428  0.0469
16223W        W33071   0.922   9.848  15.029 -0.1527 -0.2318  0.0429
16224W        W33072  13.466   0.047   2.418  0.1277  0.2215 -0.0317
16225W        W33073  13.115   2.715  12.743  0.0632  0.0031  0.2089
16226W        W33074   5.666   3.558   4.687  0.0729 -0.2753  0.1058
16227W        W33075   0.755  16.012   2.272  0.0052 -0.2864  0.0782
16228W        W33076  15.991   2.455  17.489  0.0478  0.1079 -0.0454
16229W        W33077  16.630  13.780   4.768  0.0222 -0.0859  0.1789
16230W        W33078   4.330  13.196   1.456  0.1649 -0.0069  0.1747
16231W        W33079   4.687  12.016  12.127 -0.0710 -0.2098 -0.1935
16232W        W33080   8.560   4.405   5.539 -0.1652 -0.2159 -0.0369
16233W        W33081  15.386   8.122  15.270 -0.1531 -0.1070 -0.0244
16234W        W33082  10.847   7.567  14.901  0.1773  0.0410  0.0818
16235W        W33083   8.611   0.092   5.117 -0.1140  0.3256  0.1880
16236W        W33084  12.365   0.125   1.680  0.0102 -0.2492 -0.2774
16237W        W33085   9.543  15.889  15.923 -0.1968 -0.0420 -0.1851
16238W        W33086  17.021   3.358   4.081  0.0307  0.1858 -0.2561
16239W        W33087   1.766  11.852  12.507  0.0011  0.2272  0.0331
16240W        W33088   1.029  14.038   0.047 -0.1316 -0.0263  0.2084
16241W        W33089   9.639  13.375   2.624 -0.2751  0.1766  0.0887
16242W        W33090   2.277   2.055  14.247 -0.1266  0.2122  0.0031
16243W        W33091   6.342   9.600  16.712 -0.2072  0.2776 -0.3586
16244W        W33092   2.614   1.968   2.056 -0.0133  0.0620  0.0885
16245W        W33093   8.454   2.726  16.072  0.0103 -0.3023  0.0065
16246W        W33094   9.658  12.986   4.733  0.2200  0.1001  0.1037
16247W        W33095  15.610   7.989   1.342 -0.6176  0.2367  0.1271
16248W        W33096   8.283   0.425  15.619 -0.4560  0.1118  0.1926
16249W        W33097   9.595   6.028   2.404  0.0487  0.2469 -0.1989
16250W        W33098  10.514   2.760   5.302 -0.1755  0.0719 -0.0116
16251W        W33099   0.468  11.761   0.292 -0.3262  0.2264 -0.2275
16252W        W33100   4.002   2.856   6.426  0.0475  0.1209 -0.3571
16253W        W33101   6.592   7.746  16.964 -0.1849 -0.1150  0.0005
16254W        W33102   9.488  12.061   3.118 -0.1152  0.0326  0.1280
16255W        W33103  14.362  12.713  17.559  0.0669 -0.0296 -0.0214
16256W        W33104  14.354   1.392   3.093 -0.0182 -0.0880  0.1796
16257W        W33105   3.236   1.757   1.856  0.0889 -0.0970 -0.1049
16258W        W33106  15.524   4.195  16.720  0.0850 -0.0493 -0.0015
16259W        W33107  16.277   9.539  15.896  0.1705  0.0015 -0.1973
16260W        W33108  10.348   6.017   3.362  0.1230 -0.3076  0.0745
16261W        W33109   4.650   5.512   0.887 -0.0769  0.1503 -0.0319
16262W        W33110  12.038   1.991  14.425 -0.1217  0.0072 -0.1018
16263W        W33111  14.025  14.809  15.719  0.1908  0.2446  0.2210
16264W        W33112   9.725  16.193  15.584  0.1567  0.2300 -0.0085
16265W        W33113  14.291  14.984  16.765  0.0746 -0.3731 -0.1865
16266W        W33114  15.807  11.047   4.389 -0.0669 -0.0670 -0.0132
16267W        W33115   9.967   4.751  16.302  0.2903  0.0197 -0.0944
16268W        W33116  10.835  15.554  13.426  0.0321  0.4447 -0.2119
16269W        W33117   7.113   6.622  16.800 -0.1560 -0.2385 -0.1350
16270W        W33118  16.545   4.388  11.931 -0.2628  0.2364  0.0012
16271W        W33119  14.898   8.859   1.925 -0.0394  0.3448  0.0480
16272W        W33120  12.740  13.479  12.207 -0.2156  0.4706  0.2142
16273W        W33121   8.789   3.330   0.540  0.1115  0.0015  0.1376
16274W        W33122   5.816   7.242  11.515 -0.1862 -0.0184  0.0083
16275W        W33123  13.203   4.081   3.453 -0.2526  0.4392  0.0018
16276W        W33124   0.615  13.259  17.420 -0.0878  0.0359  0.0065
16277W        W33125   8.645   8.548   3.807  0.0133  0.1339 -0.0657
16278W        W33126   9.797  13.100  12.085  0.2737 -0.1576 -0.1615
16279W        W33127   1.033   3.892  16.929  0.1846 -0.2420 -0.2103
16280W        W33128   9.926   9.829  16.227  0.2378 -0.0508  0.0719
16281W        W33129   0.515   7.544   5.588  0.1187  0.1595  0.3878
16282W        W33130   1.685  12.721  12.839 -0.2017  0.0266  0.0218
16283W        W33131  15.984   2.059  17.114 -0.0959 -0.0622 -0.0282
16284W        W33132  14.251  11.004   5.913  0.1624  0.0922 -0.1694
16285W        W33133   5.925  16.704   2.643 -0.1088  0.1622 -0.0755
16286W        W33134  15.002   4.140  17.585  0.0718  0.0549 -0.1536
16287W        W33135   3.108  10.543   1.766 -0.1871  0.3673  0.0532
16288W        W33136   7.705   3.120  12.965 -0.0796  0.0066 -0.0697
16289W        W33137   6.900  16.775  17.208 -0.1155 -0.3742 -0.0228
16290W        W33138   2.239   3.985   3.648  0.1766 -0.1752 -0.3360
16291W        W33139   9.686  12.447   6.714 -0.0412  0.0516 -0.0270
16292W        W33140   8.213  12.835   1.700 -0.3284  0.1146 -0.1056
16293W        W33141  13.611   2.020  17.074 -0.2438 -0.0450 -0.1890
16294W        W33142   4.953  15.136  15.979 -0.0573 -0.1906  0.0022
16295W        W33143  11.618  12.189   5.257 -0.2322 -0.1094  0.0038
16296W        W33144   9.060   3.781   3.493  0.1433 -0.3415  0.0417
16297W        W33145   2.233   8.426  17.804  0.0831  0.0035 -0.0826
16298W        W33146   3.820  11.376   1.415  0.2965  0.1318  0.0955
16299W        W33147  14.619   6.891  16.531  0.3018 -0.0632 -0.2036
16300W        W33148   5.282   8.281  15.698 -0.2008  0.1337  0.0661
16301W        W33149   9.390   2.556  13.669 -0.0297 -0.1209 -0.2346
16302W        W33150   4.783   4.969   3.161  0.1344  0.2384  0.1730
16303W        W33151  12.301   1.435  15.736  0.0832  0.1306  0.0684
16304W        W33152  11.475   8.689   3.611  0.2888 -0.0451  0.0538
16305W        W33153   0.516   3.320  14.320  0.2156 -0.0949 -0.0638
16306W        W33154   4.814  12.838   0.749 -0.0840  0.0651  0.0566
16307W        W33155  15.834  14.618  15.523  0.1620 -0.1370  0.1872
16308W        W33156  15.677   7.793   2.059  0.1255 -0.0023  0.0112
16309W        W33157  13.203   8.478   1.973 -0.4045 -0.0800  0.1961
16310W        W33158   8.968   2.692  16.823  0.1144 -0.0667 -0.3935
16311W        W33159  13.976  14.582   4.901  0.1722 -0.0554 -0.0014
16312W        W33160   6.631   6.005  12.946 -0.1640 -0.2024  0.1350
16313W        W33161   2.436   6.995   0.239 -0.2499  0.0484  0.1268
16314W        W33162  15.096  14.727  12.863 -0.3981 -0.0645  0.0102
16315W        W33163   8.820   0.248  15.522 -0.0083 -0.1518 -0.1021
16316W        W33164   0.544   2.238  15.997  0.2895  0.1814  0.1123
16317W        W33165   9.822   4.744   1.544 -0.0822 -0.2180 -0.0872
16318W        W33166   6.329  10.183   1.661  0.1549 -0.1022 -0.1483
16319W        W33167  14.732  12.583  13.433 -0.0563 -0.1335 -0.0505
16320W        W33168   3.387   8.380   0.052 -0.0916  0.1165 -0.1507
16321W        W33169  11.063  13.290  13.310 -0.2867  0.1289  0.0036
16322W        W33170   2.824  11.152  13.760 -0.0622  0.2798  0.0595
16323W        W33171   1.525  13.948   4.121  0.2224 -0.1056 -0.0312
16324W        W33172   6.363  10.766   0.012  0.0821 -0.0453 -0.0467
16325W        W33173   7.971   3.321  16.774 -0.1413  0.2352 -0.0387
16326W        W33174   0.039   9.407  16.498 -0.0227 -0.1987 -0.0417
16327W        W33175   0.063  15.113   4.915  0.0042 -0.1628 -0.2549
16328W        W33176   5.091   3.676  14.085  0.0661  0.3477  0.0106
16329W        W33177  10.147   0.973   5.477 -0.1324  0.0116 -0.1377
16330W        W33178  11.000   1.732   2.176 -0.2386 -0.3424  0.1022
16331W        W33179  14.616   4.648   2.223  0.0334 -0.0087  0.1260
16332W        W33180   3.169   5.381   2.794  0.2510 -0.0605 -0.0602
16333W        W33181  10.546  13.055   2.984  0.1954 -0.1430  0.0234
16334W        W33182  11.493   1.832  14.352  0.0979 -0.3528 -0.4174
16335W        W33183   4.745   4.282  15.204 -0.2987 -0.3257  0.0709
16336W        W33184   4.614   5.621   1.382  0.1768 -0.0301  0.1611
16337W        W33185  11.134   8.404  17.051  0.2715 -0.2038  0.0464
16338W        W33186  10.929  10.427   2.028  0.0356  0.0080 -0.2387
16339W        W33187  12.651  14.817  12.219 -0.1750 -0.1381 -0.2980
16340W        W33188   1.760  12.190   5.581 -0.1323 -0.0036 -0.0924
16341W        W33189  14.343   5.223  15.815 -0.1548 -0.2731  0.0026
16342W        W33190  16.464   1.650   1.479 -0.0133 -0.0976  0.0616
16343W        W33191   2.312   9.906  17.343 -0.1014 -0.1761  0.0342
16344W        W33192  13.098   9.088  14.566  0.1188  0.0752 -0.0045
16345W        W33193  14.525  13.892  17.446  0.0919 -0.0366 -0.1754
16346W        W33194   9.923  16.266  17.802 -0.4643  0.1934 -0.3839
16347W        W33195   7.600   8.817   1.336 -0.0065 -0.3999  0.2727
16348W        W33196   3.795  13.994   3.029 -0.0396 -0.0499 -0.1591
16349W        W33197  16.461  16.029  14.482 -0.0264 -0.2099  0.3182
16350W        W33198   5.361   4.200   2.481 -0.1148 -0.1241 -0.1089
16351W        W33199   0.296   7.309  15.044  0.0338 -0.0750  0.1125
16352W        W33200   7.956   2.095   0.205  0.0260  0.0760  0.0662
16353W        W33201   7.317  10.369  15.702  0.4102  0.0241  0.0150
16354W        W33202   2.821   5.752   3.718  0.0367 -0.2499 -0.2097
16355W        W33203  10.151  15.469  14.666 -0.1873 -0.0876 -0.0675
16356W        W33204   8.619  16.754   0.485 -0.0938 -0.1989  0.1482
16357W        W33205  12.452   6.561   2.184 -0.2320 -0.2454 -0.2249
16358W        W33206  10.692  12.113   3.695  0.2451  0.1282 -0.1108
16359W        W33207   7.118   8.833   2.998  0.1137 -0.0478  0.0010
16360W        W33208  14.526  10.073   2.173 -0.0965 -0.0153  0.1376
16361W        W33209   6.783   3.147  13.880  0.0455 -0.0923  0.0664
16362W        W33210   7.125  14.615   4.435 -0.1861  0.0311 -0.0860
16363W        W33211  10.995   3.963   5.043  0.1268  0.2228  0.0299
16364W        W33212   0.653   6.510  13.435 -0.0092  0.0609  0.3185
16365W        W33213   7.638   3.222  15.547  0.2467  0.0332  0.0626
16366W        W33214   4.852   8.222  11.629  0.0178 -0.1593 -0.0582
16367W        W33215  10.023   8.497   1.370  0.0014  0.1426  0.0997
16368W        W33216  13.568   6.958   1.557  0.0442 -0.1096 -0.0634
16369W        W33217   1.547  16.440  17.625  0.1733 -0.1189 -0.0855
16370W        W33218  10.224   5.599  16.003 -0.3153  0.1313 -0.0528
16371W        W33219  10.663   9.985   1.231 -0.0973 -0.0148  0.1347
16372W        W33220   9.263   3.045  15.519  0.1150 -0.0403 -0.1062
16373W        W33221   8.071   6.441   5.023  0.0455 -0.3659  0.0115
16374W        W33222   9.179  12.661  17.690 -0.0050 -0.2360 -0.0955
16375W        W33223   5.020   9.945   2.325  0.0153 -0.1262 -0.0786
16376W        W33224  10.289   6.376   2.066  0.0399  0.0065  0.2033
16377W        W33225   4.812  10.550   4.370  0.2064  0.2968 -0.1909
16378W        W33226  13.633   7.961   5.393 -0.0975  0.0001  0.1157
16379W        W33227  13.179   8.876   5.485  0.1275  0.1848  0.3769
16380W        W33228   2.665   4.115   2.774  0.1610 -0.0483 -0.1575
16381W        W33229   3.019   2.992   5.207  0.1769  0.0872 -0.1684
16382W        W33230  13.773   6.455  14.315  0.1916  0.0988 -0.4055
16383W        W33231  16.568   2.436  14.954 -0.0723  0.0873 -0.1052
16384W        W33232  16.755   8.894   0.582 -0.2192  0.0719 -0.0944
16385W        W33233   1.191   6.836  17.005  0.1724  0.2068 -0.0252
16386W        W33234  14.148  15.328  15.760  0.0303  0.0933 -0.2869
16387W        W33235   7.630   5.023  13.128 -0.0307  0.0605 -0.2885
16388W        W33236   6.682   9.073   5.504 -0.0395  0.1873  0.1681
16389W        W33237  11.989   6.343   1.446  0.3089  0.1058  0.0271
16390W        W33238  13.527   7.139   3.537 -0.1321  0.0372  0.1630
16391W        W33239  16.682  15.890   4.942  0.3688 -0.0776  0.0654
16392W        W33240   5.903   5.426   1.717  0.2396  0.5759 -0.0458
16393W        W33241   9.840   8.425   5.314 -0.1066  0.2125 -0.2352
16394W        W33242  10.816  13.389  14.454 -0.0275 -0.0448  0.1847
16395W        W33243   6.175  12.587   0.114  0.1433  0.3755 -0.0808
16396W        W33244   0.082   3.316   3.126 -0.2104  0.4526 -0.0705
16397W        W33245   1.169  13.141  13.402  0.3179  0.2770 -0.0843
16398W        W33246   6.067   4.028   0.138  0.0140 -0.0257  0.1219
16399W        W33247   6.134   8.577  14.600  0.2345 -0.0628  0.3014
16400W        W33248  11.388  12.725   4.088  0.2162 -0.0685  0.0634
16401W        W33249   1.168   2.860  16.632 -0.0809  0.0728 -0.0766
16402W        W33250   6.169  15.643  13.861  0.1722  0.1309  0.0592
16403W        W33251   7.266   3.536  14.006 -0.1430  0.2491  0.2212
16404W        W33252   7.584  11.396   5.300  0.0055 -0.4147 -0.1756
16405W        W33253  11.626  10.726  16.676 -0.0792  0.0928 -0.2045
16406W        W33254  10.455   1.662   4.401  0.1037  0.0277 -0.0885
16407W        W33255   5.635  10.475   1.062 -0.1390  0.3353 -0.0051
16408W        W33256  13.982  12.359  17.693  0.0727 -0.1678 -0.0271
16409W        W33257   1.484   6.137   2.588 -0.0119  0.0605 -0.0588
16410W        W33258   3.792   6.970   6.075  0.2238  0.1579  0.1077
16411W        W33259   3.474   7.048   2.823  0.1728  0.1747 -0.0545
16412W        W33260  13.033   2.780   3.939  0.0349  0.0963 -0.2844
16413W        W33261  10.530   3.856  12.121  0.3658  0.1288 -0.1240
16414W        W33262   8.277  13.944   1.019 -0.1798 -0.1048 -0.2287
16415W        W33263  14.151  12.560   3.111 -0.3032  0.0014  0.0730
16416W        W33264  16.153   3.804   2.411 -0.0938  0.0100  0.1913
16417W        W33265  16.356   8.241   3.277 -0.0676 -0.0744 -0.3231
16418W        W33266  16.319   3.645   3.286  0.2596 -0.0817  0.0477
16419W        W33267   7.982   7.208  16.683 -0.0447 -0.4133  0.1935
16420W        W33268   5.637   5.020   2.918  0.3568 -0.0156  0.0287
16421W        W33269  14.916  10.512   1.592  0.0693  0.0428  0.0344
16422W        W33270   4.942  13.880  12.906 -0.2068  0.0896  0.0684
16423W        W33271  10.156   9.719   2.532 -0.0894 -0.1647  0.1593
16424W        W33272   7.690  15.496   1.485  0.0230  0.2500  0.1434
16425W        W33273  10.225  12.154  16.221  0.3949 -0.5416 -0.3184
16426W        W33274  16.905   6.916   5.453  0.0948 -0.1377 -0.2159
16427W        W33275  11.028  10.845   0.656 -0.3544  0.1806  0.0878
16428W        W33276   8.518  11.815  15.998 -0.0872 -0.0784 -0.2340
16429W        W33277  14.680  12.820  15.808  0.0738  0.1150  0.0546
16430W        W33278   6.750   1.149  15.547  0.1151  0.2994  0.0621
16431W        W33279  11.835   5.861   4.554 -0.2284 -0.2380  0.2136
16432W        W33280  13.567   4.467   1.894  0.0667 -0.0963  0.1433
16433W        W33281  15.460  15.038  16.082  0.1953  0.3473 -0.0728
16434W        W33282   7.745   5.410   3.145 -0.0063 -0.0630 -0.0894
16435W        W33283   2.992   6.274   0.755  0.2566 -0.2697  0.2316
16436W        W33284  10.364  13.943   0.550  0.1112 -0.0732 -0.2503
16437W        W33285   9.406   5.001   2.737  0.0987  0.1195 -0.2113
16438W        W33286   4.058  15.043   0.048 -0.0018 -0.0325  0.1080
16439W        W33287   1.799  12.458  13.254  0.1193  0.0858  0.0375
16440W        W33288  16.295   7.770  15.578 -0.2964 -0.0569  0.1500
16441W        W33289  11.094  16.291   4.781 -0.0648  0.0441  0.0424
16442W        W33290  10.744   7.331   0.170  0.0431 -0.1793  0.1153
16443W        W33291  12.981  10.271   2.813  0.1709  0.0698  0.0500
16444W        W33292   2.717   4.571   0.880 -0.2620  0.1308 -0.0985
16445W        W33293  16.350  11.111   0.275 -0.0157 -0.0681  0.0244
16446W        W33294   0.616  11.340   4.201  0.2637 -0.0306  0.2978
16447W        W33295  14.905  10.529   1.096  0.2080 -0.0032 -0.2139
16448W        W33296  11.701  16.172   1.342 -0.0386  0.1257 -0.1610
16449W        W33297  10.647  12.925  13.300  0.1078 -0.3630  0.2398
16450W        W33298  16.764   4.817  15.098 -0.1460 -0.0076  0.1713
16451W        W33299   5.929   5.707  11.940  0.2028  0.1485  0.0263
16452W        W33300  15.845   1.740   4.871  0.4243 -0.1666  0.0545
16453W        W33301   3.741   6.928   4.634  0.2183 -0.0403  0.4069
16454W        W33302   9.411  12.658   0.303 -0.1720 -0.1708 -0.2278
16455W        W33303   2.766   4.274   1.343  0.1564  0.0480  0.0702
16456W        W33304   1.280   3.597   0.483 -0.6613 -0.2214 -0.1400
16457W        W33305   2.809  13.310   0.397  0.1626 -0.1788 -0.3002
16458W        W33306   3.864   9.252  16.494 -0.0479  0.3025 -0.0342
16459W        W33307   9.799  13.279  15.103 -0.1345  0.3246 -0.0331
16460W        W33308  13.018  14.130  14.739  0.0526  0.0541  0.2814
16461W        W33309   8.763  16.596  16.469 -0.2395  0.1190  0.0071
16462W        W33310   6.570   1.431  13.354  0.1435 -0.2802  0.2963
16463W        W33311   5.027   6.009   5.028 -0.1531  0.0626  0.0644
16464W        W33312  14.931  14.539   1.947 -0.2065  0.1345  0.1841
16465W        W33313  10.783   1.958  16.669  0.2978 -0.2695  0.2530
16466W        W33314   3.575   3.820   4.292  0.1819 -0.1314  0.2373
16467W        W33315   8.291   8.838   3.935 -0.1243 -0.0356 -0.0948
16468W        W33316   9.166   9.368   0.586 -0.0979  0.1376  0.1829
16469W        W33317  12.298   6.372   0.968  0.2319  0.3086  0.4333
16470W        W33318   8.723  10.491   3.368 -0.0359  0.0067 -0.1405
16471W        W33319   8.453  14.129  13.874 -0.1681  0.0219 -0.0381
16472W        W33320   6.444   1.046  12.928 -0.0946 -0.1636 -0.2454
16473W        W33321   8.695   4.140  16.168  0.2605  0.1601  0.0017
16474W        W33322   0.456   4.096   5.513  0.2146  0.1634  0.0594
16475W        W33323  11.630   1.469   2.357 -0.0968 -0.0822  0.2054
16476W        W33324   9.434   6.445   3.836 -0.0270  0.1577  0.1425
16477W        W33325   2.998   4.132  14.102 -0.0910  0.0703 -0.0888
16478W        W33326   1.243   6.170  11.747 -0.1112  0.2141 -0.1203
16479W        W33327  11.696   1.212  17.211 -0.2150 -0.0611 -0.1166
16480W        W33328   8.876  14.956  14.075 -0.0340 -0.1646  0.3458
16481W        W33329   1.257   3.809   2.684 -0.3288  0.2550 -0.3199
16482W        W33330  11.477   0.143   4.740  0.3009  0.0208  0.3144
16483W        W33331  13.009   8.535   0.666 -0.3043  0.3585 -0.0194
16484W        W33332  12.911  16.365   2.394  0.1318 -0.1003 -0.0622
16485W        W33333  15.822  12.500  12.747 -0.3160 -0.0627  0.2687
16486W        W33334   4.736  12.632   2.891  0.1775  0.0400  0.1755
16487W        W33335   4.918  14.147   4.649  0.0863  0.0266  0.2012
16488W        W33336  16.826   4.374  13.870  0.0390 -0.3217 -0.0426
16489W        W33337   4.160   5.238   5.469  0.0836 -0.0507 -0.1880
16490W        W33338  14.693  12.087   2.408  0.2006  0.1188  0.4629
16491W        W33339  16.944  16.258   0.677 -0.0181  0.1397  0.1034
16492W        W33340   7.619   9.279  12.836  0.0553  0.1025  0.2311
16493W        W33341   1.929   9.225   0.098 -0.2270 -0.0571 -0.3012
16494W        W33342   8.199  14.036  17.585 -0.0314  0.0016  0.1780
16495W        W33343  11.499   8.608   5.667  0.2483 -0.0534 -0.1882
16496W        W33344   7.299  10.202  15.256  0.0279  0.1031 -0.1869
16497W        W33345   3.860   3.375   3.206 -0.0147 -0.3930  0.0275
16498W        W33346   0.674  16.539   4.324 -0.0474  0.1640 -0.0839
16499W        W33347  14.474  12.553  15.477 -0.1649 -0.0451  0.3953
16500W        W33348   5.067  14.662  15.985 -0.0132 -0.1649 -0.0434
16501W        W33349   8.078  15.534   1.787 -0.1054 -0.1658 -0.0746
16502W        W33350  16.693  11.612  17.469  0.1907 -0.2438  0.1599
16503W        W33351   3.319   8.925  17.223 -0.1765 -0.0855  0.0002
16504W        W33352   0.470   8.566  16.448  0.0402  0.3363  0.0232
16505W        W33353   4.563  13.233  17.193  0.2123  0.2314  0.3564
16506W        W33354   2.641   5.765  16.698  0.0090  0.0555 -0.2140
16507W        W33355   8.640   9.950   2.589 -0.2315 -0.0462 -0.1256
16508W        W33356  14.822   3.607   5.542 -0.2186  0.0453 -0.1422
16509W        W33357   0.473   9.583   1.856  0.1182 -0.4434  0.2497
16510W        W33358   3.280  13.104  13.657  0.0808 -0.1024  0.0375
16511W        W33359  10.570   6.801   3.692  0.3367 -0.0542  0.1150
16512W        W33360  13.402   9.787  17.724  0.2884  0.0298 -0.2441
16513W        W33361   1.952   0.815   0.384  0.0841  0.0887  0.2304
16514W        W33362  16.610   2.854  14.215 -0.0414 -0.3083 -0.2284
16515W        W33363  14.318   3.068  13.430  0.2863 -0.0472  0.0799
16516W        W33364   0.287   4.828  17.530  0.0150  0.1435 -0.2721
16517W        W33365  10.634  15.301  13.850  0.1316  0.1213 -0.2199
16518W        W33366   1.872   8.740  13.269  0.2001  0.0598 -0.1031
16519W        W33367   2.354   1.900  12.865  0.1458  0.0667 -0.1593
16520W        W33368  15.788  11.183  13.078 -0.2229  0.2897 -0.0595
16521W        W33369  13.721  11.892  12.461  0.0560  0.1668 -0.3349
16522W        W33370  12.443  11.442  14.609  0.0420  0.1712  0.1949
16523W        W33371  11.431   4.675  13.517 -0.0902  0.2721 -0.0570
16524W        W33372  14.955  13.681  15.127  0.2876  0.0256  0.1209
16525W        W33373   0.138  13.025  14.875 -0.0414  0.2632 -0.1504
16526W        W33374   6.908  11.425  17.670  0.2758  0.0775 -0.0727
16527W        W33375  16.373  14.120  12.203 -0.2083 -0.2567  0.0389
16528W        W33376   7.599   8.610   0.869  0.0374 -0.4044  0.0054
16529W        W33377   6.920  14.777  12.165  0.0025 -0.0539  0.0152
16530W        W33378   3.362   7.067  12.524  0.2919 -0.0676  0.0409
16531W        W33379   7.789  13.335  12.183  0.4431  0.0616  0.0597
16532W        W33380   2.035   7.124  16.595 -0.2598  0.2350  0.0288
16533W        W33381  15.702  14.298   3.806  0.1292  0.1446 -0.0517
16534W        W33382   7.413   6.019   2.530 -0.4108  0.0784  0.1809
16535W        W33383   0.548   7.852   4.730 -0.0820 -0.3394 -0.1113
16536W        W33384   1.179  14.355  12.914  0.3068 -0.1127 -0.0792
16537W        W33385  14.919   9.587   2.221  0.0728  0.0376  0.1224
16538W        W33386   2.544   7.093  15.592 -0.0684  0.1748 -0.0104
16539W        W33387  11.865  13.462  14.519  0.2586  0.0903 -0.1172
16540W        W33388  10.284  16.815  16.088 -0.0685 -0.0627  0.1853
16541W        W33389  16.167   3.197  17.358  0.0357  0.1613 -0.1026
16542W        W33390  12.881   2.420  13.623 -0.0405 -0.1370 -0.1753
16543W        W33391  12.461  13.693  16.641 -0.1302  0.2549 -0.3707
16544W        W33392   2.720   1.430   1.481 -0.1765  0.1467  0.0352
16545W        W33393   8.770  12.450   1.808 -0.0940 -0.1903  0.2659
16546W        W33394   1.929   7.667   6.117 -0.1082 -0.0817  0.3115
16547W        W33395   2.515   9.431   2.954 -0.0500 -0.2222  0.0690
16548W        W33396  12.118   6.009  15.432 -0.0620  0.1563  0.2154
16549W        W33397   7.218   2.959   1.601  0.0223  0.0289 -0.1327
16550W        W33398   4.913  16.476  15.820  0.0926  0.1759  0.1182
16551W        W33399   8.732   7.017  17.441 -0.0663 -0.0257 -0.1454
16552W        W33400   7.450   7.188   3.904  0.0383 -0.0056  0.2607
16553W        W33401   6.547   5.285   0.531  0.1269 -0.2902  0.1616
16554W        W33402  15.704  15.619  17.191  0.1183  0.1380 -0.2444
16555W        W33403  15.307   1.115  15.767 -0.3816 -0.2183 -0.0522
16556W        W33404   0.929  11.269  13.472 -0.0067  0.1547  0.0530
16557W        W33405  13.157   9.965  14.897  0.1388 -0.1269 -0.2431
16558W        W33406   3.222   7.690  13.158  0.1256  0.0754 -0.0163
16559W        W33407   8.115  10.800   0.596 -0.3989  0.2572 -0.1108
16560W        W33408  12.886  13.109  11.910  0.2623  0.2759  0.0136
16561W        W33409  10.052  14.824  17.569 -0.1434  0.2326  0.1639
16562W        W33410  12.111  13.693  14.934 -0.2183  0.0713  0.1021
16563W        W33411  14.647  13.695   4.264 -0.2474 -0.2469  0.1490
16564W        W33412   7.093   8.032   3.864  0.1562  0.0558  0.1308
16565W        W33413   5.252  13.488   2.359 -0.2920 -0.1254 -0.1883
16566W        W33414  13.994   9.354   4.557 -0.1218 -0.0122 -0.2203
16567W        W33415   9.093  10.274  12.876  0.1823  0.1560 -0.2053
16568W        W33416   9.879   7.749  14.294 -0.2709  0.3179 -0.0473
16569W        W33417   5.910   3.019  16.326  0.4060 -0.0699  0.0015
16570W        W33418   1.428   9.770  16.226 -0.0782  0.0116  0.2188
16571W        W33419  12.828  16.372   0.593  0.3393 -0.0477  0.1949
16572W        W33420  15.830   9.972  12.573 -0.0017  0.0857 -0.0966
16573W        W33421  15.846  12.498  14.547 -0.2465  0.0938 -0.2647
16574W        W33422  16.307  11.412   5.834 -0.1360  0.3843  0.0151
16575W        W33423  15.071  11.298  13.166  0.0530  0.1831 -0.1858
16576W        W33424   1.294   8.207  16.741 -0.0894 -0.1218 -0.2198
16577W        W33425   4.826  14.732  14.497 -0.4651 -0.0785 -0.1517
16578W        W33426   5.369  10.890   5.629  0.1868  0.6287  0.0717
16579W        W33427  12.124   4.475   1.814  0.0193 -0.0113 -0.0560
16580W        W33428   5.927  11.369   3.546  0.0500 -0.3031  0.1830
16581W        W33429   3.815   6.293   1.202  0.1112  0.1882  0.3916
16582W        W33430   8.160   4.512  14.307 -0.0201 -0.0453 -0.0834
16583W        W33431   6.497  11.113  12.569  0.2900  0.1293 -0.1238
16584W        W33432   9.806  15.706  13.378  0.3393 -0.0074  0.3049
16585W        W33433  14.284  12.857   4.853  0.0572 -0.0617  0.0889
16586W        W33434   5.874  10.436   2.947 -0.2101  0.2330  0.0923
16587W        W33435   3.424   3.032   3.260  0.0868  0.0712 -0.0266
16588W        W33436   9.238   4.994  16.369 -0.1985  0.1676  0.3752
16589W        W33437   7.755   3.076   4.451  0.1386  0.2862  0.3551
16590W        W33438   1.311   2.146   2.512  0.2016  0.1659 -0.3389
16591W        W33439   0.728  10.269  15.830  0.6537  0.2102 -0.1820
16592W        W33440  15.225  15.648   4.528  0.2370 -0.2682  0.2125
16593W        W33441   7.415  12.398   4.782 -0.1116 -0.1578 -0.1267
16594W        W33442  14.995  14.449  12.467 -0.1851 -0.0553 -0.0772
16595W        W33443  14.593  13.774   2.752 -0.1059  0.1656 -0.2410
16596W        W33444  12.890   4.411   0.749  0.0368  0.0026  0.1327
16597W        W33445   2.636   6.950  14.292 -0.1276  0.1055 -0.1424
16598W        W33446  16.539  10.659  17.177  0.1050  0.3056  0.0846
16599W        W33447   7.413   7.191  17.261  0.0083 -0.2182  0.3587
16600W        W33448   2.827   9.470   2.538  0.1992 -0.3112 -0.2282
16601W        W33449   3.983  15.608   6.689  0.1890 -0.0329 -0.2131
16602W        W33450  15.389   1.640   1.640  0.1584 -0.0386 -0.1852
16603W        W33451   4.301  11.502  14.007  0.3632 -0.1205  0.1177
16604W        W33452  16.519   7.855  13.658  0.0185  0.1095  0.1984
16605W        W33453   8.920   1.463  17.695 -0.2510  0.2190  0.1539
16606W        W33454   1.193  16.490   5.247  0.0807  0.3410  0.1956
16607W        W33455  14.574  10.905  12.433  0.2087  0.2113 -0.0162
16608W        W33456  10.879   2.833  17.138  0.1465 -0.2122  0.0223
16609W        W33457   6.717  15.205  16.724  0.0193  0.0449  0.0756
16610W        W33458  10.883  12.902   3.909 -0.0395 -0.1740 -0.1559
16611W        W33459  15.457  15.697   5.216  0.3725  0.1370  0.0844
16612W        W33460   3.888   2.453   1.659 -0.1056  0.0105 -0.0716
16613W        W33461  14.825   9.366  14.324  0.1918  0.3965 -0.0664
16614W        W33462  11.839   2.114   5.269  0.0550 -0.0321  0.0011
16615W        W33463  12.840   8.004   4.450 -0.2971  0.0874 -0.0836
16616W        W33464  16.276   9.177  12.990 -0.2769 -0.0727  0.0894
16617W        W33465  12.294   4.748   0.201 -0.0089 -0.1175 -0.0136
16618W        W33466   8.090  10.724   0.104  0.0664  0.2699 -0.0357
16619W        W33467   7.556  14.912  17.330  0.2458 -0.0832 -0.1764
16620W        W33468  15.369  11.403   3.193 -0.0678  0.3794 -0.1828
16621W        W33469   9.610   3.773  14.418 -0.1376  0.0748  0.1578
16622W        W33470  13.985   0.739  15.500 -0.1679  0.1256  0.2973
16623W        W33471   8.149  15.278   0.729 -0.0312 -0.1156 -0.0183
16624W        W33472  13.825  12.690  12.837  0.3803  0.1853 -0.0540
16625W        W33473  11.567   0.378  16.673  0.1736  0.0053  0.2739
16626W        W33474   0.472   0.454   1.242  0.1188 -0.2742 -0.0107
16627W        W33475   8.876  11.817   2.443 -0.1860  0.0985 -0.0668
16628W        W33476   6.183  12.898   2.728 -0.2249  0.2562  0.2773
16629W        W33477   4.870  10.176   3.806  0.0516 -0.0051  0.1198
16630W        W33478  13.315  13.721  13.482  0.0806  0.1862 -0.1286
16631W        W33479  15.358  12.284   2.479 -0.0711 -0.1790  0.1353
16632W        W33480  10.493   8.442   2.618  0.2459  0.0387  0.2001
16633W        W33481  16.612   9.917   4.091 -0.5001  0.1731  0.1847
16634W        W33482   9.742   9.527   1.362 -0.0787  0.0529  0.2434
16635W        W33483  10.276   1.103   1.223 -0.3001  0.0979  0.0210
16636W        W33484  15.515  11.454   5.289  0.2271 -0.0691 -0.2085
16637W        W33485   5.924   7.597  13.951  0.0020  0.0807  0.2100
16638W        W33486  12.551   4.343   0.387  0.0300 -0.2628 -0.1006
16639W        W33487   6.018   6.791   1.877 -0.0463 -0.0087  0.0610
16640W        W33488  16.911  13.075   2.056 -0.3563  0.4079 -0.1104
16641W        W33489  13.550   2.855  13.083  0.0903 -0.0213 -0.0192
16642W        W33490  10.485   4.247   1.762  0.1504 -0.0837 -0.0803
16643W        W33491   6.077  13.786   4.316 -0.1443  0.0819 -0.3094
16644W        W33492   6.905  13.858   0.789  0.0506  0.0642 -0.0717
16645W        W33493   9.154   0.481  16.203 -0.0598 -0.0568  0.2007
16646W        W33494   4.756   4.599  17.293  0.1370 -0.1884 -0.0661
16647W        W33495   6.563   5.625  17.024  0.1573 -0.0113 -0.1698
16648W        W33496   9.579   1.741  13.373  0.1318 -0.2043 -0.1465
16649W        W33497   1.336  12.659  13.137  0.0150  0.0188  0.0873
16650W        W33498   3.429  16.656   4.456  0.1278  0.1110 -0.0818
16651W        W33499  11.471   1.227   0.676  0.1018 -0.2316 -0.0175
16652W        W33500  14.133   8.837   4.535 -0.2309  0.1634  0.0374
16653W        W33501   6.493   9.799  13.863  0.0326 -0.1162  0.0187
16654W        W33502   2.138   6.321   3.024 -0.0576  0.0407  0.0565
16655W        W33503   3.700   7.485  16.201  0.1849 -0.0465 -0.0135
16656W        W33504   6.779   3.813  16.086 -0.1163 -0.3320 -0.2703
16657W        W33505   1.344   9.620   1.806  0.0470  0.1633  0.1971
16658W        W33506   9.198  10.833  17.276 -0.1579 -0.0206  0.0901
16659W        W33507   2.136   4.343   4.735  0.2261  0.0273 -0.2150
16660W        W33508   0.649  10.260   2.737 -0.2216  0.1129  0.2516
16661W        W33509  13.158   3.302   4.054  0.0648 -0.1338 -0.1326
16662W        W33510   5.926  13.671   4.844  0.1061 -0.0113 -0.1718
16663W        W33511   9.841   1.615  16.611  0.2668  0.2598  0.1417
16664W        W33512   4.329  12.971   3.799 -0.0744 -0.0224 -0.0957
16665W        W33513  13.774   2.898   1.884 -0.0215 -0.2383 -0.1091
16666W        W33514   0.940   8.486   5.326  0.1686 -0.1278  0.0819
16667W        W33515  12.358   5.762   0.331  0.0688 -0.0821 -0.1575
16668W        W33516   5.796  16.856  14.797  0.0493 -0.2339  0.1733
16669W        W33517  15.152  13.739   0.339 -0.1151  0.0150 -0.1885
16670W        W33518   1.044  12.675  14.233 -0.0890  0.0732 -0.0686
16671W        W33519   3.782   7.400  12.308  0.0422 -0.2048 -0.0989
16672W        W33520   2.897   3.585  16.483  0.0854  0.0573  0.0252
16673W        W33521   5.905   5.891   2.722 -0.1679 -0.0334  0.0380
16674W        W33522  14.760  12.427  13.886 -0.0143  0.0587 -0.1507
16675W        W33523   7.261   1.952  13.625  0.0615  0.1047 -0.0863
16676W        W33524   6.482  15.239  14.786  0.1138  0.3381 -0.1431
16677W        W33525  14.024  16.636   0.528 -0.1392 -0.1378 -0.1188
16678W        W33526   0.006  12.133   2.218 -0.0733  0.1304  0.0064
16679W        W33527   5.794  12.528  15.667  0.1811  0.1445  0.0625
16680W        W33528   2.640   0.836   0.429  0.2464 -0.0206  0.0802
16681W        W33529   6.915  10.073  14.801 -0.2530  0.1049  0.0358
16682W        W33530  12.853  14.442   1.045  0.3761 -0.4190  0.0552
16683W        W33531   5.195   4.502  17.067  0.0214 -0.3164 -0.3119
16684W        W33532  11.071  16.039  13.026  0.1527  0.0933 -0.1048
16685W        W33533   4.106  14.923  15.704  0.1797  0.2648 -0.2121
16686W        W33534   3.913   9.514   4.353 -0.0675  0.0095 -0.1119
16687W        W33535  16.996   5.534  14.320 -0.1273  0.1536 -0.0691
16688W        W33536   8.009   8.618   0.546  0.2713 -0.1002 -0.1945
16689W        W33537   6.511   7.214   2.744 -0.0402 -0.1742 -0.1595
16690W        W33538  11.661   8.989  15.329  0.2960 -0.0624  0.0179
16691W        W33539  12.610   0.679  12.545  0.0451 -0.0820  0.2044
16692W        W33540   4.590   0.297   5.824 -0.2749  0.0673  0.1937
16693W        W33541  10.160   1.745  12.580  0.1998 -0.0409  0.1818
16694W        W33542   1.320   8.030   0.256  0.3323  0.2134  0.1119
16695W        W33543   5.025   8.724   5.680  0.0662 -0.0809 -0.0971
16696W        W33544   0.728   6.770  13.838  0.3597 -0.0969 -0.1637
16697W        W33545   0.694   2.630  17.249  0.1551  0.3318 -0.1328
16698W        W33546   6.882  13.128   0.622  0.0147 -0.0282 -0.1137
16699W        W33547   5.049   2.873  11.218  0.0694 -0.0642  0.2679
16700W        W33548   0.848   6.669   2.189  0.1280  0.0602  0.0181
16701W        W33549   0.638   2.214  16.500  0.5543  0.1439  0.1306
16702W        W33550   0.925   1.860   3.682  0.1497  0.1772  0.0328
16703W        W33551   5.748   1.209   4.917  0.4337 -0.0744 -0.1660
16704W        W33552  15.995   1.487  17.694 -0.0665 -0.0411 -0.1064
16705W        W33553   6.547  16.051   1.049  0.4073 -0.0448  0.1543
16706W        W33554  14.933   5.211   3.780  0.1775  0.0731  0.0814
16707W        W33555   4.281   0.073  17.380  0.1172  0.2364  0.0128
16708W        W33556  16.522   6.114  17.736  0.0531 -0.0134 -0.0741
16709W        W33557  16.301  10.188  13.383  0.0730 -0.0583 -0.0290
16710W        W33558   2.896   2.053  16.085  0.2692  0.0059 -0.0480
16711W        W33559  12.320  17.059   0.771 -0.0946 -0.0069  0.1773
16712W        W33560  14.963   7.135   4.294  0.2031  0.0435  0.2363
16713W        W33561   7.797   9.888  13.347  0.1284 -0.1895  0.1121
16714W        W33562  15.365   2.439   2.233 -0.1419  0.2514 -0.0819
16715W        W33563  10.144  16.520  15.732 -0.2165 -0.2889  0.1149
16716W        W33564  14.325  13.420  13.262  0.2790 -0.1006 -0.0361
16717W        W33565  16.525  13.609   5.251 -0.0477  0.2181  0.2208
16718W        W33566  11.271   1.501  11.942 -0.4275 -0.1524 -0.1307
16719W        W33567   5.946   4.636  16.431  0.4713  0.0348  0.1372
16720W        W33568  11.081   3.340   2.726  0.2824  0.2434  0.1409
16721W        W33569   1.286  11.414   2.471 -0.1448  0.1254 -0.0019
16722W        W33570   7.619   4.844  12.589  0.0001 -0.0028  0.0959
16723W        W33571   4.338   1.805  13.734 -0.0171 -0.0390 -0.1282
16724W        W33572  13.383   0.287   1.478  0.0317  0.2131 -0.0270
16725W        W33573   8.250  10.827  15.280 -0.0007  0.3367 -0.0792
16726W        W33574   5.874   1.727  16.242  0.0809  0.0203  0.0946
16727W        W33575  11.157   8.705  15.498  0.0726 -0.0404  0.1998
16728W        W33576   4.267   6.637   2.364  0.0443 -0.2568  0.1979
16729W        W33577   2.746  14.003  16.066 -0.2923  0.0515  0.1371
16730W        W33578  16.705  15.400  16.146 -0.0033  0.2380 -0.1383
16731W        W33579   7.486  11.599   2.080  0.0054 -0.0048 -0.0018
16732W        W33580  12.614   3.123  13.573  0.0419  0.1298 -0.1328
16733W        W33581   4.095   2.315   3.341  0.1652  0.2955  0.1137
16734W        W33582  14.714  11.157   3.000  0.0811 -0.1117 -0.1198
16735W        W33583  16.989   3.117   0.178 -0.0656  0.2258 -0.1187
16736W        W33584   6.328   6.715  12.898 -0.0053  0.0620 -0.0659
16737W        W33585   0.373  14.029  15.260 -0.1725  0.2956  0.3077
16738W        W33586   8.046   8.070  15.583 -0.3204 -0.0113 -0.2587
16739W        W33587   4.644   6.669   1.068  0.0854 -0.3012  0.1702
16740W        W33588   9.532   3.050   0.046  0.0743  0.2122  0.0804
16741W        W33589   7.056  14.481   0.763  0.0159 -0.3957 -0.2138
16742W        W33590   9.369   3.519  16.444  0.2627 -0.1318  0.0715
16743W        W33591   3.469  14.253   5.533  0.4028 -0.0329 -0.3367
16744W        W33592   5.180  16.989  12.677 -0.3375  0.0588 -0.1817
16745W        W33593   7.925   8.200   3.858 -0.1037 -0.2270  0.1454
16746W        W33594  13.848   3.527   1.114 -0.1694 -0.0528  0.1143
16747W        W33595   6.325   8.924  15.493  0.2351 -0.2247 -0.1490
16748W        W33596  16.408   0.201  17.301 -0.1597  0.2748 -0.1065
16749W        W33597   2.394   3.528  13.767  0.3377  0.1550 -0.2274
16750W        W33598  14.931   3.712   3.416  0.2787 -0.3154 -0.1791
16751W        W33599   7.669  10.148  14.298 -0.1168  0.0701 -0.1434
16752W        W33600   3.250   1.560   1.365 -0.2146 -0.1957 -0.1967
16753W        W33601   3.685   5.752   1.087  0.0749  0.0483 -0.1796
16754W        W33602   6.453  14.577   1.498  0.1911 -0.1692  0.1568
16755W        W33603   0.002  13.546  12.710 -0.0017  0.0678  0.1722
16756W        W33604  15.435  14.591   1.302  0.3491 -0.3742 -0.1031
16757W        W33605  15.660  13.779  15.735  0.1491  0.0401 -0.0775
16758W        W33606   3.912   0.528   5.983  0.0220  0.2336 -0.0513
16759W        W33607  14.114  13.556  14.399 -0.4663 -0.1224  0.2352
16760W        W33608   5.197  15.909  11.384 -0.1866  0.2605 -0.1457
16761W        W33609   8.112  12.710   5.397 -0.0270 -0.0968  0.0997
16762W        W33610  13.428   2.548  13.515  0.2755  0.1226 -0.0857
16763W        W33611   6.041   3.309   3.029  0.2729 -0.0409  0.1825
16764W        W33612  15.715   9.624  15.086  0.2190  0.0834 -0.2489
16765W        W33613   9.793   1.164   1.839 -0.0472  0.1382 -0.0233
16766W        W33614   5.669   2.339   1.250 -0.4275  0.1756 -0.2763
16767W        W33615   2.827   2.665  14.017  0.1078 -0.1037  0.2418
16768W        W33616   6.506   0.277  16.446 -0.0395 -0.3139 -0.0738
16769W        W33617   1.442   9.602   3.247  0.0192  0.1218 -0.1093
16770W        W33618   9.707   8.517   0.539  0.2511  0.1206  0.1739
16771W        W33619  13.736  13.674  12.414 -0.1457  0.0320 -0.0292
16772W        W33620  10.140   1.021  16.413 -0.0293  0.2243  0.0429
16773W        W33621  11.339   4.841   3.822  0.2799 -0.1661  0.4995
16774W        W33622   7.107  11.605   6.007  0.0706 -0.0059 -0.1202
16775W        W33623  16.770  11.241   3.315  0.0375 -0.1870  0.0393
16776W        W33624  14.164  14.566   1.335  0.1155  0.4589  0.0113
16777W        W33625   8.361   9.313  17.634  0.3568  0.0946 -0.0505
16778W        W33626   6.032  10.972  12.303 -0.2442  0.1537  0.2071
16779W        W33627   0.991   1.612   1.313 -0.1520 -0.1772 -0.0261
16780W        W33628  12.225  14.676   0.219  0.0142  0.3748 -0.0313
16781W        W33629  16.671  16.352   4.846 -0.2315 -0.1057  0.0643
16782W        W33630   5.087   0.489  15.981 -0.0392  0.0504  0.0290
16783W        W33631   0.169  13.238   5.382  0.0689 -0.2186 -0.0745
16784W        W33632   5.450   5.727   4.806 -0.0810  0.0034 -0.0321
16785W        W33633   0.195   2.264   2.185  0.0476 -0.1335 -0.1840
16786W        W33634  14.860   6.021   4.846 -0.1799 -0.3197  0.0156
16787W        W33635   7.845  12.344   2.994 -0.1808 -0.1686 -0.1602
16788W        W33636   6.923  12.977  15.226  0.1022 -0.0346  0.0905
16789W        W33637   4.582   1.090  11.490 -0.0354 -0.1350  0.2176
16790W        W33638   1.248   2.175   3.413 -0.0832  0.2715  0.0535
16791W        W33639   7.245   2.953   2.077  0.2407 -0.1673  0.3257
16792W        W33640  12.274   1.751   1.093 -0.0901  0.3614  0.0231
16793W        W33641  11.182  12.032   3.653 -0.0106  0.0791  0.0688
16794W        W33642   3.061   0.755  15.441 -0.2776 -0.1000  0.0582
16795W        W33643  15.558   8.330  14.023  0.0934 -0.1362  0.1713
16796W        W33644  13.465   0.961  15.993  0.0644  0.0461  0.1527
16797W        W33645   4.230   8.666  13.065 -0.1488  0.0069  0.1572
16798W        W33646   7.259   3.865  16.771  0.0037 -0.0401  0.0302
16799W        W33647   2.581   4.021   4.645 -0.0782 -0.1622  0.1331
16800W        W33648   7.180   0.408   6.199 -0.0157 -0.1440  0.2142
16801W        W33649  15.359   0.739   0.158 -0.2864  0.2155 -0.2919
16802W        W33650  13.104  16.239  16.843 -0.2102  0.3433  0.1716
16803W        W33651   2.364   3.033   3.007  0.3646  0.1461  0.1823
16804W        W33652  13.439   6.505   1.343  0.5931  0.2818  0.1799
16805W        W33653  14.940   0.545   0.397  0.2014 -0.1900  0.1836
16806W        W33654   6.241   7.287  14.976  0.1361 -0.1511 -0.2765
16807W        W33655  13.815   3.301  17.763  0.2254  0.1736 -0.2665
16808W        W33656   3.961   9.418  11.945 -0.0739  0.0969  0.0043
16809W        W33657   5.595   2.002   0.445  0.3525  0.0881 -0.1896
16810W        W33658  11.086   2.509   0.372 -0.0935 -0.0387 -0.1439
16811W        W33659   7.109   9.859   2.900 -0.2479  0.1157  0.0032
16812W        W33660   5.853   9.401   2.041  0.1557 -0.0372  0.2303
16813W        W33661   8.318  11.287  13.684  0.0631  0.3245  0.1735
16814W        W33662   4.136   6.639   5.949 -0.1531  0.1914  0.1896
16815W        W33663   3.718  11.194   4.852  0.0684 -0.0452 -0.1653
16816W        W33664   4.233   5.452  17.435  0.0731  0.1310 -0.1255
16817W        W33665  15.424   7.241  17.031 -0.2313 -0.0537  0.0802
16818W        W33666  11.450   1.949  12.969 -0.0392 -0.0847  0.1625
16819W        W33667  14.481   4.964   3.960  0.0698  0.1550 -0.0709
16820W        W33668   4.200   4.403  12.890  0.2346  0.1917  0.1699
16821W        W33669   5.320  11.869  13.257 -0.0202  0.1149 -0.2496
16822W        W33670  11.171   6.197  12.533  0.0716 -0.2963  0.0601
16823W        W33671   6.893   5.935   2.584  0.0158  0.0950  0.0379
16824W        W33672   0.789  14.204   4.785  0.0875  0.2337  0.2391
16825W        W33673   5.650   5.094   0.908 -0.3076 -0.0031 -0.2880
16826W        W33674  11.268  10.488  13.546  0.4142  0.1262 -0.0037
16827W        W33675  12.375   8.423   5.225  0.2382 -0.1915 -0.1734
16828W        W33676   0.221   5.532   1.824 -0.0658 -0.2317 -0.3297
16829W        W33677   7.169   4.034  14.140  0.0461  0.0055  0.1750
16830W        W33678   3.546   9.603  16.773 -0.1989 -0.3016  0.2794
16831W        W33679   0.855   3.725   5.598 -0.0840 -0.2497  0.0509
16832W        W33680   8.950  16.404   5.256 -0.2040  0.1820 -0.2117
16833W        W33681   8.756   8.244  16.663  0.0978 -0.1991  0.1304
16834W        W33682  11.808  15.381  14.495  0.0851 -0.0497  0.0600
16835W        W33683  14.892   9.129  12.904  0.4187  0.3347 -0.0204
16836W        W33684   5.113  16.519   0.334  0.0393 -0.3252  0.0591
16837W        W33685  12.717   3.903  16.152  0.1096  0.5093  0.0475
16838W        W33686   9.230  12.878  16.835  0.0852 -0.2855  0.2354
16839W        W33687  13.157   0.054  15.802 -0.0810 -0.0486 -0.1497
16840W        W33688   2.262   5.371  13.749  0.1106  0.1396  0.1649
16841W        W33689  15.778  14.119  13.406 -0.2136  0.4031 -0.1335
16842W        W33690  11.941  13.363   1.251 -0.0457  0.1577  0.1516
16843W        W33691   9.268   2.969   0.466  0.1715  0.0193 -0.3738
16844W        W33692  17.051   8.604  15.042 -0.1430 -0.3745 -0.1365
16845W        W33693  14.798   3.794  12.599  0.2042  0.0280 -0.0181
16846W        W33694   2.921   9.187  16.223 -0.0857 -0.0622 -0.1503
16847W        W33695   8.870   5.937   2.048  0.1276  0.0313 -0.3434
16848W        W33696   7.112   7.323   2.053 -0.2615 -0.0940  0.1025
16849W        W33697  10.102  11.170   4.349  0.0871 -0.1368 -0.3018
16850W        W33698  16.022   1.618   0.927  0.0314  0.1647 -0.0467
16851W        W33699   9.324  16.329   1.210  0.1872  0.2780 -0.1162
16852W        W33700   0.513  16.906  16.985 -0.0649 -0.0278  0.1472
16853W        W33701   9.278  10.322  15.666  0.4883 -0.2048  0.0727
16854W        W33702   6.267   9.267   1.404 -0.1096  0.0414 -0.0353
16855W        W33703  14.647   1.072  12.142 -0.0501  0.1607  0.0774
16856W        W33704   1.609  12.285  17.496  0.3210 -0.0464  0.0323
16857W        W33705  14.491   8.057  13.601 -0.1534  0.1379 -0.2933
16858W        W33706  11.455   9.945   4.428 -0.1325 -0.0525 -0.1394
16859W        W33707   8.113  11.760   5.228 -0.0362 -0.2157  0.1172
16860W        W33708   9.185  16.028   2.986  0.1244  0.2186 -0.0464
16861W        W33709   1.600   5.078   2.884  0.2653 -0.0109 -0.0323
16862W        W33710  16.959   5.361   0.298 -0.2477  0.3068 -0.1577
16863W        W33711  11.748  12.086   4.727 -0.2427 -0.1368  0.2017
16864W        W33712  16.569  14.404   0.831  0.2551  0.1519  0.0562
16865W        W33713   8.020   5.104   5.292  0.0479 -0.0082 -0.0563
16866W        W33714   9.742   9.718   5.154  0.1539 -0.2934  0.0436
16867W        W33715   0.321   2.660  17.576  0.1873 -0.0313  0.1200
16868W        W33716   5.679  12.960  14.364  0.0781  0.0787  0.0112
16869W        W33717   3.028  13.260  15.526 -0.0040 -0.3274  0.1943
16870W        W33718   1.122  13.514   0.955 -0.1523  0.0699  0.2108
16871W        W33719   3.230   8.727   2.886 -0.0089  0.1542  0.0006
16872W        W33720  10.260   2.841   1.962 -0.2189 -0.2616 -0.0816
16873W        W33721  10.121  13.018  15.489  0.0800 -0.1610  0.0485
16874W        W33722   5.099   5.512   1.080 -0.1579 -0.0119  0.1924
16875W        W33723   5.340  14.940   0.642 -0.3644 -0.0377 -0.3309
16876W        W33724   3.582   4.189  14.392  0.3513  0.4200 -0.0380
16877W        W33725   1.009  14.399  14.007  0.1247  0.0630  0.0557
16878W        W33726   2.481  12.392   5.109  0.0236 -0.5648  0.0870
16879W        W33727   5.273  13.403   3.079 -0.3367  0.0582 -0.1299
16880W        W33728   2.506   7.907  16.922 -0.6257 -0.0194 -0.2120
16881W        W33729  11.938   9.110  17.714  0.2486  0.0901  0.1168
16882W        W33730  13.182   7.528   5.478  0.1780  0.2586  0.3578
16883W        W33731   6.347   6.702   4.643  0.1892  0.2435  0.0195
16884W        W33732   3.566   8.447  12.301  0.2596 -0.1068  0.2643
16885W        W33733  12.867  16.002   3.874 -0.1205 -0.1371 -0.0978
16886W        W33734   4.479   8.094   4.927 -0.1818  0.0155 -0.0417
16887W        W33735   8.585   8.905   1.820 -0.2986  0.2810 -0.1656
16888W        W33736   0.911   5.086  15.263 -0.2283  0.1472 -0.1415
16889W        W33737   0.668   2.287  12.832  0.0507 -0.2303 -0.1665
16890W        W33738   5.787  10.512   4.403  0.1831 -0.1600  0.1195
16891W        W33739   8.917   1.693  16.187 -0.0298  0.2154 -0.1867
16892W        W33740   2.869  14.892  16.986 -0.1564  0.2397 -0.0723
16893W        W33741  10.473   1.101  13.688 -0.1180  0.1285  0.1005
16894W        W33742   5.175  14.838   5.261 -0.0063  0.0018  0.0991
16895W        W33743   8.985  13.352  17.556  0.0440 -0.0153  0.0999
16896W        W33744   4.312   9.691  13.971 -0.0967 -0.1980 -0.0026
16897W        W33745   1.083   5.898   4.234  0.0019  0.0882 -0.1735
16898W        W33746   6.163   4.082   4.310 -0.3732  0.3176 -0.1569
16899W        W33747  16.211   5.888  13.087 -0.1187  0.1303 -0.0615
16900W        W33748  12.481   7.373  15.469 -0.0101 -0.1182 -0.0773
16901W        W33749   3.257  13.371   2.839 -0.0321 -0.5258 -0.1278
16902W        W33750   4.045   9.500  16.958 -0.0112 -0.3991 -0.2333
16903W        W33751  11.439   8.991  12.499 -0.2198  0.0308 -0.0530
16904W        W33752   7.146   4.754  15.076  0.2175  0.1947 -0.1556
16905W        W33753   0.616  11.557  13.696 -0.2213  0.1155  0.1564
16906W        W33754   4.385   5.859  16.944 -0.2403  0.0992  0.2835
16907W        W33755   1.670  12.921  16.953 -0.1255 -0.0186 -0.0475
16908W        W33756   1.205  15.478  12.517  0.0652  0.1127 -0.1276
16909W        W33757  14.195  13.843  16.615  0.0606 -0.1244  0.2128
16910W        W33758  16.902   1.802  15.573 -0.0801  0.2371  0.2411
16911W        W33759   8.965   4.331  15.433  0.2449 -0.0214  0.0194
16912W        W33760  14.524   4.975  16.196 -0.2386 -0.1414  0.1151
16913W        W33761   8.512  14.717  13.850 -0.2046 -0.1909  0.2204
16914W        W33762   0.153  10.894  16.661  0.2416 -0.2230  0.0162
16915W        W33763  14.777  13.155   6.188  0.1593 -0.1553 -0.2578
16916W        W33764  16.502   6.332  16.251 -0.0529  0.0897 -0.1049
16917W        W33765   4.181   1.161  15.690 -0.2820  0.0661 -0.0601
16918W        W33766   8.919   2.310   4.224  0.3172 -0.0719 -0.0439
16919W        W33767   0.242  13.942   3.320 -0.1326  0.0360 -0.2390
16920W        W33768  15.486   5.074   3.565 -0.1671 -0.0885  0.2379
16921W        W33769   8.305   9.039   0.809  0.0111  0.4564  0.2975
16922W        W33770  12.295   1.864  16.414 -0.1572 -0.0975  0.2849
16923W        W33771   9.517  15.799  11.853 -0.1195 -0.1576 -0.2161
16924W        W33772   2.994   3.928   5.569 -0.4100  0.0242  0.2112
16925W        W33773   5.413   5.766  14.202  0.0984  0.1845  0.2691
16926W        W33774   6.857   7.400  15.716  0.1245  0.0145 -0.1078
16927W        W33775   9.604   1.890  12.410  0.0934  0.0959 -0.1058
16928W        W33776   4.583   3.420   3.911  0.2051 -0.1683 -0.1948
16929W        W33777   0.038  11.519   2.893 -0.1193 -0.0464  0.0927
16930W        W33778  16.139   5.419   4.414  0.1067 -0.0225 -0.3300
16931W        W33779   0.891  15.309  17.057  0.1413  0.0366  0.0586
16932W        W33780  13.473   0.420  15.183  0.0533 -0.4253  0.2702
16933W        W33781   8.179   4.133  16.014  0.1681 -0.0286 -0.1003
16934W        W33782   0.191  10.382   2.872 -0.0655 -0.1585 -0.2280
16935W        W33783   4.335  16.460   0.757  0.1527  0.2838  0.0418
16936W        W33784   3.635  11.300  16.564  0.1235 -0.0134 -0.0765
16937W        W33785   4.260   8.056   0.547 -0.3497 -0.5508  0.0079
16938W        W33786  12.768   8.653  14.680 -0.3491 -0.0987  0.0676
16939W        W33787   2.399  14.505   1.751  0.0341 -0.0597  0.0064
16940W        W33788   9.572  11.230   2.667 -0.0959 -0.0534  0.4711
16941W        W33789  15.478   1.096  14.006  0.0506  0.0332 -0.0074
16942W        W33790   1.423   1.584   5.464  0.2012 -0.1190 -0.1743
16943W        W33791   0.774  14.147  14.447  0.1159 -0.0113  0.0165
16944W        W33792   9.603  13.889  12.612  0.0594 -0.2513  0.0841
16945W        W33793   2.444   7.757  12.446 -0.1504  0.3924 -0.0953
16946W        W33794  13.210   8.093   5.734  0.1160 -0.1470  0.0454
16947W        W33795   2.730   9.174  15.219  0.1378 -0.0504  0.1461
16948W        W33796  15.301  14.808  16.705  0.1067 -0.0353  0.4644
16949W        W33797   6.790   4.447   3.648 -0.3200 -0.1508 -0.1502
16950W        W33798  14.150   4.649   5.765 -0.1066 -0.2651 -0.1647
16951W        W33799  13.542   9.716  13.872 -0.0816  0.0906  0.1101
16952W        W33800   3.555   3.549  12.681  0.0737 -0.0619 -0.0094
16953W        W33801   1.443   3.439  15.599 -0.1738  0.0257  0.3847
16954W        W33802   5.011   3.695   3.834 -0.1767 -0.1671  0.0132
16955W        W33803   0.980  11.479  12.271  0.0500  0.1981 -0.2565
16956W        W33804   6.718   5.599  13.409 -0.0644  0.0788  0.1069
16957W        W33805   1.777  13.348  14.177 -0.3235 -0.1958  0.0860
16958W        W33806   3.905   6.253   2.504  0.0039  0.1457 -0.0708
16959W        W33807   0.000   4.252  13.414  0.1030 -0.3218 -0.3019
16960W        W33808  16.770   6.255   5.926  0.0278 -0.2055 -0.1160
16961W        W33809  13.539  11.435   4.112 -0.1402 -0.2847 -0.0643
16962W        W33810   7.422  11.843  16.197  0.0543 -0.2107 -0.1167
16963W        W33811   0.771   2.719   5.162  0.2024  0.2252  0.0547
16964W        W33812   6.506   1.202   2.262  0.0763  0.1268  0.3804
16965W        W33813   6.201   0.555   5.672 -0.2229 -0.0348  0.0668
16966W        W33814  12.720  11.438   1.414 -0.0014  0.0350 -0.1125
16967W        W33815   5.508   5.723  13.067 -0.0074  0.0575 -0.0696
16968W        W33816  13.551   4.597   0.501 -0.2058 -0.1862  0.0244
16969W        W33817   5.701  16.278   2.758 -0.1157 -0.1058 -0.0321
16970W        W33818   7.460   7.356  16.458  0.2112  0.3083 -0.1845
16971W        W33819   8.566   7.900  16.971  0.2458  0.5449  0.2489
16972W        W33820   3.040   5.078  14.954  0.4115  0.1512 -0.3889
16973W        W33821   2.845   6.300   2.033  0.0893 -0.2094  0.1028
16974W        W33822  16.845   3.722   2.522 -0.2745  0.0611  0.0246
16975W        W33823  10.303  10.932  15.071 -0.0891  0.0105 -0.1781
16976W        W33824  14.830  11.965  14.118  0.2733 -0.1394 -0.0851
16977W        W33825  10.067  15.792   5.206 -0.0233 -0.0692  0.1238
16978W        W33826  12.520   1.243  13.072 -0.2662 -0.1872 -0.1269
16979W        W33827   8.942   7.696  12.632 -0.2652 -0.0402  0.2408
16980W        W33828  14.807  13.321  12.903 -0.0562  0.1140  0.0853
16981W        W33829  16.406   2.200  16.200  0.2700 -0.0574 -0.2347
16982W        W33830   4.405  12.756  14.165 -0.3133 -0.0568 -0.0126
16983W        W33831   8.402   4.599  12.738  0.0129 -0.4561 -0.0585
16984W        W33832  15.881   4.741  11.539  0.1035  0.1036  0.0493
16985W        W33833  13.612   3.439  14.640 -0.1596  0.0377  0.1064
16986W        W33834  14.935   3.237   0.717  0.0496 -0.0670  0.0921
16987W        W33835   6.394   7.691   2.441 -0.1738  0.0969 -0.0996
16988W        W33836   7.488   2.931  14.674  0.2020  0.3167  0.0000
16989W        W33837  13.187   3.800  12.014 -0.2697  0.2410 -0.1152
16990W        W33838   4.364  11.893  13.643  0.0575  0.1496  0.0999
16991W        W33839  13.226   6.616   1.935  0.0362  0.0196  0.0490
16992W        W33840   3.457  10.724  15.763 -0.1841  0.1862  0.2019
16993W        W33841   1.188   8.601   1.321 -0.1528 -0.2611  0.2308
16994W        W33842   2.443   8.801   0.392 -0.0980 -0.0280  0.0818
16995W        W33843  13.049   0.216  14.915  0.0330 -0.0762  0.0115
16996W        W33844  13.424   4.919  12.566  0.0988  0.0357  0.0493
16997W        W33845  14.647   0.459  17.024  0.2114  0.2260  0.0272
16998W        W33846  10.456   2.497  17.218  0.0869  0.0669 -0.0485
16999W        W33847  16.614  14.823  12.004  0.2410 -0.0035 -0.1819
17000W        W33848   4.307   0.842   4.818 -0.0328 -0.2197 -0.3206
17001W        W33849  11.948   4.308   5.097  0.0890 -0.1176  0.2917
17002W        W33850   6.316  10.702   5.649  0.1956  0.3483  0.0515
17003W        W33851   5.744  16.787   0.010  0.1399  0.0349  0.0405
17004W        W33852   2.159   8.340   3.584 -0.0918 -0.3202  0.2499
17005W        W33853   7.776   2.064  14.416 -0.1055 -0.2156 -0.0866
17006W        W33854   3.025   7.639  14.856 -0.0610 -0.0700  0.2843
17007W        W33855   0.532   4.759   4.921  0.1985  0.1332 -0.0260
17008W        W33856  11.370  15.134  16.668 -0.3875  0.0619 -0.2363
17009W        W33857  10.821  12.782  14.128  0.1117 -0.0104 -0.1561
17010W        W33858   1.564   4.255   5.325 -0.0486  0.1195 -0.0272
17011W        W33859   4.379   6.105  16.510 -0.2763  0.1349 -0.1289
17012W        W33860   4.865   9.381  12.252 -0.1895 -0.0124  0.1891
17013W        W33861  13.222   3.167   3.527 -0.0877 -0.0741 -0.0018
17014W        W33862   9.246  11.378   4.381  0.0959 -0.0169  0.0146
17015W        W33863  13.852   6.465  17.080  0.0612  0.0801  0.1722
17016W        W33864   9.529   3.942  17.833  0.1580 -0.4433 -0.0239
17017W        W33865  11.607   0.136   0.566 -0.0148 -0.0299 -0.0639
17018W        W33866  10.859   5.688   2.723  0.1844  0.0657  0.1290
17019W        W33867   2.769   5.004   0.692  0.1389  0.0803  0.0876
17020W        W33868   4.149  15.265   2.279  0.1248 -0.1125  0.0822
17021W        W33869   6.628   2.573  17.191 -0.2064 -0.3964 -0.0828
17022W        W33870   3.165   7.880   3.209 -0.1706 -0.2377 -0.2753
17023W        W33871   7.410  15.984  17.762  0.1198 -0.0698 -0.0719
17024W        W33872   8.795   9.063   3.776  0.0848  0.0862 -0.0428
17025W        W33873   0.493   8.634   3.407 -0.0041 -0.0720  0.2461
17026W        W33874   4.587   9.544  16.959 -0.1066 -0.1531 -0.0444
17027W        W33875   5.586  15.760   3.815  0.2080 -0.1506 -0.0348
17028W        W33876  15.922  12.916  13.662 -0.0214  0.1462 -0.4014
17029W        W33877   5.847   1.028  16.820 -0.0362  0.0502  0.0810
17030W        W33878  12.354   4.307   4.026 -0.0727  0.0820 -0.2586
17031W        W33879   3.547   6.195   4.216 -0.1582  0.0543  0.0436
17032W        W33880   3.103  12.977  17.050  0.0410  0.0373 -0.0941
17033W        W33881  13.809  15.413  16.438 -0.2522 -0.1448  0.0055
17034W        W33882   9.552   0.822  14.478 -0.4090  0.0228  0.1113
17035W        W33883  10.223   9.172  14.345  0.0453 -0.2691 -0.1016
17036W        W33884   4.782  13.568  12.425 -0.3187 -0.0867  0.0582
17037W        W33885   4.434   2.936   3.600 -0.0338  0.3075  0.0142
17038W        W33886   0.531   9.611  13.822 -0.0131 -0.3071 -0.1025
17039W        W33887  16.957   8.476  14.580  0.2910  0.1368 -0.1503
17040W        W33888   7.901   6.889   4.189  0.1051 -0.3782  0.1457
17041W        W33889  13.633   1.134  17.377 -0.2064 -0.2047  0.1481
17042W        W33890   4.750   0.601  12.366  0.1379  0.0367  0.0083
17043W        W33891   0.554   1.133  17.430  0.1840  0.1158  0.1903
17044W        W33892  16.681   9.172  13.771 -0.3977 -0.1455  0.0587
17045W        W33893   3.166   2.767  16.694 -0.0820  0.1636 -0.0375
17046W        W33894   6.942   9.023  12.573  0.2420  0.2486  0.2309
17047W        W33895   8.431   6.740   4.131  0.1541  0.1566  0.5074
17048W        W33896  14.702  12.955   3.343  0.0274 -0.2055 -0.1220
17049W        W33897   2.148   7.100  13.711  0.1986 -0.1452  0.2674
17050W        W33898   2.019  13.970   2.369 -0.2287 -0.0627  0.0191
17051W        W33899  12.552  13.659  13.104  0.1482  0.0110  0.1593
17052W        W33900   2.301   7.911  14.154 -0.1940  0.2596  0.1233
17053W        W33901   7.981  11.826   3.818 -0.3518  0.2290 -0.0897
17054W        W33902   4.312   2.867   2.113  0.0142 -0.0110  0.1285
17055W        W33903   6.947  11.937   2.849  0.2748 -0.2224  0.0705
17056W        W33904   0.374   2.118  12.428 -0.3635 -0.0046 -0.1189
17057W        W33905   3.968   0.842   4.424  0.1863  0.0453  0.1295
17058W        W33906   6.071   8.100  15.275  0.1872  0.1699  0.1572
17059W        W33907   1.371  13.114  16.515  0.1087 -0.0608  0.2714
17060W        W33908   4.565   8.990  12.264 -0.2428  0.3011  0.1315
17061W        W33909  14.894  13.560   5.915 -0.1542 -0.1295  0.1035
17062W        W33910   6.772   2.470   5.417  0.0919  0.3408 -0.2066
17063W        W33911   0.894  10.259   5.499 -0.3284  0.0561 -0.2068
17064W        W33912  15.000   7.483  14.893  0.2359 -0.1938  0.1531
17065W        W33913  11.822  12.623  13.335 -0.0099 -0.0495  0.0981
17066W        W33914   8.661  12.133   2.855 -0.1770  0.0755  0.0117
17067W        W33915   3.937  10.603  13.192  0.2698  0.2174 -0.1716
17068W        W33916  15.464  15.265  16.552 -0.0693 -0.2573  0.0088
17069W        W33917  16.302   5.244  17.625  0.0788 -0.0775 -0.2027
17070W        W33918   9.102   3.898  17.015  0.0648  0.0022 -0.3392
17071W        W33919   3.563  13.074   1.950 -0.4126 -0.0603  0.0881
17072W        W33920   0.642  14.235   1.736 -0.3963 -0.2030  0.2701
17073W        W33921   6.140  12.181  15.453 -0.0607  0.1503 -0.3035
17074W        W33922   1.952   3.973   0.701  0.0282  0.0836  0.1436
17075W        W33923  15.189   1.230   4.411  0.0438 -0.1092 -0.0912
17076W        W33924   8.413   1.380  12.010  0.1043  0.0823  0.0550
17077W        W33925   0.485   9.076   3.590 -0.2007 -0.1306 -0.1986
17078W        W33926   6.030  14.024   3.404 -0.0735 -0.1657 -0.0155
17079W        W33927   7.551  13.301   3.417 -0.0320 -0.0967  0.1591
17080W        W33928  15.752   7.460   3.713  0.2078 -0.2324 -0.2438
17081W        W33929   9.277  14.124   4.886 -0.3082 -0.1235 -0.1701
17082W        W33930  14.893   8.998   5.748 -0.1193  0.0393  0.2160
17083W        W33931  12.447   8.359   5.720 -0.1521  0.2415  0.1353
17084W        W33932   0.940  13.309   3.207  0.0223 -0.0368  0.1550
17085W        W33933  11.478   7.910   2.183  0.3293  0.0499  0.0137
17086W        W33934   1.332   0.182   1.224  0.1885  0.1605 -0.3348
17087W        W33935   7.586   9.351   1.356 -0.1967  0.4057  0.1711
17088W        W33936   6.124   3.395  17.186  0.1659  0.2312 -0.0384
17089W        W33937   2.946   4.204   1.910 -0.0717  0.2158 -0.0094
17090W        W33938   4.469   1.602   3.976  0.1214 -0.0250  0.2070
17091W        W33939  14.649  13.710  16.896 -0.0773 -0.1404  0.1150
17092W        W33940   3.764  16.615  15.106  0.3492 -0.1855 -0.1957
17093W        W33941   1.042   9.981   2.582 -0.1252  0.3085  0.0275
17094W        W33942   4.878   3.975  15.586 -0.1500 -0.5208  0.3684
17095W        W33943  11.822   8.043  14.152 -0.0089  0.0341 -0.0618
17096W        W33944   1.007  15.593  13.937  0.2542 -0.1857 -0.0282
17097W        W33945   5.510   2.755  11.447 -0.0734 -0.0341 -0.1035
17098W        W33946   2.714   3.981  16.722 -0.0138  0.3075 -0.3330
17099W        W33947   0.657  14.669   4.829 -0.2073 -0.0634 -0.2936
17100W        W33948   6.061  16.569   0.390 -0.0226  0.1739  0.1312
17101W        W33949   0.098  11.952   4.526  0.1489  0.3004 -0.1520
17102W        W33950  13.563   8.809  15.353 -0.0536 -0.1648 -0.1960
17103W        W33951  11.937   9.398   4.112 -0.2698  0.1591  0.2149
17104W        W33952  16.887  12.970  11.463 -0.1032 -0.0983  0.1234
17105W        W33953  13.018  16.469   3.725 -0.0048 -0.2865 -0.0630
17106W        W33954   5.037  15.340  12.794  0.1270 -0.0419  0.0562
17107W        W33955   6.000   4.772   6.465  0.0832 -0.1438  0.0213
17108W        W33956   7.841  12.572  16.477 -0.3087  0.1366  0.1424
17109W        W33957   1.207   3.858  15.450 -0.1631 -0.1155 -0.0132
17110W        W33958   4.662  15.985   5.141 -0.0507  0.1108  0.0762
17111W        W33959   3.237   4.295   5.142  0.1072 -0.0654 -0.2294
17112W        W33960  15.045  12.068   0.652 -0.0886  0.0935  0.2522
17113W        W33961  15.904   8.554  12.335  0.1207  0.0614 -0.1334
17114W        W33962   8.844   6.052  17.285  0.0809 -0.2457 -0.1698
17115W        W33963  16.968   7.364   2.640 -0.1682 -0.2054  0.0014
17116W        W33964   2.100   4.785  17.006  0.1734  0.2339 -0.0179
17117W        W33965  11.360   5.933   1.181 -0.1863  0.3577  0.0575
17118W        W33966   9.894  13.162   3.618 -0.2601  0.2815 -0.1256
17119W        W33967   9.955   1.422   1.366  0.0378  0.0356 -0.0020
17120W        W33968   6.620  14.178   3.632  0.2006  0.2279  0.1916
17121W        W33969   6.284  10.202  13.580  0.3323  0.0127  0.3839
17122W        W33970  12.651   3.634   2.866 -0.1217 -0.1304  0.0068
17123W        W33971  15.474   6.206  15.258 -0.2041 -0.1670  0.0465
17124W        W33972   3.080  10.724  13.949 -0.3358  0.1733 -0.1184
17125W        W33973   7.749  11.138  12.391  0.2066  0.0014  0.2432
17126W        W33974   1.782   8.561  14.312 -0.0357 -0.1608 -0.0967
17127W        W33975  11.164   3.513   3.222 -0.0104 -0.0017  0.2551
17128W        W33976   0.902   6.436   3.434 -0.0486  0.2361 -0.0057
17129W        W33977  16.788   6.376   0.309 -0.0579  0.0581  0.1854
17130W        W33978   5.056  15.688   4.980 -0.2024  0.0394  0.1993
17131W        W33979   4.909   2.745  17.514  0.2846  0.0398 -0.0654
17132W        W33980   2.122   8.083  14.579  0.0911  0.3519  0.1026
17133W        W33981   2.554   6.578   0.991 -0.0211  0.1726 -0.3129
17134W        W33982  13.889   1.167  15.823 -0.2878  0.1073 -0.0708
17135W        W33983  16.020  15.404   0.113 -0.0179  0.2306 -0.0088
17136W        W33984   6.214   5.221   3.969 -0.1208  0.3067  0.0032
17137W        W33985  10.758   0.797  16.876 -0.3513 -0.0511  0.1820
17138W        W33986  10.755   2.675   0.061  0.1803 -0.1270 -0.0127
17139W        W33987   2.636   1.765  15.766 -0.2563  0.0243 -0.0294
17140W        W33988   6.685  17.067  16.824  0.1425 -0.2836 -0.2288
17141W        W33989   3.767   8.096  11.976  0.2168 -0.0294 -0.0257
17142W        W33990   6.037   5.037  14.574 -0.1480 -0.1662 -0.1156
17143W        W33991  13.154   3.649   0.850 -0.2454 -0.0946 -0.1198
17144W        W33992  16.664  16.001   3.231  0.0042 -0.0056 -0.0620
17145W        W33993   6.128   2.684  17.571 -0.1929  0.1510  0.2300
17146W        W33994   4.650   2.462   2.299  0.1855  0.1016  0.0452
17147W        W33995  12.010  11.590   1.869 -0.0926 -0.2028 -0.1059
17148W        W33996  12.392   7.604   3.247 -0.1076  0.1447 -0.0265
17149W        W33997   2.198  11.952  13.896  0.2545 -0.0315 -0.0024
17150W        W33998   3.195  12.207   4.397  0.1985  0.2959 -0.0343
17151W        W33999  13.179   1.863  17.805  0.1555 -0.2294  0.1313
17152W        W34000  13.160   1.932   0.913 -0.1059 -0.0551  0.1932
17153W        W34001  16.011   9.523  12.229 -0.0480  0.0480  0.1803
17154W        W34002  12.105   7.131   4.770 -0.1469 -0.2167 -0.3506
17155W        W34003  11.916   4.833  12.253 -0.2142 -0.2470 -0.0778
17156W        W34004  15.399  12.457  17.555 -0.3380 -0.1117 -0.4758
17157W        W34005   0.320  16.629   2.589  0.2351  0.2308  0.0506
17158W        W34006   2.027   2.552   4.315  0.1653 -0.0874 -0.0066
17159W        W34007   5.070  15.461  13.581  0.0403 -0.4058  0.0676
17160W        W34008   2.293  14.926   2.078  0.1054  0.2684  0.1111
17161W        W34009  13.018  12.279   6.561 -0.1008 -0.2159 -0.1118
17162W        W34010  14.831  16.813  13.000 -0.1991  0.1501  0.1002
17163W        W34011  14.013   8.310   5.416 -0.1795  0.0851 -0.2063
17164W        W34012   8.445   9.414  15.887 -0.0847  0.0158 -0.0589
17165W        W34013  15.064   0.043  14.536  0.2838  0.0128 -0.0413
17166W        W34014   6.677   0.966   4.899 -0.0606 -0.0514  0.0080
17167W        W34015   0.863   8.003  16.913  0.0728  0.0658 -0.0152
17168W        W34016  13.492  12.083  16.511 -0.0201 -0.0870  0.0969
17169W        W34017   4.028   2.731   3.784  0.0741 -0.2745 -0.2342
17170W        W34018   9.026   0.217   0.621 -0.2592  0.2517 -0.0571
17171W        W34019  11.551  15.237   0.002 -0.0452  0.2422 -0.2620
17172W        W34020   8.575  15.526   1.676  0.0528 -0.0449  0.0084
17173W        W34021  11.994   7.183  12.953  0.0082  0.2026  0.1629
17174W        W34022  10.545   3.927  12.722 -0.1004  0.0551 -0.1414
17175W        W34023  14.592   8.079   5.617 -0.2239  0.2979 -0.0579
17176W        W34024   7.862   5.544  11.981 -0.1860 -0.1062  0.2844
17177W        W34025  13.933  15.242  12.838 -0.3179  0.1810  0.0388
17178W        W34026  14.008  10.381   4.013  0.0735  0.4252  0.0985
17179W        W34027   5.210   7.751   0.549 -0.2747  0.2886 -0.1123
17180W        W34028   2.731   0.327  13.765 -0.1888  0.1517  0.1637
17181W        W34029  14.763  14.077   1.202  0.1307  0.1029 -0.0973
17182W        W34030   3.095   8.208  16.550  0.1918 -0.0551 -0.1487
17183W        W34031  14.267   5.905   0.782 -0.1357 -0.0129  0.0448
17184W        W34032   6.254  13.884   0.282  0.2779 -0.2592 -0.2210
17185W        W34033   1.407  10.450  13.486 -0.0794 -0.0494 -0.1566
17186W        W34034  10.290   7.324   2.066 -0.1641  0.2599 -0.0500
17187W        W34035   2.203   9.467  13.992 -0.1086 -0.1254 -0.0366
17188W        W34036  16.110  15.579  11.893  0.4266 -0.1139  0.0965
17189W        W34037   1.246   3.570  14.631  0.0600 -0.4333  0.0550
17190W        W34038  16.716   4.672   0.436  0.1960  0.1574 -0.0397
17191W        W34039   4.171  12.461  17.362 -0.0094  0.0861  0.0088
17192W        W34040  16.263  14.127   1.100  0.3827 -0.1682  0.0356
17193W        W34041   3.215   8.191  12.004 -0.0685  0.1488 -0.0947
17194W        W34042  14.173   5.073  17.654  0.0425 -0.3579 -0.0555
17195W        W34043  12.655   2.673  13.004  0.1959  0.0596 -0.0371
17196W        W34044   6.787   8.103  12.568 -0.1635 -0.2106  0.2734
17197W        W34045   5.861   4.766  15.162  0.1462 -0.4409 -0.0891
17198W        W34046  14.706   7.425  14.242  0.2868  0.5282 -0.1239
17199W        W34047   1.400   4.477   0.211 -0.0601 -0.1004  0.1616
17200W        W34048  13.564   5.300   3.593  0.0738 -0.0785  0.3689
17201W        W34049  10.594   7.222  14.560 -0.0752 -0.1315  0.4047
17202W        W34050  16.074  15.976   1.555  0.0073 -0.0765 -0.3122
17203W        W34051  11.704   2.207   3.513  0.1634  0.3910  0.0354
17204W        W34052  13.718   3.048  17.230  0.0856  0.1898 -0.2962
17205W        W34053   7.182   1.446  13.640 -0.3408 -0.2704  0.0806
17206W        W34054   3.574   3.116  14.017 -0.0148 -0.1860 -0.0634
17207W        W34055   9.265  16.939  12.944 -0.1022 -0.1623  0.0795
17208W        W34056  12.719   0.275   3.519  0.3491 -0.1526  0.0499
17209W        W34057   7.452  12.615  17.698 -0.1505  0.2170 -0.0065
17210W        W34058   0.691   1.293   0.849 -0.1443  0.3701  0.3371
17211W        W34059   3.574  14.557  15.872 -0.2931  0.2579 -0.0033
17212W        W34060   2.250   9.530  17.038 -0.1713  0.2082 -0.1463
17213W        W34061   5.416   3.020  16.724 -0.0296 -0.2721  0.2072
17214W        W34062   1.359   9.869  17.366 -0.2458 -0.0376  0.0485
17215W        W34063   6.700   8.809   4.165 -0.0787 -0.2197  0.0274
17216W        W34064   3.470  11.781   4.232  0.4420  0.0563 -0.0189
17217W        W34065  10.354   9.867  11.574 -0.0359 -0.1909  0.1413
17218W        W34066  14.024  15.696   0.708 -0.3627  0.1305  0.0141
17219W        W34067   6.582   7.009  13.814  0.2586  0.0076  0.0700
17220W        W34068   6.444   5.026   2.213 -0.2075  0.2239 -0.1087
17221W        W34069  10.661  12.222   2.534 -0.2631  0.1588  0.0051
17222W        W34070   0.529   5.231   1.090  0.0394  0.0880  0.4038
17223W        W34071  14.461  10.632   1.279  0.0975  0.0237 -0.2972
17224W        W34072   5.744  15.766  16.106 -0.1899 -0.3135 -0.0352
17225W        W34073   7.913   9.658   4.324 -0.1531  0.0030  0.2475
17226W        W34074   3.944   9.082   0.045 -0.1301 -0.0461  0.1358
17227W        W34075  14.676   9.153  15.230 -0.1180  0.1204  0.1754
17228W        W34076   8.025  14.482   2.490  0.1355 -0.1347  0.2118
17229W        W34077  12.572  11.635  13.158 -0.1270 -0.0680 -0.1763
17230W        W34078  14.225   2.438   4.098 -0.0679  0.1595  0.0040
17231W        W34079   9.567   8.070   2.321  0.0008  0.0224 -0.2821
17232W        W34080   7.678   0.398   2.319 -0.1597 -0.1420 -0.1260
17233W        W34081  13.648   4.009  12.017  0.2495  0.0894  0.0038
17234W        W34082  16.647  12.756  14.261 -0.1217 -0.0319 -0.0573
17235W        W34083  11.079   3.399   1.902  0.0750 -0.2152  0.3300
17236W        W34084   8.371   3.257  17.217 -0.1769 -0.0318 -0.4096
17237W        W34085   3.664  12.186   4.551 -0.0625  0.2148  0.3302
17238W        W34086   8.091  16.380  17.272  0.0669  0.1599 -0.1030
17239W        W34087   8.413   8.801   2.329 -0.0495  0.0392 -0.0544
17240W        W34088  12.925   7.449   4.283  0.2562 -0.0443  0.1708
17241W        W34089   9.381   7.507  17.037  0.1717  0.1442  0.0196
17242W        W34090  14.703   0.864  17.314  0.1220  0.0231 -0.2648
17243W        W34091   8.773   6.517  14.742 -0.1792 -0.1762 -0.1225
17244W        W34092  11.912   7.232   2.373  0.1766  0.0761 -0.2195
17245W        W34093   8.404   6.620  16.542 -0.0430 -0.1892  0.0557
17246W        W34094   9.824  16.955   1.721  0.0814 -0.1057 -0.0034
17247W        W34095  16.959   4.834  13.615  0.0518  0.2682  0.0395
17248W        W34096   7.189  12.943   0.104 -0.2214 -0.1385 -0.0339
17249W        W34097  15.197   8.438   2.594 -0.1505  0.0718  0.4239
17250W        W34098   9.949   7.056  17.742  0.0129  0.1192  0.0366
17251W        W34099   1.397   5.699   3.106 -0.2233  0.1077  0.0721
17252W        W34100   0.407   2.625  12.498  0.0705 -0.1039 -0.2605
17253W        W34101  16.264  11.949  14.297  0.2271  0.0028  0.2640
17254W        W34102   2.013   5.465  15.114 -0.0108  0.0462 -0.2278
17255W        W34103   7.335  14.552  12.066 -0.0623  0.1690  0.0854
17256W        W34104   5.690   2.490  15.870 -0.0865 -0.1778 -0.0580
17257W        W34105   4.275   9.543   2.778 -0.0236  0.1834  0.2631
17258W        W34106  16.443  14.831  14.509 -0.1131 -0.2211  0.2204
17259W        W34107   6.842  10.936  17.836 -0.0817 -0.1378 -0.0484
17260W        W34108  10.519   9.295  13.719  0.0087  0.0527 -0.0306
17261W        W34109  13.017   9.770  17.069  0.2126 -0.0540 -0.0935
17262W        W34110   8.604   3.602  16.298  0.1679  0.1581  0.0157
17263W        W34111  11.292   4.668   2.889  0.2324  0.1863 -0.2309
17264W        W34112   8.183  16.972  13.434  0.1638 -0.1008 -0.0852
17265W        W34113  10.537  12.971  16.568  0.2209 -0.1728 -0.0709
17266W        W34114  11.167   1.910   2.623  0.0519 -0.0513  0.1231
17267W        W34115   1.767  10.291  17.309 -0.3671 -0.1441  0.2148
17268W        W34116  15.043  10.802   3.171  0.1724  0.1762 -0.2332
17269W        W34117  13.761  13.930   0.209  0.0640 -0.1626  0.0633
17270W        W34118   6.988  15.412  17.585  0.2146  0.0307 -0.0788
17271W        W34119  17.021   7.569   3.118 -0.0255  0.1507 -0.2226
17272W        W34120  16.604  16.917  14.307 -0.0042 -0.0678  0.2066
17273W        W34121   2.025   9.858   2.656  0.1343 -0.1067 -0.0898
17274W        W34122   8.120   8.278   1.614  0.0001  0.0073 -0.0866
17275W        W34123  16.642  16.837  17.306  0.0043 -0.2921 -0.0634
17276W        W34124  12.337  12.471   5.721 -0.1190  0.2656  0.1185
17277W        W34125   4.042   8.588  16.697  0.1011 -0.2347  0.2620
17278W        W34126  15.237   0.852  12.045  0.0097 -0.2940 -0.1006
17279W        W34127  15.277   7.315  17.503 -0.1026 -0.2999  0.0550
17280W        W34128  13.908   5.659   0.337  0.1490 -0.0211 -0.1751
17281W        W34129  15.881  15.438   5.252 -0.1240  0.1987  0.0689
17282W        W34130  12.557  10.755  15.048  0.0646  0.0121  0.1857
17283W        W34131   5.499  10.108   3.106  0.0322 -0.1090  0.1673
17284W        W34132  15.452  16.678  14.236 -0.1052  0.0796 -0.1521
17285W        W34133   8.714   9.399   3.378 -0.1034 -0.0117  0.1508
17286W        W34134  14.904   8.575   1.092  0.0701 -0.1811  0.1115
17287W        W34135  16.786   9.350  17.570  0.0654 -0.2188  0.2973
17288W        W34136  14.478   9.040   2.175  0.1523 -0.0541  0.4398
17289W        W34137  10.509  14.945   3.614  0.3464  0.3388 -0.0496
17290W        W34138   1.662   7.797   0.473  0.0168  0.0821 -0.2046
17291W        W34139   3.255  10.272   0.864 -0.2692  0.0106  0.0085
17292W        W34140   4.461  16.956  14.638  0.1570  0.0091  0.3248
17293W        W34141  15.921   8.055  13.231  0.0772  0.2088  0.0218
17294W        W34142  10.843   5.645  12.635 -0.0469  0.1086 -0.1196
17295W        W34143  12.498   1.951  15.507 -0.1091 -0.1230  0.0648
17296W        W34144   9.964  15.780   2.354 -0.0681  0.0603  0.2423
17297W        W34145   1.877  11.898  16.488 -0.1077 -0.0127  0.0642
17298W        W34146   1.756   1.575  16.953  0.0973  0.1626 -0.4039
17299W        W34147   2.781  11.722  13.324 -0.0007 -0.1409 -0.0413
17300W        W34148  12.745  10.731   2.532  0.1017 -0.0224  0.1462
17301W        W34149   6.189  11.144   0.347 -0.0104 -0.0508  0.2622
17302W        W34150   8.937  11.585  14.893  0.1105 -0.2304  0.2163
17303W        W34151   8.592   6.447  17.382 -0.1776 -0.0896  0.0103
17304W        W34152   4.643  15.793  12.901  0.0757  0.4301 -0.0224
17305W        W34153  17.032  11.304   1.490  0.4386  0.4183 -0.1527
17306W        W34154   5.132   2.373   0.424  0.0200  0.1694 -0.2681
17307W        W34155   2.780   9.096  15.729  0.0212  0.0045  0.0209
17308W        W34156  14.638  11.379   5.297 -0.0219 -0.0204  0.1038
17309W        W34157   9.426   4.147  14.713  0.2018  0.0446 -0.2141
17310W        W34158  10.132   9.762  15.337 -0.1321  0.0748 -0.0581
17311W        W34159  14.659   4.111   3.691 -0.0170  0.0119 -0.4526
17312W        W34160   7.125   3.498   2.551  0.1721 -0.1328  0.1203
17313W        W34161   6.069  12.596  14.303  0.0573  0.1612  0.0103
17314W        W34162  15.450  16.709   1.147  0.0713 -0.0240 -0.3262
17315W        W34163  11.833  12.095   0.526 -0.0820 -0.0528 -0.2052
17316W        W34164   0.769   3.423   4.062 -0.0504 -0.0144 -0.1412
17317W        W34165  13.804   2.374   0.293  0.4123  0.1313  0.0281
17318W        W34166  13.967   6.994   3.065  0.0956 -0.1849 -0.1347
17319W        W34167   8.436  10.852   0.988  0.0700  0.3563  0.2583
17320W        W34168  15.317   5.010   1.430  0.0307 -0.1363 -0.0520
17321W        W34169   8.458  16.225  14.090  0.2300 -0.0413 -0.1790
17322W        W34170   7.555  14.557  15.915 -0.1018  0.2177 -0.0391
17323W        W34171  13.727  10.268  12.709  0.0357  0.3523  0.2028
17324W        W34172  14.987  14.864   4.875 -0.3069 -0.0884  0.2476
17325W        W34173   9.092   7.520  17.458 -0.1212 -0.2153  0.0986
17326W        W34174  16.653  13.722  12.500 -0.1590  0.0481 -0.0360
17327W        W34175  13.107   2.557   2.526  0.0472 -0.1196  0.4373
17328W        W34176   6.391   3.498   5.435 -0.2144 -0.2367  0.0438
17329W        W34177  12.324   6.132  17.119 -0.1232 -0.0477 -0.1081
17330W        W34178   5.052  11.439   0.483  0.1217 -0.0231  0.4442
17331W        W34179  13.803   1.389  15.256  0.2408  0.4215 -0.1095
17332W        W34180   6.785   5.543   2.291  0.0189 -0.0773 -0.1500
17333W        W34181  13.792  10.780   1.786 -0.2315  0.2812  0.0133
17334W        W34182   7.973   2.164   4.087 -0.4820  0.3179 -0.0139
17335W        W34183   4.778   2.898  15.826 -0.0332 -0.0623  0.2343
17336W        W34184   3.689  10.731   3.317 -0.1613 -0.0920 -0.0899
17337W        W34185   2.065   6.700  15.305  0.1090  0.0545  0.1683
17338W        W34186   7.310  11.916   0.992  0.1951  0.3700 -0.1601
17339W        W34187  14.410  11.744  17.581  0.0303 -0.3676 -0.1212
17340W        W34188   6.296   2.598  16.699 -0.1585 -0.0352  0.4478
17341W        W34189   8.987   7.424  16.719 -0.3766 -0.3069 -0.1240
17342W        W34190  10.030  13.309   2.213  0.0580 -0.1749  0.1227
17343W        W34191   4.474   2.264  15.297 -0.0276 -0.1316 -0.0012
17344W        W34192  16.055   7.721  16.980 -0.1191 -0.0103  0.1821
17345W        W34193   5.684  12.898  12.561  0.2865 -0.1223  0.1413
17346W        W34194  12.927  15.271  13.634  0.3368 -0.0908  0.2057
17347W        W34195  15.851   2.536  14.559  0.1508  0.0187 -0.2245
17348W        W34196   0.816   7.982   0.400 -0.0145 -0.0513  0.0582
17349W        W34197  15.984  16.037   1.023 -0.1235  0.0629  0.2298
17350W        W34198   6.531   5.829   4.800  0.3167 -0.0019 -0.1307
17351W        W34199   4.546  14.137   2.314  0.1273 -0.1070  0.0644
17352W        W34200   0.910   4.763   4.605  0.2387 -0.1869 -0.0390
17353W        W34201   9.627  10.790   1.706 -0.2572 -0.0806  0.3115
17354W        W34202  12.100  13.993  16.737 -0.0044 -0.1339 -0.0292
17355W        W34203   4.147  15.734  14.185 -0.1863 -0.1702 -0.1345
17356W        W34204   6.852   4.155   2.161 -0.0448 -0.0274 -0.0841
17357W        W34205   7.924  14.042  12.512 -0.0863  0.0369 -0.1528
17358W        W34206   1.782   8.047  14.216 -0.0427  0.1745 -0.3483
17359W        W34207  14.623   4.615   0.744 -0.0385 -0.4849  0.1857
17360W        W34208   7.567   7.840  12.403  0.1519 -0.0975  0.0001
17361W        W34209  16.623   9.909   2.769  0.0054  0.2634  0.0973
17362W        W34210   6.384   2.668   0.659  0.2950 -0.2579 -0.2654
17363W        W34211   6.829   9.697  14.481 -0.1104 -0.2153 -0.2775
17364W        W34212  12.200   4.434  12.567  0.0430 -0.0876  0.0158
17365W        W34213  11.839   1.811  14.875  0.3602  0.2068  0.0791
17366W        W34214   6.193   0.037   2.913 -0.0890 -0.0853 -0.0790
17367W        W34215   3.116   5.855   2.676 -0.1282  0.0014 -0.2329
17368W        W34216  11.999  12.149  14.236  0.0412  0.2714  0.1769
17369W        W34217   6.936   9.201  13.467  0.1006  0.0001 -0.1944
17370W        W34218  12.050  10.857  12.664  0.2129 -0.0646 -0.0408
17371W        W34219   6.872   8.006  17.311 -0.4286  0.2157 -0.1080
17372W        W34220   2.856  15.847   1.681 -0.1823  0.0985 -0.1034
17373W        W34221   9.801   6.941   5.468 -0.2603  0.2274  0.1855
17374W        W34222   7.489  11.413  14.956  0.1839  0.1359 -0.1032
17375W        W34223   5.349   8.349   1.488  0.1092  0.0170 -0.1615
17376W        W34224   7.034   7.848   2.142  0.0308  0.2231 -0.1014
17377W        W34225   4.874   6.811  13.878 -0.0034 -0.0159 -0.1866
17378W        W34226  12.456  10.152   4.112 -0.1931  0.0416  0.1016
17379W        W34227   7.580   0.369   3.460  0.3242  0.3243  0.0137
17380W        W34228   3.552  16.715   2.348  0.0432  0.0208 -0.0815
17381W        W34229  11.713  10.475  15.244  0.0684 -0.2101 -0.0706
17382W        W34230   1.812   6.310  14.532  0.2322 -0.0115 -0.3911
17383W        W34231  14.793   1.003   0.465  0.1623 -0.0261  0.1862
17384W        W34232  13.399  11.911   5.915 -0.2356  0.0066 -0.1403
17385W        W34233   9.591   2.666  17.547 -0.1628  0.1349  0.0761
17386W        W34234  12.068   2.938  14.486  0.2286  0.3679  0.0717
17387W        W34235  15.643   3.745   0.276 -0.0800  0.0145  0.2206
17388W        W34236   3.320   6.092  17.758  0.0483 -0.0391 -0.2416
17389W        W34237  11.569   8.940  14.519  0.1615  0.1327  0.2779
17390W        W34238   4.505  12.272   5.618  0.1518 -0.3253  0.1629
17391W        W34239   8.147  11.701  17.769  0.0197 -0.1602  0.0365
17392W        W34240  15.842   0.318   3.512  0.0002 -0.2395 -0.0880
17393W        W34241  13.878   4.698   0.078  0.1536  0.0744  0.0966
17394W        W34242  14.335  15.470  17.266  0.0973  0.0169 -0.2374
17395W        W34243   3.213   9.611   1.370  0.2680 -0.1075  0.0847
17396W        W34244  14.154   9.114  15.041 -0.1264 -0.1310 -0.0261
17397W        W34245   4.609  10.287   0.196  0.2283 -0.1909  0.2766
17398W        W34246  15.531   9.863  13.031 -0.0384 -0.1327  0.1059
17399W        W34247  12.438   2.261  16.116 -0.1764 -0.0809 -0.0385
17400W        W34248  12.304   5.034   4.493  0.2300  0.1837  0.0081
17401W        W34249   7.269  10.872   3.545 -0.0525 -0.3554 -0.1016
17402W        W34250  13.265  11.989  14.202  0.1681 -0.0480  0.1263
17403W        W34251  15.953   1.465   3.732  0.2257  0.0755  0.2151
17404W        W34252  17.016   2.853   4.970  0.0972 -0.0249 -0.0139
17405W        W34253  14.926   9.590   0.804 -0.1905 -0.1076  0.0790
17406W        W34254  12.937  10.854  16.759  0.0609  0.1959 -0.3792
17407W        W34255   1.264   2.080  15.764  0.0363 -0.2328  0.2568
17408W        W34256   1.470  12.611   1.008 -0.1625 -0.1881  0.0438
17409W        W34257   0.126   7.213  14.017 -0.1851 -0.0143  0.0750
17410W        W34258   1.825   1.762  14.133  0.1780  0.2713  0.1135
17411W        W34259   4.044   1.848  12.856  0.3087 -0.1168 -0.1283
17412W        W34260   7.987   4.783   4.412  0.0415 -0.0834  0.2618
17413W        W34261   5.413  10.514   4.820  0.2830  0.0547  0.0357
17414W        W34262  10.522  10.437  13.233 -0.3461 -0.0807  0.0388
17415W        W34263   3.310  11.506   1.877  0.1773  0.2112  0.1304
17416W        W34264  12.727   0.143  16.166  0.1701  0.0882 -0.0503
17417W        W34265  13.419  13.774  14.794  0.2174  0.2010  0.0159
17418W        W34266   4.711   1.737   0.824  0.1669  0.1056 -0.0898
17419W        W34267   6.647   9.771   3.153 -0.0298 -0.1241  0.1326
17420W        W34268  12.182  10.076  17.401 -0.1075  0.1965 -0.0311
17421W        W34269  15.179   5.005  14.722 -0.0101 -0.0511 -0.1280
17422W        W34270  13.202  13.272   5.077 -0.0759  0.0195 -0.0323
17423W        W34271  11.388  15.755  15.858  0.1215 -0.1271  0.0447
17424W        W34272   2.495   1.308  13.728 -0.2292  0.0307 -0.3109
17425W        W34273   1.869   9.382   1.053  0.1468  0.1365  0.1797
17426W        W34274  12.089   9.191   1.229  0.0958  0.3224 -0.1895
17427W        W34275  13.491   1.564  14.889 -0.2837 -0.4393  0.2253
17428W        W34276   7.886   9.235  13.331 -0.0366  0.0103  0.1901
17429W        W34277  16.081  14.886   0.083  0.0385  0.0400  0.1769
17430W        W34278   4.088  10.376   5.033 -0.1060 -0.0167  0.0987
17431W        W34279  11.788   8.552   1.911  0.0814 -0.0228 -0.1673
17432W        W34280   2.745   1.070  15.763  0.1942  0.3130  0.0550
17433W        W34281   5.967  10.906   3.194 -0.0209  0.0729 -0.1895
17434W        W34282   0.943   7.655   1.648  0.0908 -0.1605 -0.2032
17435W        W34283   8.529  12.256  11.959 -0.1112  0.0130  0.1468
17436W        W34284   3.083   4.976  12.382 -0.0632  0.1197 -0.0646
17437W        W34285  13.726   4.731  16.463  0.2845 -0.3395 -0.1479
17438W        W34286   2.706   2.978   0.931 -0.1142  0.3752 -0.0256
17439W        W34287  11.885   7.208   1.276 -0.2241 -0.0936  0.0082
17440W        W34288   8.141   8.485   0.065  0.0002  0.0776  0.1402
17441W        W34289  15.812  10.241   2.949  0.1133  0.1314 -0.4401
17442W        W34290   0.427  15.504  13.735  0.2307  0.3288  0.2501
17443W        W34291   5.545   3.314   2.828 -0.1127  0.0288 -0.0026
17444W        W34292   3.890   1.106  16.714  0.2024 -0.1785  0.0394
17445W        W34293   2.446   7.171  12.688 -0.1258 -0.1535 -0.1810
17446W        W34294   0.218  16.770  13.625 -0.0266 -0.1928  0.1593
17447W        W34295  14.740  14.570  13.150 -0.0368  0.1983 -0.0618
17448W        W34296   4.285   7.411   2.337  0.0367  0.2517 -0.0091
17449W        W34297  15.933   0.227  17.467 -0.1406  0.1592  0.1840
17450W        W34298   2.180  12.398   6.759  0.0694 -0.2331 -0.0556
17451W        W34299   4.389   2.490   4.517 -0.0919  0.0740 -0.1877
17452W        W34300   5.020   7.915  15.365 -0.1572  0.3076 -0.0854
17453W        W34301  15.478   2.366   1.039  0.1003 -0.0482  0.3131
17454W        W34302  11.105   4.885   0.859 -0.0025 -0.0612 -0.0346
17455W        W34303   9.268  10.151  15.137 -0.2259  0.1584 -0.0363
17456W        W34304  16.846   5.813   2.001  0.1037  0.0373  0.1257
17457W        W34305   0.123  13.893   4.723  0.0220  0.0983  0.0998
17458W        W34306   6.750   9.919   1.536 -0.2218 -0.1399  0.0348
17459W        W34307   7.550   8.886   0.471 -0.2626  0.1393 -0.0741
17460W        W34308  11.994  16.715   2.601  0.1152 -0.1011  0.3755
17461W        W34309   7.716  11.897   1.296 -0.3232 -0.0114  0.0050
17462W        W34310   3.059   6.058   5.148 -0.5063 -0.2649 -0.0939
17463W        W34311   2.927   4.708   5.060 -0.1076  0.2080 -0.2083
17464W        W34312   0.833   9.355  14.886 -0.3339 -0.1736  0.2122
17465W        W34313  15.812   5.504  12.586 -0.2814 -0.2521  0.1993
17466W        W34314   1.978   6.166   4.348 -0.0159  0.2474 -0.0304
17467W        W34315  11.198  14.654   1.928  0.0330 -0.2011  0.0331
17468W        W34316   2.618   7.679   1.925 -0.0088  0.2005  0.2263
17469W        W34317   2.940  12.594   4.910  0.0576 -0.1017 -0.1478
17470W        W34318   1.840   7.180  12.558 -0.2315 -0.0879  0.1539
17471W        W34319  13.708   1.378   3.385 -0.0056  0.1117  0.1313
17472W        W34320  11.698   3.388   0.121 -0.4978  0.0886 -0.0268
17473W        W34321  16.289  11.281  15.789  0.2152  0.0609 -0.2332
17474W        W34322   1.643  12.653  11.420  0.1022 -0.3417  0.1042
17475W        W34323   8.548   2.782  17.359  0.2099 -0.0883  0.2206
17476W        W34324  15.254  11.841   3.311  0.1781  0.1942 -0.0227
17477W        W34325   1.233   7.482  17.593  0.1970  0.0425 -0.0537
17478W        W34326   4.876   0.208  16.441 -0.0308 -0.0157  0.4843
17479W        W34327  10.641   6.207   1.793 -0.0778 -0.2932  0.0238
17480W        W34328  10.220  13.715  13.688  0.2383 -0.1337  0.4358
17481W        W34329   9.630  16.742   5.167 -0.4496 -0.1272 -0.1166
17482W        W34330   4.695  12.518   5.101  0.1589  0.1219  0.1666
17483W        W34331   5.803   3.349   1.246 -0.1411  0.2508  0.0012
17484W        W34332  16.726  13.742   2.158  0.2582  0.0281 -0.2980
17485W        W34333   7.937   0.684  14.988 -0.1103  0.1394  0.1325
17486W        W34334   9.737  15.542  16.884 -0.0466  0.1793 -0.1297
17487W        W34335  14.772  14.296  16.100  0.0477 -0.3038  0.0581
17488W        W34336  12.661   2.374  14.087  0.2091  0.1913 -0.2523
17489W        W34337  10.863   1.613  12.258 -0.3438  0.1614 -0.0767
17490W        W34338  14.941   8.392   2.090  0.1195 -0.0136 -0.0349
17491W        W34339   3.910  16.167  17.700 -0.0622  0.1925 -0.3753
17492W        W34340   5.581   9.168  16.070  0.2355 -0.0193  0.0572
17493W        W34341   6.351  10.016  17.560  0.1605  0.0589  0.0144
17494W        W34342  12.187   9.272   3.355 -0.0148 -0.0321 -0.1744
17495W        W34343   3.190  10.416  13.190  0.0344 -0.1923 -0.1431
17496W        W34344   4.587  14.274   5.033  0.1652 -0.1583  0.3342
17497W        W34345   8.291   8.829  17.548 -0.1808  0.1732 -0.3730
17498W        W34346  14.044  14.744  12.703  0.1639 -0.1786  0.3407
17499W        W34347   3.747  16.259   4.001 -0.0262  0.0369  0.0944
17500W        W34348   2.178  12.627   2.975 -0.0747  0.1534 -0.2120
17501W        W34349   0.145   0.943   2.091 -0.2234 -0.0411 -0.2496
17502W        W34350   4.395   7.050  16.235  0.1264  0.0622 -0.2193
17503W        W34351  14.137  14.483  16.675  0.1407  0.1276 -0.1013
17504W        W34352   1.025   4.460   0.568 -0.2363  0.2272 -0.0127
17505W        W34353  10.885   4.825   2.288  0.2674  0.1674 -0.2698
17506W        W34354   7.425  13.133   0.510 -0.2394 -0.3350  0.2997
17507W        W34355   9.895  10.358   0.252 -0.2882 -0.1597 -0.0855
17508W        W34356   6.145   9.578  15.287  0.1074 -0.0329 -0.1440
17509W        W34357  12.956   1.286   5.143 -0.3316  0.0285 -0.0314
17510W        W34358  12.935  10.949   3.879  0.1159 -0.0330  0.0229
17511W        W34359  11.326  10.039  16.851 -0.0224  0.2050 -0.1091
17512W        W34360  10.652   4.650  15.226 -0.2018  0.0928 -0.1939
17513W        W34361   3.775   8.905   1.580  0.1705  0.1274  0.1156
17514W        W34362  10.309  12.014   3.011  0.2886 -0.0304 -0.0922
17515W        W34363   3.630  14.507   3.735 -0.0168 -0.1796 -0.1280
17516W        W34364   8.621   0.826  15.727  0.2052  0.2931  0.4247
17517W        W34365  12.562  10.299  13.203 -0.1312 -0.0764  0.0768
17518W        W34366  16.618   8.374   4.200  0.3718  0.1910 -0.1066
17519W        W34367  11.613  13.942  17.492 -0.1028  0.0745 -0.1103
17520W        W34368  15.290   5.409  14.431  0.4167 -0.0120 -0.1581
17521W        W34369   0.915   3.610  12.618  0.0583  0.1717 -0.2546
17522W        W34370   7.456   2.318   0.815 -0.0338  0.0888  0.1364
17523W        W34371   5.881  11.543   1.674 -0.0191  0.0425 -0.0469
17524W        W34372   7.337   3.416  17.053 -0.0446 -0.0167 -0.0888
17525W        W34373   2.691   9.940   4.238  0.3402 -0.0961 -0.0249
17526W        W34374   5.324  14.775   3.947 -0.0730 -0.1559 -0.0456
17527W        W34375  13.563   5.041   0.890  0.1534 -0.0161  0.2560
17528W        W34376  15.674  12.849   4.163  0.0229 -0.1412 -0.2172
17529W        W34377   8.615   2.043  14.787 -0.1686 -0.2263 -0.1887
17530W        W34378   7.601   4.988  14.959 -0.3047 -0.1337  0.3463
17531W        W34379   1.973  11.718   0.754  0.1086 -0.0410  0.0753
17532W        W34380  12.293  15.530  12.803 -0.0285  0.2597 -0.1634
17533W        W34381   7.921  14.537   5.619  0.2500  0.1433 -0.0208
17534W        W34382   1.683  14.199   3.709  0.0250 -0.3696 -0.1429
17535W        W34383   0.854  16.503  17.029 -0.0219 -0.0904  0.1362
17536W        W34384   7.302   2.760   4.349  0.0502  0.0182  0.3352
17537W        W34385  14.788   7.922   1.921 -0.0053 -0.0254  0.4248
17538W        W34386  10.348  13.207   1.277 -0.2490 -0.1660 -0.1193
17539W        W34387   4.482   8.599   0.670  0.1287 -0.0522  0.0123
17540W        W34388  15.510   5.746  15.331 -0.0038  0.2770  0.2149
17541W        W34389   3.568   3.174  14.558 -0.0339 -0.2028 -0.0909
17542W        W34390   2.937   3.771   0.348 -0.2415 -0.0667  0.0771
17543W        W34391   5.406  15.876  13.458 -0.2587 -0.2825 -0.2764
17544W        W34392   7.109   6.605   0.402 -0.1011 -0.1477  0.1983
17545W        W34393  13.341   7.587  17.591  0.2179  0.0905 -0.0743
17546W        W34394  14.384  11.478  15.388  0.0668  0.1004 -0.0553
17547W        W34395  11.006   3.051  14.438  0.1024  0.0643 -0.0022
17548W        W34396   0.192   5.654  12.414 -0.3325 -0.0740 -0.1579
17549W        W34397  16.971   9.525   3.062  0.0494 -0.0253 -0.2226
17550W        W34398   6.310   0.444  12.770 -0.1294 -0.4123 -0.0203
17551W        W34399  15.288   1.012  14.860  0.1463 -0.1999  0.0146
17552W        W34400   4.424   2.911   0.962 -0.0336  0.1100 -0.1117
17553W        W34401  13.085   4.250   4.358  0.3582  0.0312  0.1395
17554W        W34402  12.858  11.792   4.052 -0.0192 -0.2058 -0.0194
17555W        W34403   5.203  10.219  16.458 -0.1086 -0.3335 -0.2688
17556W        W34404  16.612   1.406  17.365 -0.0336 -0.2619  0.1654
17557W        W34405   4.670   9.451   0.384 -0.0674 -0.4205  0.3192
17558W        W34406  15.749  13.142   2.491  0.1814  0.1448 -0.3667
17559W        W34407  10.736   7.719  12.702  0.2480  0.1313 -0.0287
17560W        W34408  16.743   9.581  15.481  0.1212 -0.1787  0.0621
17561W        W34409  13.129   0.867  17.434 -0.1223 -0.3238  0.0071
17562W        W34410  10.425  11.411  16.912  0.0340  0.2041 -0.2094
17563W        W34411  11.536   1.352  16.210  0.0833  0.0614  0.2216
17564W        W34412  15.822   6.189   3.825 -0.1360 -0.0150 -0.0917
17565W        W34413  11.572  16.659   0.335  0.0916 -0.1874 -0.0269
17566W        W34414   5.178   6.878   6.272  0.0531 -0.2112  0.2984
17567W        W34415  16.573  14.978  15.032  0.0344 -0.1588  0.0122
17568W        W34416  14.492   3.686   5.953 -0.0549 -0.1360  0.0768
17569W        W34417  12.787   1.335  15.791  0.1646  0.1656 -0.0856
17570W        W34418  14.359   3.783   1.793  0.0850 -0.1982 -0.1778
17571W        W34419  15.290   1.122  13.383  0.0645 -0.0717  0.1457
17572W        W34420  14.526   8.731   4.184  0.0327  0.2311 -0.3394
17573W        W34421   2.998  14.189   6.382  0.0014  0.0907 -0.1168
17574W        W34422  14.536   5.861  14.157  0.0734 -0.0838  0.1020
17575W        W34423   8.956  16.167  17.643  0.1738  0.0729  0.2022
17576W        W34424   3.823  13.678  14.221  0.2815 -0.2459  0.1274
17577W        W34425  13.002  13.402  13.204 -0.1874  0.1271 -0.1114
17578W        W34426   9.241  13.298   6.786 -0.0320 -0.0599 -0.0460
17579W        W34427   5.081   6.401   1.102  0.0302  0.1179  0.0918
17580W        W34428  11.412  15.774   3.113 -0.2321  0.2316 -0.1611
17581W        W34429  13.843   6.987   5.219 -0.1576 -0.2386  0.2190
17582W        W34430  14.314   2.011  15.398 -0.4290  0.0064 -0.4998
17583W        W34431   3.399   6.875   0.694  0.2651  0.4204  0.1188
17584W        W34432   5.436   8.029  16.183 -0.0406 -0.1177  0.2382
17585W        W34433  13.241   8.263  11.658  0.1753  0.1126 -0.2113
17586W        W34434  12.695   7.404   3.702  0.0125  0.1400  0.1139
17587W        W34435   0.021   9.534  13.435  0.1059  0.0284  0.2179
17588W        W34436   7.464  15.747  16.945  0.0974  0.1165 -0.0982
17589W        W34437   8.657   4.823   0.682  0.1296 -0.1444  0.0635
17590W        W34438  14.466   4.254  14.245  0.0955 -0.2602  0.2846
17591W        W34439   4.261  15.604  16.005  0.0026 -0.3393 -0.0372
17592W        W34440  13.194  12.409   2.566  0.0913 -0.0084  0.2886
17593W        W34441   8.827  10.587  13.659  0.0504 -0.0060 -0.0011
17594W        W34442   9.753   1.687   1.745 -0.1897 -0.3396 -0.3125
17595W        W34443   8.807   4.488  13.327  0.1332  0.0535  0.2200
17596W        W34444  11.263  14.199  16.697 -0.0788 -0.0569 -0.2614
17597W        W34445   8.336   6.457   2.075 -0.1085 -0.0259 -0.5055
17598W        W34446   6.257   5.765  13.241  0.1063 -0.0414 -0.1820
17599W        W34447   8.015   3.184   4.066 -0.0219  0.0839 -0.1474
17600W        W34448   6.822  15.176  11.883  0.1849  0.0507  0.0711
17601W        W34449   1.654  11.667  15.195  0.3007 -0.0599  0.0603
17602W        W34450  12.148   1.438  12.188 -0.4629 -0.2650 -0.0095
17603W        W34451  16.881   4.626   5.325  0.1220 -0.3215  0.3491
17604W        W34452   6.126   9.516   5.217  0.1590  0.1185  0.1314
17605W        W34453   4.929   9.917   6.002 -0.0092  0.0247 -0.0055
17606W        W34454  14.970   7.100  14.546 -0.2946  0.2306  0.2566
17607W        W34455  13.613   9.049   0.590 -0.0408  0.0072 -0.0558
17608W        W34456  13.932   3.635  16.367  0.2635 -0.2217  0.3020
17609W        W34457   5.093  13.304  14.072 -0.0323  0.0171 -0.0975
17610W        W34458   6.030   2.336   5.636 -0.0206 -0.1050 -0.1870
17611W        W34459  12.238   2.077   4.933  0.1014 -0.1445  0.0809
17612W        W34460   1.054  13.465   2.735 -0.1073 -0.2156 -0.0583
17613W        W34461   8.203  15.240  15.552  0.2671  0.1142  0.1717
17614W        W34462  13.430   2.453  11.904  0.0529 -0.1603 -0.0334
17615W        W34463   9.964  14.140  13.483  0.0669  0.2392  0.0959
17616W        W34464   0.502   9.591  13.191  0.1605 -0.0886 -0.0712
17617W        W34465   6.657   6.141   2.980  0.0430  0.0049 -0.0028
17618W        W34466   1.071  14.836   0.709  0.0259 -0.1483  0.0120
17619W        W34467   6.997   8.795  16.779 -0.1555 -0.2636 -0.3678
17620W        W34468   2.485  10.752  17.500  0.1553 -0.2987  0.2126
17621W        W34469   2.901  11.862   1.961 -0.1191  0.0341  0.3339
17622W        W34470  16.395  12.672   4.603  0.0025 -0.2268  0.0327
17623W        W34471   5.101   0.522  15.400  0.2695  0.1175  0.2488
17624W        W34472  12.813   8.869  16.670 -0.0543 -0.2287  0.1990
17625W        W34473   2.663   3.886  17.804  0.1536 -0.1565 -0.1468
17626W        W34474   9.595   3.213   6.478 -0.0022 -0.0764 -0.1121
17627W        W34475   9.461  14.079  14.912 -0.1175  0.1482  0.1577
17628W        W34476   8.650   9.132  11.692 -0.0912  0.2042 -0.0976
17629W        W34477   8.126   5.067  14.774 -0.2702 -0.2761  0.1936
17630W        W34478   3.372   8.305  13.861 -0.0499 -0.2581 -0.1789
17631W        W34479   8.763   6.941   5.374 -0.0178  0.3056  0.0444
17632W        W34480   9.656   7.489   4.913  0.0956 -0.2318  0.0505
17633W        W34481  15.449  16.143  15.315 -0.0019 -0.0883 -0.3700
17634W        W34482  13.796  13.726   5.553  0.1049 -0.0868 -0.0336
17635W        W34483   8.723  11.465   4.671  0.0067  0.1698  0.3681
17636W        W34484   9.977   7.214   1.648 -0.0063 -0.0361 -0.4405
17637W        W34485   2.604   8.090   5.789  0.0572  0.0035  0.2715
17638W        W34486  10.104   8.283   0.712 -0.0518  0.0289 -0.0421
17639W        W34487  15.880  13.680  14.517 -0.0796 -0.2455  0.1181
17640W        W34488   1.982  14.212  14.303 -0.1409 -0.0792  0.1410
17641W        W34489   6.861  16.187  14.543  0.2598 -0.4325  0.0336
17642W        W34490  13.717   6.942   0.171 -0.2514 -0.0099  0.1908
17643W        W34491  12.140   4.361   2.961 -0.0795 -0.0689 -0.1088
17644W        W34492  11.020  10.216  15.104  0.2987 -0.1214  0.3231
17645W        W34493   9.820   0.773  13.171 -0.1784  0.1861 -0.0658
17646W        W34494   3.483  11.086  17.516 -0.0334 -0.1206  0.1877
17647W        W34495  10.903   1.534  16.895  0.0311  0.1228 -0.1101
17648W        W34496   8.502   8.270   5.208 -0.0470  0.2033  0.1962
17649W        W34497   5.721   1.738   4.865 -0.0238 -0.0642  0.1607
17650W        W34498  10.450  13.095  13.876  0.0003 -0.2712 -0.1597
17651W        W34499   0.192  16.500   1.545 -0.0116 -0.1823  0.0415
17652W        W34500  15.846   9.491  17.566  0.2380  0.0453 -0.2276
17653W        W34501  16.824  13.160  13.947  0.0248 -0.0014  0.2361
17654W        W34502   3.836   1.989   1.202 -0.0273  0.0458 -0.1017
17655W        W34503   6.875  16.517   4.581  0.1867 -0.0456  0.0953
17656W        W34504  15.131   4.555   2.497 -0.3279 -0.4953  0.1386
17657W        W34505   7.759  16.145  14.474  0.1800 -0.1169 -0.2495
17658W        W34506   7.759   4.200   4.942 -0.2463 -0.4179  0.1311
17659W        W34507   6.621   3.940   3.468  0.1496 -0.3559 -0.0414
17660W        W34508  13.621  10.421   4.362 -0.2206  0.0818 -0.1361
17661W        W34509   6.027   4.740   4.013  0.0615 -0.0911 -0.0297
17662W        W34510  10.856  11.862   1.460  0.1304 -0.0523 -0.4565
17663W        W34511  11.969   8.192  16.985  0.0942  0.1567 -0.1083
17664W        W34512   7.338   8.786   6.054  0.0288  0.1305 -0.2117
17665W        W34513   5.379  15.435  16.012  0.2006  0.0937  0.1128
17666W        W34514  13.333   9.913  12.544  0.0558  0.1001  0.0067
17667W        W34515  15.973  14.569   2.012 -0.1746 -0.3149 -0.1563
17668W        W34516   6.242   9.042  14.818 -0.0926 -0.0550  0.2276
17669W        W34517   9.942   4.181  14.441  0.1522 -0.0474 -0.0451
17670W        W34518   1.736   2.972  13.168 -0.1075  0.1177 -0.0981
17671W        W34519   7.066   3.788  12.119 -0.0552 -0.1449  0.1697
17672W        W34520   7.713  15.200  16.879 -0.0901 -0.0918  0.0206
17673W        W34521   0.999  12.315   5.893 -0.1685 -0.0128  0.0205
17674W        W34522   4.692  16.346   3.844 -0.2321 -0.3356  0.0091
17675W        W34523   9.043  12.763   3.934  0.4262  0.1458 -0.1514
17676W        W34524   4.648  10.642  13.770 -0.2134 -0.0498  0.1669
17677W        W34525   9.216   4.155  12.709  0.1857  0.3279  0.0173
17678W        W34526   6.552  13.096  13.099 -0.2399 -0.0392  0.1039
17679W        W34527   7.015   8.336  15.224  0.0712 -0.4998  0.3062
17680W        W34528  13.338  14.361  17.431 -0.2548  0.2457 -0.2813
17681W        W34529  16.406   5.382  16.139  0.0009  0.0275 -0.0545
17682W        W34530  11.780  15.715  17.111  0.0481 -0.1324  0.0001
17683W        W34531  12.649   8.898  13.446 -0.1035  0.0819  0.3476
17684W        W34532  16.080  14.974   6.550  0.2066  0.0602  0.0525
17685W        W34533  10.922  12.643  16.478  0.0676 -0.3294 -0.0855
17686W        W34534   3.114   7.398  15.568 -0.0907  0.0508  0.1812
17687W        W34535   0.339   9.976   4.321  0.1084  0.1727 -0.0680
17688W        W34536   0.119   9.898   4.828 -0.0123 -0.1900 -0.1232
17689W        W34537  11.504  12.491  13.702 -0.0342  0.1350 -0.5816
17690W        W34538  10.220   1.606  16.244  0.1180  0.0624  0.0803
17691W        W34539  13.243   3.386  17.811  0.0266  0.1689  0.1619
17692W        W34540   4.233   0.413  17.016  0.2537  0.1405  0.0498
17693W        W34541   0.499  14.611   0.245 -0.1033  0.2068 -0.2036
17694W        W34542  15.349   4.446  16.349  0.1784  0.1103 -0.0880
17695W        W34543  13.385   6.832  12.966  0.5238  0.1239 -0.2174
17696W        W34544   1.583  14.491  12.518 -0.0223 -0.2207  0.1120
17697W        W34545   8.506  15.171   4.094 -0.2808  0.1705  0.0483
17698W        W34546  10.056   9.463  15.869  0.1381 -0.3210  0.1409
17699W        W34547   9.636  10.819  13.398 -0.0050  0.1523  0.0928
17700W        W34548   7.364   6.526   2.484 -0.0212 -0.2471 -0.0519
17701W        W34549   7.138   4.850   1.032 -0.3500 -0.1959  0.1033
17702W        W34550   5.998  15.891   2.919 -0.2257  0.2643 -0.0618
17703W        W34551   4.632   5.588  17.708  0.0706  0.3934  0.0827
17704W        W34552  14.432   2.740  14.198  0.2432  0.3105  0.2802
17705W        W34553  11.317   1.921   0.103 -0.3525  0.0594  0.1533
17706W        W34554  14.886  10.102  16.664  0.1367  0.1658  0.1758
17707W        W34555  13.530   9.816  16.210 -0.2480 -0.3755  0.2176
17708W        W34556   3.523   4.708  12.246 -0.2697 -0.1442  0.1758
17709W        W34557   4.948   6.912   0.674 -0.1041 -0.1828 -0.2022
17710W        W34558  15.288   2.856  17.257  0.0729  0.0507  0.1989
17711W        W34559  10.401   2.833  15.629 -0.0859 -0.3258  0.1744
17712W        W34560  11.518  13.680   1.152 -0.0878  0.0895  0.0069
17713W        W34561  16.324   8.229  13.016  0.0763 -0.1400 -0.2122
17714W        W34562  15.446   6.150  14.639 -0.1947 -0.1886  0.0516
17715W        W34563  11.061   8.410  13.077  0.0055 -0.0810  0.0156
17716W        W34564  16.764  13.732   4.312 -0.1269 -0.3787 -0.2170
17717W        W34565   7.824  15.428  13.855  0.0851 -0.0772 -0.0827
17718W        W34566   2.946   4.596   1.639 -0.2748 -0.2592  0.2511
17719W        W34567   9.814   1.195   2.470 -0.3047 -0.1964  0.1876
17720W        W34568   9.498   7.309  16.565  0.1713  0.0765  0.1421
17721W        W34569  11.715  14.602   2.993  0.0822  0.0812 -0.0748
17722W        W34570   1.362  10.471   2.587 -0.0025 -0.0107 -0.0590
17723W        W34571  13.421   2.071  15.753  0.2363 -0.1121 -0.2038
17724W        W34572   2.978  15.817  12.820  0.2527  0.1586  0.0832
17725W        W34573   9.675  15.955   3.894  0.3089  0.2730  0.1029
17726W        W34574  13.707  12.951  16.279 -0.4176  0.0104  0.0893
17727W        W34575   2.166   0.866  15.097  0.1055  0.0296 -0.1921
17728W        W34576   0.216   7.305   3.470 -0.0005 -0.2169 -0.2923
17729W        W34577   7.966  14.592  16.217  0.1725  0.1086  0.0589
17730W        W34578   2.548  12.896  13.647 -0.0446 -0.1886  0.2568
17731W        W34579  14.418   5.526  12.369  0.1879 -0.1012 -0.1347
17732W        W34580   8.307  13.761   2.471 -0.0645 -0.1939 -0.1166
17733W        W34581   8.968  13.456   0.679  0.1778 -0.0563 -0.2439
17734W        W34582   5.313   1.291   1.572  0.2299 -0.2597 -0.1033
17735W        W34583   7.192  10.624  16.192 -0.0738  0.0948  0.0555
17736W        W34584  14.270   9.472   3.625  0.1584 -0.0102  0.2438
17737W        W34585   8.009   7.881   1.236 -0.3345 -0.4382 -0.0109
17738W        W34586   9.742  16.510   4.765 -0.0696  0.0122 -0.0571
17739W        W34587  15.615   3.218   2.165  0.1632  0.1896  0.0991
17740W        W34588  10.157  10.928   4.776  0.1574 -0.0860 -0.0573
17741W        W34589  14.052   5.931  11.206  0.1529 -0.1454  0.2190
17742W        W34590   1.020  14.032   1.422 -0.3409  0.1337 -0.4385
17743W        W34591   4.738  14.353  11.998  0.1652  0.0624 -0.4544
17744W        W34592  16.072   3.039   1.061  0.0443  0.0839  0.0325
17745W        W34593   4.769  13.775   1.997  0.0094 -0.1174  0.0682
17746W        W34594   9.654  12.356  17.825  0.0461  0.0520  0.1986
17747W        W34595  16.744  10.382   3.118  0.0127 -0.0010 -0.2624
17748W        W34596   9.156  12.126  13.098  0.0282 -0.4157 -0.2983
17749W        W34597   1.681  15.277  12.891 -0.1622  0.3994  0.2676
17750W        W34598   2.883  10.911  14.820  0.0874 -0.0332  0.0186
17751W        W34599   3.552   5.915  13.834 -0.2355  0.0239 -0.3473
17752W        W34600  10.834   8.017  14.028 -0.1449  0.0501 -0.2003
17753W        W34601  14.420   2.085   2.523 -0.2120 -0.0922 -0.0480
17754W        W34602   6.469   6.360   3.370  0.0492 -0.0587 -0.2195
17755W        W34603  13.634  11.778  16.955  0.1094 -0.0269  0.1088
17756W        W34604  16.924  12.478   2.633  0.0607 -0.0134  0.0859
17757W        W34605   0.377   9.554  16.186  0.2669  0.0514 -0.0461
17758W        W34606   0.142   1.828   4.932 -0.2843 -0.1208  0.0089
17759W        W34607   6.977   4.664  13.727  0.2371  0.2360 -0.0725
17760W        W34608   7.334   5.091  17.483  0.2805 -0.1434  0.2179
17761W        W34609   3.501  14.699   0.491 -0.2064  0.1929 -0.2357
17762W        W34610   5.454  15.327   0.914  0.0253  0.2225 -0.2154
17763W        W34611  11.969   5.617   3.671 -0.2251  0.0071 -0.2043
17764W        W34612  16.369  14.423   4.737 -0.0769  0.2185  0.1469
17765W        W34613   0.347  16.952   0.208 -0.1038  0.2480  0.1582
17766W        W34614   4.748   0.146   4.858 -0.2870 -0.4188 -0.0618
17767W        W34615  14.686  16.591   3.701 -0.0108  0.3282  0.0461
17768W        W34616   3.558   5.920   5.175 -0.3102  0.1679  0.1580
17769W        W34617   0.076   8.212   1.698 -0.1237 -0.0101  0.1067
17770W        W34618   8.509   0.203   0.443 -0.1206  0.2237  0.0255
17771W        W34619  15.562   2.236  12.239  0.1754  0.1229  0.0025
17772W        W34620   3.506   1.621  17.163  0.0377 -0.6135 -0.1537
17773W        W34621   4.612   8.575   5.299 -0.1061  0.1954 -0.2194
17774W        W34622  17.031  16.792   1.163 -0.2043 -0.0469 -0.0794
17775W        W34623  16.900  13.950   3.648 -0.1573  0.0235  0.0658
17776W        W34624   2.019   2.188   5.132 -0.0754 -0.3373  0.0156
17777W        W34625   3.806   4.359  13.635 -0.0964  0.0949 -0.1536
17778W        W34626   4.013  11.242  17.497  0.1399 -0.0657  0.0826
17779W        W34627  15.084   0.465   5.454 -0.0372  0.4746  0.3005
17780W        W34628   3.963   9.968   1.695  0.0252  0.2752  0.0406
17781W        W34629  16.812  11.763  13.050  0.3327  0.0130 -0.0004
17782W        W34630  15.432   4.616   3.365 -0.0253 -0.0846 -0.1128
17783W        W34631  12.431   5.649   1.904  0.0718  0.1219 -0.3206
17784W        W34632  10.661   3.351  14.235  0.1336  0.1583 -0.3454
17785W        W34633   7.276   8.387   3.057 -0.0373 -0.0320 -0.0540
17786W        W34634   2.262  15.442   3.403 -0.0341 -0.1214 -0.0967
17787W        W34635  14.779  15.005  14.022 -0.5705 -0.3055  0.0303
17788W        W34636   7.704   0.573  11.122  0.0880  0.1407 -0.1935
17789W        W34637  16.910  10.509  15.974 -0.1393 -0.0292  0.3338
17790W        W34638  10.230   6.106  14.291 -0.0839 -0.2030  0.0787
17791W        W34639  12.638   3.360  17.193 -0.2474  0.0202 -0.1474
17792W        W34640  16.755  10.097  12.082 -0.0741 -0.2133 -0.1610
17793W        W34641   8.562   0.198  13.184  0.0427  0.0790  0.0155
17794W        W34642   5.642   7.583   0.702  0.0327 -0.0895  0.0648
17795W        W34643  16.363  10.737  12.618  0.1723  0.1651  0.3014
17796W        W34644   1.196   3.682   5.249 -0.1233 -0.0609 -0.1051
17797W        W34645  15.318   7.765  16.097 -0.0768 -0.2739 -0.0746
17798W        W34646   2.841   0.276  12.834  0.0471 -0.0334  0.0621
17799W        W34647   3.212  11.517  12.447 -0.0428  0.0621 -0.0409
17800W        W34648  15.826  11.888   1.255  0.1730 -0.2039 -0.0720
17801W        W34649   6.138   7.107  16.227 -0.3692 -0.0946 -0.0106
17802W        W34650  13.271   1.480   3.772  0.1216 -0.1089 -0.0235
17803W        W34651   6.243   9.150  17.778 -0.0147 -0.1054 -0.2655
17804W        W34652   2.561  15.515   4.347 -0.0382 -0.0019 -0.1247
17805W        W34653  13.691  15.400   0.409  0.0720 -0.1300  0.0021
17806W        W34654   5.150   6.837   1.375 -0.1657 -0.2074  0.0381
17807W        W34655   2.694  14.622   0.042 -0.2181 -0.0910  0.1053
17808W        W34656   3.148  16.192   4.540 -0.0540 -0.2226  0.1729
17809W        W34657  12.164   9.335  16.398  0.1742  0.0926  0.0372
17810W        W34658   3.271  11.617  16.872 -0.2142 -0.0889 -0.2445
17811W        W34659  16.067   3.096  15.345 -0.0260  0.0913 -0.0358
17812W        W34660   4.163  10.056  14.269 -0.2387  0.2906 -0.0052
17813W        W34661   4.966   8.050   0.155  0.2876  0.0671  0.1711
17814W        W34662  10.408  10.793  15.515 -0.0536 -0.0486  0.0699
17815W        W34663  12.966   7.715  16.425  0.0080 -0.0181  0.0233
17816W        W34664   8.381   7.803   0.818  0.0104  0.2116  0.0154
17817W        W34665  16.992   9.390  12.459 -0.1712 -0.0934 -0.0436
17818W        W34666  12.367   3.641   1.958 -0.0399  0.2159 -0.1616
17819W        W34667   8.986   1.581   3.094 -0.1417  0.2463  0.0172
17820W        W34668   4.104   1.249   0.059 -0.0558 -0.2008 -0.3736
17821W        W34669   4.768   4.662   1.124 -0.0071 -0.1045  0.1093
17822W        W34670  11.339   3.028  16.107  0.0391  0.1557 -0.0369
17823W        W34671   7.296   3.754   0.689  0.0903  0.0161 -0.1476
17824W        W34672  14.278  15.913  16.988  0.1968  0.1101 -0.0209
17825W        W34673  16.694   5.785  16.004  0.3474 -0.0291  0.0871
17826W        W34674   9.425   0.449   1.933 -0.0609 -0.0830  0.0670
17827W        W34675   4.963  11.725  12.462 -0.0617  0.2653  0.0989
17828W        W34676   1.995   5.228   0.906  0.0967  0.1241 -0.1899
17829W        W34677   3.631   4.945  16.974 -0.3785 -0.2644 -0.1951
17830W        W34678   9.337   1.284  13.474  0.3892  0.0224  0.0515
17831W        W34679  12.737  11.813  17.355 -0.1069 -0.1097  0.1535
17832W        W34680   2.409   3.700   0.414  0.0888  0.3588 -0.1813
17833W        W34681  12.581   4.482   3.166 -0.3939 -0.0233 -0.2308
17834W        W34682  11.596  13.397   1.643  0.1411  0.1109 -0.1137
17835W        W34683  13.271   7.289   6.005 -0.2914  0.1974  0.0202
17836W        W34684   3.350  14.691  16.288  0.1441 -0.0462  0.0104
17837W        W34685   3.606   1.276   3.495  0.0925  0.1946  0.0678
17838W        W34686   4.035   0.120  12.227 -0.0108 -0.1088 -0.1110
17839W        W34687   6.674  16.181   4.888  0.1190  0.0511  0.1318
17840W        W34688   4.336  16.701   1.967 -0.4101 -0.0776 -0.2226
17841W        W34689   8.126   3.916  13.814  0.2055 -0.0080  0.1875
17842W        W34690   8.119  11.307   0.210 -0.1333 -0.1065  0.2726
17843W        W34691   8.841   4.083  16.666  0.0486  0.0822  0.2918
17844W        W34692   1.935  13.446   0.210 -0.0604 -0.1673 -0.0522
17845W        W34693   9.603   4.365   5.087 -0.0028 -0.0294 -0.2131
17846W        W34694  13.842  12.802   4.464  0.2054 -0.2858  0.1994
17847W        W34695  16.900  10.912   4.249  0.0945 -0.1047 -0.0789
17848W        W34696  12.394  16.412  14.085  0.1516 -0.0393 -0.1052
17849W        W34697  11.337  15.615  16.961 -0.1235  0.1417 -0.1782
17850W        W34698   1.738   8.543   3.926  0.1307 -0.1075 -0.1290
17851W        W34699   6.344   4.083  12.442  0.1971  0.1151  0.1324
17852W        W34700  15.995   2.537   0.918  0.0219  0.0690 -0.1494
17853W        W34701  14.890  14.946   0.260  0.0975 -0.0010  0.2442
17854W        W34702   9.768  14.906  14.106  0.1133 -0.2231  0.2267
17855W        W34703   1.676   9.021  14.106 -0.1480  0.0828  0.0063
17856W        W34704   5.489   2.067  13.115  0.0283 -0.1111  0.3715
17857W        W34705  16.678   2.568   1.721  0.2002  0.0772 -0.0856
17858W        W34706  11.675   1.256   3.202 -0.0245 -0.0783 -0.1017
17859W        W34707  16.517   7.011   0.795 -0.3858  0.1648  0.1440
17860W        W34708  16.210  10.966   1.169  0.0168 -0.2018 -0.0886
17861W        W34709  12.053   4.442   0.522  0.0803 -0.0412 -0.2075
17862W        W34710   9.698  14.276   1.088 -0.0683  0.0758  0.0057
17863W        W34711   8.510   0.117   3.376  0.2825 -0.0977 -0.2056
17864W        W34712   4.619   1.737   5.217  0.1940  0.4102  0.0081
17865W        W34713  16.449   3.209   0.243 -0.1504  0.1109  0.1690
17866W        W34714   0.563   2.221   5.179  0.3522  0.0471 -0.1735
17867W        W34715   4.944  10.698  13.126  0.1285  0.2082 -0.1448
17868W        W34716  11.004  10.896  17.732 -0.1907 -0.0055  0.0771
17869W        W34717   3.678  11.151  17.074  0.2235 -0.0877  0.0133
17870W        W34718   8.810   5.818   2.541 -0.1006  0.1920  0.4006
17871W        W34719  10.884   8.836  17.688 -0.0844  0.1449 -0.1307
17872W        W34720   6.663  10.518   2.274  0.1933  0.0611 -0.0449
17873W        W34721   8.794  12.777   0.793 -0.0744  0.1327 -0.0811
17874W        W34722   0.074  11.216  17.546 -0.0124 -0.2430 -0.2250
17875W        W34723  11.299   9.611  12.431  0.3794 -0.0733 -0.0962
17876W        W34724   1.038  16.984  12.621 -0.0762 -0.1603 -0.1391
17877W        W34725  16.545   5.308  14.203  0.0185 -0.2962 -0.2786
17878W        W34726  15.389   7.555   2.561 -0.0037 -0.0831  0.1075
17879W        W34727   8.829  14.739  15.054  0.2610 -0.0381 -0.1548
17880W        W34728   8.737   6.956   2.827 -0.0719 -0.0202 -0.0514
17881W        W34729   6.221   7.156   0.067  0.0810 -0.1790 -0.2047
17882W        W34730  12.690   3.374  17.748 -0.1800 -0.0300  0.0355
17883W        W34731   4.290  16.365  15.721  0.0538 -0.1097 -0.0619
17884W        W34732   9.805  10.094  15.200  0.0762  0.2073  0.2617
17885W        W34733   2.048   4.953   1.361 -0.4522 -0.2341  0.1704
17886W        W34734   0.024   6.154   3.224 -0.1642  0.0165 -0.3646
17887W        W34735  12.114   7.794  17.393  0.5453  0.3156  0.1493
17888W        W34736   6.905   2.450   0.249  0.0990  0.1404 -0.0032
17889W        W34737   5.948   2.948  12.369  0.1123  0.1933 -0.1304
17890W        W34738   6.709   4.268  15.658 -0.1142 -0.1341  0.0340
17891W        W34739   0.959  10.505   0.087  0.0203 -0.1500  0.1473
17892W        W34740  10.086   9.648  12.656  0.2863 -0.0252 -0.1595
17893W        W34741   0.557   5.049   5.737  0.3028  0.0166  0.2549
17894W        W34742  14.145  10.155   1.172 -0.1104  0.1779 -0.1820
17895W        W34743   0.965   2.107   1.179  0.2536  0.1360  0.0014
17896W        W34744  15.411   9.196  14.955  0.1412  0.0897 -0.2205
17897W        W34745   0.855   3.226   5.344  0.1972  0.1064 -0.2103
17898W        W34746   8.440   0.006  12.147  0.0937  0.2012  0.0374
17899W        W34747   3.382   7.746  14.538 -0.0652 -0.0569 -0.1734
17900W        W34748   4.162   0.739   3.965  0.3579 -0.2181  0.2343
17901W        W34749  16.558  15.798  17.239  0.2137 -0.1898 -0.2047
17902W        W34750  12.814   6.540   1.005 -0.1359 -0.1355 -0.1352
17903W        W34751  10.982  10.392   4.293 -0.0743 -0.0702 -0.3755
17904W        W34752   1.258   6.317  12.264  0.0131  0.1255 -0.1735
17905W        W34753   0.506   2.431  14.742  0.0538 -0.1210  0.0751
17906W        W34754   1.840   0.375  12.979  0.0791 -0.0728 -0.2033
17907W        W34755   6.183  10.634   0.465 -0.0507 -0.1341 -0.1024
17908W        W34756   2.593  11.587   4.009  0.0504  0.1759 -0.0448
17909W        W34757  14.850   5.104   5.711  0.1549 -0.0829 -0.0554
17910W        W34758  12.916  16.135  12.933 -0.0887 -0.0083 -0.0037
17911W        W34759  11.076   1.336  11.355 -0.1616  0.0211 -0.2823
17912W        W34760   6.919   3.498   4.599  0.1437  0.0661 -0.0538
17913W        W34761  13.130   0.260   2.022 -0.0290 -0.0262 -0.0450
17914W        W34762   6.545   7.901   3.397 -0.2479  0.1667  0.2938
17915W        W34763   9.273  11.852   4.053  0.0273 -0.0345  0.1314
17916W        W34764   4.986   6.698  12.442  0.2463 -0.2180  0.2646
17917W        W34765   6.757   5.017  17.400 -0.0399 -0.1339 -0.1339
17918W        W34766  11.404   8.884  16.912 -0.0921 -0.0043 -0.1494
17919W        W34767  14.134   6.968  16.375 -0.0248 -0.3381 -0.0147
17920W        W34768  13.926   2.371  16.751 -0.2151  0.0467 -0.2393
17921W        W34769  11.377  15.359   1.778 -0.1255  0.1773  0.1937
17922W        W34770  16.020   0.002   4.443 -0.1274  0.0464  0.0672
17923W        W34771   1.531  11.588   3.655 -0.3647  0.2006  0.1179
17924W        W34772   4.773   4.876  12.596  0.2614 -0.0402 -0.1487
17925W        W34773   9.672   2.613   4.921  0.0316  0.0839  0.0903
17926W        W34774   6.509  10.949  14.671 -0.2145  0.3647  0.0589
17927W        W34775  11.747   3.866  15.160  0.3155  0.0124  0.0760
17928W        W34776   1.255  12.935   3.376 -0.0096 -0.0101  0.2707
17929W        W34777   0.414   3.127   5.636  0.2635  0.1247 -0.2418
17930W        W34778   5.256  13.015  17.514 -0.0610 -0.4328 -0.2056
17931W        W34779   1.306   3.464   5.753 -0.1626 -0.1360  0.1061
17932W        W34780   2.794   9.491  13.279 -0.1212 -0.0448  0.2146
17933W        W34781   2.774   2.240   2.569  0.3265  0.1207  0.1251
17934W        W34782   7.411   9.759  16.747 -0.0284  0.0476  0.1992
17935W        W34783   7.879   4.852  13.992  0.1272  0.0515 -0.0248
17936W        W34784   6.112   2.509  16.220 -0.1953  0.1747  0.2697
17937W        W34785  13.686   4.912  17.492  0.0739 -0.1030 -0.0542
17938W        W34786  11.199   8.854   5.305 -0.2913 -0.0025 -0.3487
17939W        W34787  16.007  13.936  17.578  0.1087  0.2161 -0.5471
17940W        W34788   0.702  16.793   3.401  0.5274 -0.0908  0.0512
17941W        W34789  14.528  16.308   0.134  0.0236 -0.0735  0.1368
17942W        W34790  12.038   5.702   5.689  0.1658 -0.0423  0.3340
17943W        W34791   1.117  11.555   3.358  0.0296  0.1930  0.2422
17944W        W34792   1.289   5.923  14.441  0.0245 -0.1168  0.1337
17945W        W34793  16.600  14.623   2.571  0.1049 -0.2429  0.1118
17946W        W34794  13.202   5.755   3.970 -0.0940 -0.0086 -0.0100
17947W        W34795  11.279   9.122  13.275  0.2016  0.2341  0.1033
17948W        W34796  10.267   0.742  12.920  0.3690  0.1197 -0.2223
17949W        W34797  14.685  15.704   4.626  0.0998  0.3642  0.0883
17950W        W34798   2.907  13.094   4.964 -0.0383  0.0900  0.1909
17951W        W34799   3.049  15.943  14.555 -0.0425  0.1679 -0.0258
17952W        W34800   7.054   8.452   4.259 -0.1706 -0.0237 -0.3186
17953W        W34801   3.831  15.964   5.055  0.1552  0.0578 -0.3937
17954W        W34802  15.263   8.490   4.065  0.0908 -0.0113 -0.1059
17955W        W34803   2.410   6.708  13.903 -0.0857 -0.0516  0.0466
17956W        W34804   3.158  14.250   1.272  0.0978 -0.1992 -0.1534
17957W        W34805  10.778  17.021   1.815  0.0735 -0.0922 -0.0525
17958W        W34806  15.967  13.160  14.526 -0.0794 -0.2122  0.0333
17959W        W34807   5.256   9.235  14.482 -0.1768 -0.2754 -0.1038
17960W        W34808  16.860   1.935  12.621  0.2023  0.2308 -0.2627
17961W        W34809  14.679   6.328  17.835  0.0865  0.0939 -0.1583
17962W        W34810   8.487   1.265  17.483 -0.2291 -0.0901 -0.1094
17963W        W34811   9.229   5.046  13.115 -0.3188 -0.2855  0.1609
17964W        W34812  16.115   3.445  12.739  0.0313  0.1316 -0.2004
17965W        W34813  10.113   2.012  15.938  0.1026  0.0858  0.3104
17966W        W34814  10.452   4.179  17.751 -0.0753 -0.1837  0.1768
17967W        W34815   6.254  16.753  17.843  0.0366 -0.0329 -0.1023
17968W        W34816   3.773  10.864   2.323  0.1502  0.1754  0.1112
17969W        W34817  10.610  12.404   5.498 -0.0690  0.4813  0.4045
17970W        W34818   5.967   0.843  12.751 -0.1309 -0.1066  0.1631
17971W        W34819   1.731   9.865   5.073 -0.1551  0.1466 -0.0168
17972W        W34820   1.257   1.347   2.593 -0.1361 -0.1522 -0.2404
17973W        W34821   2.993   9.217   5.205  0.0239 -0.0185  0.0067
17974W        W34822  13.446   1.848   0.457  0.0322  0.0230  0.1406
17975W        W34823  13.646   7.960  17.536 -0.1371 -0.0746  0.2142
17976W        W34824  10.116  11.041   5.502 -0.0252 -0.1634  0.1050
17977W        W34825  10.514  12.923  14.487 -0.3039 -0.2813 -0.0083
17978W        W34826   9.408   6.978   5.036  0.0478 -0.0273  0.2981
17979W        W34827   0.588  12.974   1.917 -0.1042 -0.0852  0.1920
17980W        W34828   9.472   8.109  12.094 -0.2188  0.1209  0.0085
17981W        W34829  15.193  11.956   5.554  0.4049  0.0148 -0.0638
17982W        W34830  13.934  12.422   4.918 -0.1142  0.0986 -0.0113
17983W        W34831   3.798  16.736   2.789 -0.3477  0.0656 -0.1699
17984W        W34832   1.441   1.530   1.641  0.2258 -0.4781  0.2029
17985W        W34833  16.223  12.426   2.557 -0.0303 -0.0389  0.0413
17986W        W34834   1.140  12.955  14.663 -0.3323 -0.1628 -0.3173
17987W        W34835   5.514  11.353   5.398 -0.0432 -0.4019 -0.0902
17988W        W34836   8.912   1.442  13.715 -0.0297  0.0596  0.5792
17989W        W34837   6.664   3.510  16.479  0.1843  0.1091 -0.0987
17990W        W34838   6.723  15.730   5.161 -0.0170  0.2381 -0.1109
17991W        W34839   5.680   7.107   1.581 -0.1910  0.4001  0.0313
17992W        W34840  14.548   4.145  17.787  0.0561 -0.0787  0.1721
17993W        W34841   7.060  11.863  12.369 -0.0177  0.2772 -0.1023
17994W        W34842  10.789   8.302   2.189 -0.0220  0.1277 -0.1804
17995W        W34843  11.650  11.766   1.508 -0.0021  0.1658 -0.2230
17996W        W34844   4.328   4.877   4.577 -0.1460  0.3593 -0.0869
17997W        W34845  16.799   8.558   0.168  0.1244 -0.3340  0.1415
17998W        W34846   0.287   1.564   4.505 -0.1117 -0.1255  0.1898
17999W        W34847   9.153   2.252  14.991 -0.1028 -0.1541 -0.0220
18000W        W34848  12.826   0.871  12.906 -0.0719 -0.2374  0.0897
18001W        W34849  15.669   7.148   2.697  0.0042  0.2029  0.0693
18002W        W34850   9.614  11.368  13.680  0.0815 -0.4622  0.2344
18003W        W34851  10.420  15.752   4.184 -0.1464 -0.0031 -0.0204
18004W        W34852   2.101  14.992  14.267 -0.3525  0.0333  0.0924
18005W        W34853   8.951   8.850   3.188 -0.0072  0.1854 -0.0080
18006W        W34854   3.366  15.501  12.575  0.4526 -0.3597  0.1317
18007W        W34855   0.712   0.794  16.134 -0.2293 -0.0019  0.1612
18008W        W34856   1.989   6.794   0.057 -0.0224  0.0809 -0.4411
18009W        W34857   6.309   8.610   4.951 -0.0229  0.2425 -0.2586
18010W        W34858   5.099   5.269  17.687  0.0841 -0.0506 -0.3263
18011W        W34859   0.879   1.097  15.399 -0.0146 -0.0956 -0.0490
18012W        W34860  13.464  15.995  13.743 -0.0719  0.2918 -0.1063
18013W        W34861  13.435  11.002   3.762  0.1097 -0.2534  0.1973
18014W        W34862   2.409   9.355   0.239  0.1920 -0.0607 -0.1357
18015W        W34863  14.161   4.097   3.492 -0.0270 -0.0557 -0.0223
18016W        W34864   9.895   7.511  15.554 -0.2229 -0.1178  0.0176
18017W        W34865  10.605   1.185   1.842 -0.1812  0.0657  0.0191
18018W        W34866  15.662   3.394  14.613 -0.1172 -0.0387  0.1126
18019W        W34867   7.216  14.150   4.315  0.1578  0.1672  0.3898
18020W        W34868   9.025  17.021  16.608 -0.1558 -0.2712  0.1039
18021W        W34869  16.660   9.860  13.630  0.0478 -0.1782  0.1013
18022W        W34870   4.817  11.359  15.808  0.1245 -0.0281 -0.0189
18023W        W34871  14.813   2.066   2.904  0.1901  0.0822  0.2101
18024W        W34872   2.098  12.463  14.169  0.0036  0.1333 -0.2214
18025W        W34873  13.131  13.868   1.145 -0.1203  0.4453  0.2354
18026W        W34874  15.365  10.658   4.111  0.0916 -0.3742  0.0845
18027W        W34875   6.531   2.954  15.540  0.2201 -0.1914  0.0452
18028W        W34876  14.317  14.327   3.971  0.0373  0.3014 -0.1686
18029W        W34877   3.857   8.120   2.410 -0.0048  0.0637  0.2932
18030W        W34878  12.549   1.041   5.420 -0.1134  0.1274  0.1188
18031W        W34879   6.149  13.279  15.943  0.1688  0.0832 -0.1196
18032W        W34880   6.123  12.110   0.040 -0.1639  0.0157  0.1274
18033W        W34881  13.289   9.935   2.437 -0.1337  0.0051 -0.2060
18034W        W34882  14.500   8.208  16.043 -0.3325 -0.2682 -0.3271
18035W        W34883   6.226  10.742  12.861  0.1789 -0.2445  0.2679
18036W        W34884   4.289   6.672  16.549 -0.0302 -0.0270 -0.2431
18037W        W34885  15.961   6.408   2.215 -0.1115  0.0169  0.1321
18038W        W34886   0.821   6.148  12.020  0.0431  0.1441 -0.2032
18039W        W34887  13.661  10.991  15.846 -0.1265 -0.1075 -0.2963
18040W        W34888   8.416   8.427  12.939  0.1383 -0.0959 -0.2416
18041W        W34889  14.806   5.524   4.640  0.1281 -0.1906 -0.1696
18042W        W34890   3.845   6.568   2.103 -0.2504 -0.0689 -0.1839
18043W        W34891   3.133  12.038   4.899 -0.0841  0.0806 -0.0181
18044W        W34892   4.275   4.324   4.399 -0.1604  0.2683  0.0458
18045W        W34893   3.726  14.079   2.283  0.0293  0.2806 -0.3436
18046W        W34894   0.994  10.704  16.494 -0.1434  0.1971  0.1810
18047W        W34895  15.519   5.648   6.204 -0.2494 -0.1347  0.1330
18048W        W34896   2.981  16.451  12.987  0.1366 -0.0849 -0.0005
18049W        W34897   3.127   6.881  14.328 -0.0774  0.0973 -0.1629
18050W        W34898  15.587  16.465  15.703 -0.0443 -0.1860  0.2048
18051W        W34899   1.736   4.226  14.686  0.0132  0.2825  0.1037
18052W        W34900  16.942   7.814   0.016  0.3249 -0.1925  0.0125
18053W        W34901  12.974  12.520  16.563 -0.1308 -0.0169 -0.0015
18054W        W34902   2.654   1.019  15.260 -0.1694 -0.0263 -0.0496
18055W        W34903   1.478   2.523  13.956  0.0829 -0.1949  0.2168
18056W        W34904   2.067   7.831  17.132  0.2518  0.0452  0.0441
18057W        W34905   2.437   0.732  13.615 -0.2535 -0.1580 -0.0760
18058W        W34906   7.261   2.221  14.588 -0.1178 -0.1763  0.0573
18059W        W34907   9.134   0.902   0.782 -0.0853 -0.0129 -0.3939
18060W        W34908   7.501   5.946  12.067  0.1992 -0.1342 -0.0641
18061W        W34909   3.611   4.196   3.633  0.1359 -0.1479  0.2035
18062W        W34910   6.332   5.530   0.072  0.0552  0.3907 -0.0686
18063W        W34911  13.411  15.260  17.821 -0.2058 -0.2265  0.1095
18064W        W34912   0.478  15.715  13.220  0.0127 -0.2844 -0.1767
18065W        W34913  17.061  16.152   1.798 -0.0426 -0.0220 -0.2930
18066W        W34914  15.302   2.976   5.939 -0.0382  0.2914 -0.0397
18067W        W34915   9.769   5.335   0.302 -0.1285 -0.0737  0.1582
18068W        W34916   7.365   4.944  14.073  0.1333 -0.1661 -0.2261
18069W        W34917  10.610  11.654   0.431 -0.0552  0.1437 -0.0504
18070W        W34918  11.005   7.417   3.778 -0.0703  0.3445 -0.0067
18071W        W34919  17.042  10.878   2.951  0.1427  0.0882 -0.0343
18072W        W34920   7.224  11.861  16.633  0.1125 -0.0723 -0.0211
18073W        W34921  11.837  16.808  12.705 -0.4637 -0.0765  0.2449
18074W        W34922   7.197   1.651   0.960 -0.0664  0.0249  0.2247
18075W        W34923   7.956  12.637   4.941  0.1434 -0.0309 -0.1168
18076W        W34924   7.433   0.005  12.861 -0.2234 -0.4169 -0.0862
18077W        W34925   3.181   8.772  17.684  0.2052  0.0624  0.1043
18078W        W34926   8.435  12.727  13.122  0.0988 -0.0842 -0.0059
18079W        W34927   0.471   9.462   5.897 -0.0426 -0.1333 -0.3380
18080W        W34928  11.325   5.196  15.425 -0.0129  0.2276  0.0217
18081W        W34929  11.691   2.871   3.556  0.3761  0.2581 -0.1924
18082W        W34930   5.841   1.237  16.405 -0.1344  0.1186  0.2422
18083W        W34931  11.724  16.860  14.704  0.0629 -0.1571  0.1572
18084W        W34932  10.801  13.406  16.854 -0.0835  0.1782  0.0282
18085W        W34933  10.107  12.684  14.588  0.3283  0.2409 -0.1855
18086W        W34934  11.741   1.558   1.402  0.4687 -0.0271 -0.0462
18087W        W34935   4.960  16.521   3.343 -0.0617 -0.0823  0.1103
18088W        W34936   3.665   1.855   2.151 -0.3548 -0.0015  0.2639
18089W        W34937  13.710  16.412  15.393  0.3816 -0.3345 -0.0642
18090W        W34938   6.706  13.389  16.881  0.0324 -0.3428  0.2222
18091W        W34939  13.298   0.950  14.187 -0.1197 -0.1596  0.1941
18092W        W34940   6.983   2.276  16.020  0.1589 -0.0654 -0.2744
18093W        W34941   8.332   4.448   4.101 -0.0655  0.0476  0.0263
18094W        W34942  12.867   0.730   3.333 -0.0239  0.1637 -0.1625
18095W        W34943  15.937  14.831  15.935 -0.0145 -0.2495  0.0105
18096W        W34944   1.508   4.955   1.459 -0.1389 -0.1591  0.0202
18097W        W34945   5.408  11.686   0.666  0.0067 -0.0412 -0.0390
18098W        W34946   9.132   2.613  15.349  0.2108  0.0046  0.0699
18099W        W34947  11.837   3.741   2.363  0.1947 -0.1162  0.0645
18100W        W34948  14.532  16.198   4.925  0.1743 -0.0996  0.1750
18101W        W34949   4.000  10.089  16.134  0.1012  0.1658 -0.1070
18102W        W34950  14.668   0.063  17.358  0.2473  0.1648 -0.1776
18103W        W34951  14.358  12.422   5.183  0.0404 -0.0769  0.0429
18104W        W34952   8.677   8.545  17.157 -0.2061 -0.3507 -0.1079
18105W        W34953   0.358   9.444   4.400 -0.0735  0.0328 -0.1351
18106W        W34954   1.572  13.147  17.379  0.0220 -0.1906  0.1371
18107W        W34955   5.225  15.784   4.192  0.2385 -0.1482 -0.0004
18108W        W34956   6.067  14.820  12.087 -0.2331 -0.0472 -0.2117
18109W        W34957  15.955  14.466   0.920 -0.1557  0.1367  0.2093
18110W        W34958   4.174   5.476  12.099 -0.2602 -0.0569  0.1393
18111W        W34959  10.540   6.726  15.505 -0.1983  0.0132 -0.2418
18112W        W34960   0.898   9.581   3.060 -0.0944  0.2011  0.0666
18113W        W34961   4.527   6.158  12.325  0.0934 -0.0523 -0.2717
18114W        W34962   9.324   7.712   0.616  0.0998 -0.1382 -0.1535
18115W        W34963   2.719  13.850   0.614 -0.3372 -0.0535  0.0718
18116W        W34964  12.017  12.262  12.633  0.0589 -0.2729 -0.0694
18117W        W34965   4.404   2.583  12.397 -0.1180  0.0508  0.0379
18118W        W34966  12.029  11.713   3.199 -0.0677 -0.0413 -0.2268
18119W        W34967  16.620  14.474   3.614 -0.2921  0.0903  0.0661
18120W        W34968   2.866  11.830  11.963 -0.1903  0.1097 -0.0352
18121W        W34969   3.518   9.788   2.987 -0.0598 -0.2164 -0.0363
18122W        W34970   7.651  10.286  16.115  0.0834  0.0443 -0.0496
18123W        W34971  15.444  16.903  16.362  0.0187  0.3561 -0.0003
18124W        W34972   3.894  13.269   0.567  0.3590 -0.0106  0.1639
18125W        W34973  13.964  16.889  14.758 -0.0044 -0.1178  0.0390
18126W        W34974  11.759   1.570   4.248 -0.1603 -0.1351 -0.2172
18127W        W34975   2.913   5.367   1.003 -0.0274 -0.0276 -0.0751
18128W        W34976  10.874   8.993  15.972  0.1973 -0.0595  0.0699
18129W        W34977   6.896   7.953   2.992 -0.2878  0.0582 -0.1765
18130W        W34978   8.137  16.812  16.667  0.2056  0.1830 -0.3215
18131W        W34979  13.541   1.555   0.840 -0.1045 -0.2024  0.4603
18132W        W34980   3.677  16.865   5.375 -0.0093 -0.3014  0.1720
18133W        W34981  10.136   7.953  14.661  0.0744  0.0244 -0.2471
18134W        W34982  13.381  16.397   2.108 -0.0741 -0.0991 -0.3231
18135W        W34983  14.223   5.764   1.753  0.0179 -0.2473 -0.0684
18136W        W34984  10.179   7.069  16.328  0.2238 -0.1789  0.3044
18137W        W34985   7.272  16.642  13.742  0.0931 -0.0057  0.2284
18138W        W34986  16.596   2.565   3.273 -0.2097  0.0700  0.2409
18139W        W34987  13.463   5.648  14.933  0.2624  0.0832  0.1952
18140W        W34988   0.185   0.791   5.237  0.2446  0.0571 -0.2122
18141W        W34989   4.376   4.183   4.880  0.0756 -0.2727  0.0574
18142W        W34990   0.255   5.248   6.465  0.0004 -0.0778  0.1021
18143W        W34991   1.020   2.081  16.193  0.1231 -0.1608  0.2871
18144W        W34992  10.542   5.305  15.744  0.0716 -0.1498  0.0426
18145W        W34993   8.027  12.326   3.659 -0.0371 -0.0390  0.1067
18146W        W34994   8.816   4.686   3.290 -0.1930 -0.1215  0.0726
18147W        W34995  16.615  17.034   3.787  0.0355  0.0126  0.0807
18148W        W34996   3.968   9.177   4.841 -0.1854  0.0360 -0.0751
18149W        W34997  12.963  10.163  12.917 -0.0137  0.0514  0.0627
18150W        W34998   1.171  14.865  13.696 -0.0423 -0.2752 -0.6517
18151W        W34999  14.548   2.429  12.673 -0.0439 -0.1758 -0.1157
18152W        W35000  13.762  11.578   4.733 -0.0038 -0.2467 -0.4674
18153W        W35001   0.960  16.673  14.566  0.0634  0.1893  0.2622
18154W        W35002   1.805   7.541   2.512  0.1472 -0.1035 -0.2013
18155W        W35003  14.395   3.758  15.254  0.0066 -0.1615 -0.1596
18156W        W35004   9.907   4.431   0.517  0.1691 -0.2300  0.3586
18157W        W35005  13.732  10.977  13.238 -0.1083  0.3767 -0.4766
18158W        W35006   2.705   4.684  14.898  0.0026  0.2370 -0.2347
18159W        W35007  14.252  12.087   2.167 -0.1865 -0.0055  0.0886
18160W        W35008  15.215   4.838  16.715 -0.1259 -0.2952 -0.3187
18161W        W35009  10.159   7.543   5.059 -0.1230  0.0419 -0.3710
18162W        W35010  14.190  13.099  14.250  0.0884 -0.1376 -0.2158
18163W        W35011  12.193   0.852   0.508 -0.1111  0.0293 -0.1316
18164W        W35012   8.302  13.189  13.204  0.1389 -0.1130 -0.1233
18165W        W35013   6.866   2.935  15.112  0.2692  0.2548  0.1122
18166W        W35014   3.544  16.288   1.191 -0.0434 -0.0968  0.1188
18167W        W35015  13.242  11.462  17.122 -0.2141  0.2414  0.1928
18168W        W35016  16.042  12.637   0.454 -0.3722 -0.5601  0.3246
18169W        W35017  13.653  12.353   3.799  0.0119 -0.0501  0.1219
18170W        W35018  10.029  16.682  14.873  0.2346  0.1527 -0.1141
18171W        W35019   3.659  14.206  14.215  0.0443 -0.1259  0.0047
18172W        W35020   2.033   6.189   4.856 -0.1104  0.4916 -0.0276
18173W        W35021  16.269   0.569  12.431 -0.2542 -0.0238  0.0864
18174W        W35022   8.203   8.988  14.279  0.0789  0.0304  0.1870
18175W        W35023   8.686  10.914  17.154 -0.0258 -0.1780  0.0949
18176W        W35024  12.052  15.434  13.637  0.2959  0.1937  0.1058
18177W        W35025   8.023   3.484  15.162  0.0937  0.0882  0.1829
18178W        W35026   2.458   1.918   2.859  0.1102 -0.0298  0.1778
18179W        W35027   7.738  12.212   0.806 -0.2260  0.1135  0.3534
18180W        W35028   1.142   3.188   3.220 -0.1831 -0.2460 -0.0078
18181W        W35029  13.519  10.037   0.541 -0.1024  0.2113  0.2057
18182W        W35030   3.167   1.528   2.763 -0.0394 -0.1851 -0.0319
18183W        W35031  12.072  13.985   0.982 -0.0049 -0.2060 -0.0619
18184W        W35032  15.207  13.658  13.852  0.1685  0.0059 -0.1019
18185W        W35033   0.025   9.401  14.965  0.0135 -0.1078  0.0534
18186W        W35034   6.720   4.528  12.429 -0.1042 -0.0322  0.1566
18187W        W35035   3.297  10.069  14.951  0.2903  0.1788 -0.0718
18188W        W35036   3.958  10.007   0.838  0.1951  0.0971 -0.0637
18189W        W35037  10.818  12.385  12.136 -0.0912 -0.1791 -0.0190
18190W        W35038  10.082  12.040   1.721 -0.0032 -0.1197 -0.0420
18191W        W35039   3.643   7.522  15.685  0.2913 -0.2340 -0.0821
18192W        W35040   0.089   8.677  12.260 -0.2269 -0.1488 -0.3326
18193W        W35041   5.568   9.790   5.521  0.2132  0.1325 -0.4122
18194W        W35042  11.615   3.054   4.063 -0.0919 -0.1102 -0.1167
18195W        W35043   4.626   7.209  17.735 -0.4264 -0.0367 -0.0736
18196W        W35044   5.710  13.375   1.557 -0.1768 -0.2132 -0.2572
18197W        W35045   9.151   1.716   4.323 -0.1396 -0.2485 -0.3535
18198W        W35046  12.134   6.833  17.631  0.0897 -0.2455 -0.1367
18199W        W35047  12.954   7.759  13.134  0.0770  0.0795  0.1395
18200W        W35048  11.988   9.538   0.012 -0.1128 -0.0473  0.3321
18201W        W35049  10.885  11.797  15.142 -0.0169 -0.0400 -0.3472
18202W        W35050   7.799   1.140  12.557 -0.1938  0.0470 -0.0072
18203W        W35051  11.246  10.312  14.532  0.0578  0.1080 -0.2125
18204W        W35052   8.240  13.210  14.377  0.1792 -0.1239 -0.0425
18205W        W35053   4.348   4.676  12.205 -0.1527 -0.4049 -0.0762
18206W        W35054  17.021  11.504  14.473 -0.0789 -0.0450 -0.1357
18207W        W35055   9.774   5.827  16.523  0.0640  0.1393  0.0099
18208W        W35056   6.781  12.947   5.967  0.1614  0.4122  0.0606
18209W        W35057  12.813   6.252  15.119 -0.1389 -0.2330  0.1278
18210W        W35058   2.721   2.105   4.010 -0.3210 -0.2285  0.0784
18211W        W35059   5.507   7.857  15.303 -0.0986  0.0830 -0.1005
18212W        W35060   1.506   9.924   0.337 -0.1893  0.0076 -0.0245
18213W        W35061  15.261   3.394  12.596 -0.3969  0.0612 -0.1959
18214W        W35062  13.571  14.314   4.546 -0.3100  0.0540 -0.1733
18215W        W35063   6.680   2.991   0.901  0.0907  0.1813  0.0660
18216W        W35064  11.706  11.146   4.411  0.0334 -0.0901  0.0549
18217W        W35065   6.982   9.497   5.328 -0.3335  0.1706 -0.1164
18218W        W35066   7.780  10.658   2.247  0.0419  0.0488  0.1680
18219W        W35067   8.802  12.943  14.860  0.0785 -0.1806  0.0531
18220W        W35068   6.201   3.151   5.064  0.0731 -0.0949  0.2626
18221W        W35069  12.338   7.402   1.167  0.0248  0.1689  0.2853
18222W        W35070  16.992  13.078  14.441  0.1898  0.0007  0.5291
18223W        W35071  15.829  15.251   4.791  0.1276 -0.2343 -0.2043
18224W        W35072   1.314   2.139   0.811 -0.2442 -0.3491 -0.0371
18225W        W35073  13.270   8.115  17.842 -0.2001  0.0749 -0.1414
18226W        W35074   8.788  14.398  12.582  0.0067 -0.1061 -0.4057
18227W        W35075   6.482  13.304   2.805 -0.2300  0.4843 -0.0434
18228W        W35076   5.011   7.354  15.402 -0.1359 -0.0202 -0.0654
18229W        W35077  11.619   0.691  12.574  0.1937 -0.0579 -0.0290
18230W        W35078   2.198  16.263  13.131 -0.1192 -0.3486 -0.2262
18231W        W35079   4.666  14.469   2.686  0.2637  0.0497  0.1316
18232W        W35080   5.679   1.819  13.942 -0.2588  0.0639 -0.0923
18233W        W35081  16.740   4.596  16.179 -0.1532 -0.0591  0.1229
18234W        W35082   0.879  10.590  13.365 -0.1556  0.0153  0.0436
18235W        W35083  11.251   1.036   2.952 -0.1025  0.1470  0.1188
18236W        W35084   8.199   9.210   5.551 -0.0654 -0.0246 -0.3140
18237W        W35085   1.788  16.926  17.427  0.1491  0.0264  0.1050
18238W        W35086   0.367  13.788  13.730  0.0151  0.3614 -0.0708
18239W        W35087  15.018  15.748   5.979 -0.0009  0.2800  0.0230
18240W        W35088  16.843  15.314   0.310 -0.0223 -0.2202 -0.1517
18241W        W35089  16.232   5.863  13.623 -0.1225 -0.2280 -0.1353
18242W        W35090   0.632   4.880   0.065 -0.0043 -0.2037  0.2320
18243W        W35091   6.320  10.307   4.810  0.0568 -0.3117  0.1971
18244W        W35092   3.434  15.201  16.135  0.0651  0.0399 -0.1674
18245W        W35093   4.591   8.902   4.020 -0.0150  0.1278  0.4437
18246W        W35094   5.790  11.386   2.999  0.1817  0.0905 -0.0047
18247W        W35095   9.704   1.068   3.821  0.0465  0.1761 -0.0306
18248W        W35096   8.975  13.459  12.899 -0.1655 -0.3482 -0.0844
18249W        W35097   7.824   6.055  16.555 -0.0464  0.0718  0.1160
18250W        W35098   3.549  10.139  16.417 -0.3315  0.1496  0.0715
18251W        W35099   8.893   2.997   1.295  0.0663  0.0117  0.1744
18252W        W35100  12.138  13.057  14.856  0.2602  0.1814 -0.0780
18253W        W35101  13.985  16.932   1.042  0.1219 -0.0518 -0.1877
18254W        W35102   5.097   5.338  15.609  0.3532  0.1491 -0.1546
18255W        W35103   0.080  15.371  15.765 -0.3436  0.1421 -0.2013
18256W        W35104   0.192  16.825   4.347  0.1260 -0.1044 -0.2747
18257W        W35105  14.257   3.199   1.332  0.0295 -0.0309  0.0150
18258W        W35106   9.093   6.852  11.996 -0.0344  0.0936  0.1911
18259W        W35107   1.605   3.643   4.845 -0.0481 -0.0191  0.2468
18260W        W35108  11.571   7.911   4.101 -0.1047  0.0142  0.2295
18261W        W35109   3.665  13.970   4.814 -0.2896  0.0659  0.1883
18262W        W35110  13.181  10.905  12.480 -0.1413  0.2295 -0.0838
18263W        W35111   9.295   1.104  17.750 -0.2254 -0.0013  0.1102
18264W        W35112  13.747   9.503  17.083 -0.1633 -0.1864  0.2087
18265W        W35113   7.186  14.298   2.075 -0.1089  0.0357  0.1526
18266W        W35114   1.701   2.450  12.249  0.3220  0.2049 -0.3231
18267W        W35115   9.064  13.350  16.910  0.0709 -0.0947 -0.1375
18268W        W35116   0.570  16.288   4.837  0.0464 -0.0496  0.1544
18269W        W35117   2.035   4.957  13.829 -0.1561  0.0463 -0.0880
18270W        W35118   9.189  16.303   2.592  0.0422 -0.0406  0.0466
18271W        W35119  10.990   7.295   1.048  0.2013  0.1685  0.1331
18272W        W35120   4.594  15.735  13.457  0.0139 -0.2583  0.0044
18273W        W35121  13.913  14.321  15.022  0.2935 -0.3498  0.0292
18274W        W35122  13.291   5.674   2.502 -0.1300 -0.0391 -0.2994
18275W        W35123   9.220  15.351   5.105 -0.1612  0.1009  0.2922
18276W        W35124  17.006   1.413  15.972  0.0437  0.2353 -0.0745
18277W        W35125  13.709   7.715  14.798 -0.2793  0.0910  0.0127
18278W        W35126   1.757   2.089   2.226 -0.1448  0.0766  0.0558
18279W        W35127   7.981   5.592   2.165 -0.2631  0.1157  0.0735
18280W        W35128  16.559   5.162   4.479  0.0759  0.1058  0.1851
18281W        W35129  13.378   7.172   1.116  0.1733 -0.1195  0.2643
18282W        W35130  13.905   0.769  14.174  0.0840 -0.1864 -0.2272
18283W        W35131   6.783  12.435  11.749 -0.3298  0.6175  0.0117
18284W        W35132   8.671   2.216  12.265  0.0427 -0.3276 -0.2445
18285W        W35133   4.652   8.188  12.587  0.2946 -0.0429 -0.1145
18286W        W35134   9.793   0.400   1.035  0.1784 -0.2237  0.0033
18287W        W35135   7.655   6.923  12.945  0.1470 -0.1413 -0.0043
18288W        W35136  11.287  16.076  11.384 -0.1075  0.0447  0.3157
18289W        W35137  10.246   1.574  13.577  0.1757  0.1639  0.1040
18290W        W35138   5.733  14.359  15.315  0.0996  0.1355  0.1882
18291W        W35139  14.692   7.569   2.628 -0.2996 -0.2719  0.1058
18292W        W35140   9.399   1.587  16.351  0.0646  0.2444  0.1419
18293W        W35141   3.500   6.573   3.146  0.2312  0.2339 -0.0636
18294W        W35142   9.487   0.359   0.629  0.4432 -0.0010 -0.3465
18295W        W35143   0.376   0.183  13.764 -0.0817 -0.0675 -0.0405
18296W        W35144   6.374  13.078  12.057 -0.0543  0.1109  0.0545
18297W        W35145   4.176   8.608   0.186  0.0886 -0.1430 -0.0225
18298W        W35146  16.171  12.529  13.965 -0.0765 -0.2325 -0.1086
18299W        W35147  14.163   3.702   0.814 -0.1731 -0.0901 -0.1047
18300W        W35148   1.762  16.090   5.491  0.0705 -0.2241 -0.0497
18301W        W35149   2.835  12.033   4.118 -0.1085  0.1363 -0.0868
18302W        W35150   3.756  16.746  17.020 -0.2174 -0.0915  0.0430
18303W        W35151   9.953   8.771  17.696  0.0282  0.1235 -0.1994
18304W        W35152  10.628  16.172   4.587 -0.0643  0.0981  0.0648
18305W        W35153  11.085  12.983  14.510  0.1506  0.0061 -0.1257
18306W        W35154   7.016   4.180  17.762  0.0611 -0.2530 -0.1332
18307W        W35155   4.207   4.717  17.616  0.1225  0.2250  0.2245
18308W        W35156   4.982   6.850  17.676  0.1757 -0.1543  0.4399
18309W        W35157  12.527  12.932  15.154 -0.0642 -0.0129  0.1352
18310W        W35158   1.300   9.984   0.988  0.0882  0.3197 -0.0709
18311W        W35159   7.254  11.123   1.746  0.1146 -0.0627  0.2339
18312W        W35160  14.464  14.953  15.313  0.2259 -0.0141  0.4586
18313W        W35161   4.622  13.984   2.926  0.0839  0.0239 -0.0363
18314W        W35162  14.528   2.943  17.077  0.4355  0.1268  0.1460
18315W        W35163   5.509  16.749  13.059  0.2011  0.1109 -0.0468
18316W        W35164  12.599  15.341  15.644 -0.2168 -0.0928  0.1185
18317W        W35165  13.327   1.015  13.159  0.3301  0.1249  0.0492
18318W        W35166   1.612   1.148   5.609  0.3677 -0.2387  0.1634
18319W        W35167  16.904  11.393  15.253  0.1059  0.0075 -0.0795
18320W        W35168  15.699  14.217   5.177  0.0702 -0.1244 -0.2406
18321W        W35169   3.527  10.122   0.060 -0.0852 -0.2742 -0.1292
18322W        W35170  10.323   7.901  12.897 -0.0804 -0.3786  0.0481
18323W        W35171  16.099   4.393  13.469 -0.3017  0.1038 -0.1299
18324W        W35172  15.475  15.293  15.650  0.2707  0.1683 -0.0531
18325W        W35173   5.366   9.169  17.486 -0.0610  0.0275 -0.2918
18326W        W35174  10.956  15.841  17.653  0.2454  0.0261  0.0630
18327W        W35175  12.070  14.962  17.279  0.0902  0.0447  0.0963
18328W        W35176  10.689   6.855   0.403 -0.0160 -0.3535 -0.0576
18329W        W35177   1.404   4.541  12.967 -0.0636  0.1758 -0.0662
18330W        W35178   4.476  12.052   5.142  0.0760 -0.1362  0.0966
18331W        W35179  10.622  13.084   0.339  0.2393  0.1086 -0.0804
18332W        W35180  11.755   7.073  17.828 -0.1212 -0.1008  0.0721
18333W        W35181  12.741   8.282   4.903 -0.3075 -0.0270  0.2456
18334W        W35182  16.781  12.559  16.161  0.2829  0.0462  0.2089
18335W        W35183   9.742   6.150  14.142 -0.0982  0.2149  0.1280
18336W        W35184   7.160   4.258  12.340 -0.1204  0.2844  0.2711
18337W        W35185  12.854   0.652  16.973  0.0769 -0.0091  0.2253
18338W        W35186  11.041   1.353  15.125 -0.1508 -0.0440  0.0143
18339W        W35187   3.395   5.246  12.682  0.2234  0.0464  0.2616
18340W        W35188   5.575   7.197  12.388 -0.0626 -0.0061 -0.3164
18341W        W35189  11.787   2.120   2.967 -0.1824  0.4981 -0.0660
18342W        W35190   7.734   1.983  13.782  0.2500 -0.1364 -0.1137
18343W        W35191   8.939   6.110   2.946  0.4019 -0.1990  0.0244
18344W        W35192   4.745   6.401  14.566  0.1371 -0.0241 -0.2362
18345W        W35193   0.054   7.707  13.176 -0.0397  0.0887  0.1132
18346W        W35194   7.512   8.121  15.858 -0.0612 -0.2508  0.3348
18347W        W35195   3.999   6.711   5.064  0.3770  0.1733 -0.1256
18348W        W35196   5.099  14.336   5.186 -0.0406 -0.1853  0.0759
18349W        W35197   2.850  10.678  14.389  0.1665  0.2203  0.0726
18350W        W35198  10.861   7.464  16.886  0.0582 -0.0468  0.1229
18351W        W35199   7.185  16.073   4.827  0.0905 -0.0803 -0.1199
18352W        W35200   5.008   1.320   5.487 -0.0517  0.0408  0.0348
18353W        W35201  10.890   0.868   5.034  0.0354 -0.0884  0.0457
18354W        W35202   1.504  11.869   0.504  0.0414 -0.0572  0.0188
18355W        W35203  14.129   6.131  14.266  0.2382 -0.2728 -0.1041
18356W        W35204  12.343   3.044   0.533  0.0411  0.2918 -0.0093
18357W        W35205  12.582   7.070  17.691  0.0072  0.1654 -0.3492
18358W        W35206  11.880   8.780   3.221  0.1050 -0.2647 -0.0563
18359W        W35207   1.262   0.009   3.878 -0.2463 -0.2241  0.1576
18360W        W35208   6.189   6.487  12.126  0.0828 -0.1222  0.0642
18361W        W35209  13.438   9.946  17.246 -0.1107 -0.0236  0.0278
18362W        W35210  13.753  13.171  13.650  0.1538  0.1197  0.0881
18363W        W35211  14.564   7.894  17.224  0.0218  0.1438  0.1204
18364W        W35212  14.046   0.406   0.401  0.0975 -0.0221  0.0267
18365W        W35213   5.006   1.292   1.989  0.0817  0.2330  0.1672
18366W        W35214  12.313   1.222   0.865 -0.3093 -0.1616  0.2334
18367W        W35215   7.935   1.216   5.548 -0.2402  0.1818  0.0493
18368W        W35216  16.222  10.821  15.552 -0.0245  0.0922  0.1599
18369W        W35217   7.101  12.094  13.856 -0.0726 -0.1920 -0.2858
18370W        W35218  16.299   0.784   5.087  0.2176 -0.1067  0.0334
18371W        W35219   2.221   8.395  14.192  0.2193 -0.1102  0.1163
18372W        W35220   2.495  11.093   2.833 -0.0420 -0.0449 -0.0252
18373W        W35221   0.868   5.008  14.321 -0.0267  0.0841 -0.1904
18374W        W35222   8.108   8.748  13.454  0.2261 -0.1752  0.3095
18375W        W35223   2.038  12.345  14.833 -0.0509  0.0567  0.3115
18376W        W35224   3.029   2.270   1.871  0.3756 -0.1747  0.4438
18377W        W35225   6.475  13.802   5.467 -0.1790 -0.1697  0.1918
18378W        W35226   9.095  16.611   0.560 -0.2211 -0.1607 -0.1317
18379W        W35227   1.813   5.462   5.398  0.1626  0.0230  0.1516
18380W        W35228   8.102   8.731   1.152  0.1501 -0.0053  0.2525
18381W        W35229  14.044   4.229  17.744 -0.0948 -0.1871 -0.1991
18382W        W35230   3.140   4.271   2.724 -0.2815 -0.1440 -0.0276
18383W        W35231   8.113  14.062  14.259  0.0516 -0.2396 -0.0593
18384W        W35232  11.488   7.931   5.649 -0.0969 -0.3534 -0.1358
18385W        W35233  11.006  14.095  15.353 -0.0043  0.0842  0.0452
18386W        W35234   0.512   6.812   5.680 -0.2383 -0.1410  0.1440
18387W        W35235  14.264   5.385   2.363  0.2932 -0.1574 -0.0140
18388W        W35236   4.765   3.579  12.527  0.0571 -0.1743  0.0486
18389W        W35237   9.324   6.229   3.275  0.2763  0.1750  0.2601
18390W        W35238  12.458  14.125   2.288 -0.2607 -0.1367  0.2553
18391W        W35239  10.422   0.339   0.259 -0.0327 -0.1455  0.3989
18392W        W35240   9.628  14.841  12.979 -0.0467 -0.0006  0.0989
18393W        W35241   7.053  14.095   3.417 -0.0110 -0.0349  0.0097
18394W        W35242   4.077   1.485  14.086  0.1046 -0.0274  0.2294
18395W        W35243   9.611  13.239   6.442 -0.1795 -0.2086  0.1424
18396W        W35244   3.770  15.382   2.573  0.0712  0.0422  0.0680
18397W        W35245   3.784   1.539   5.062 -0.1639  0.2745  0.1908
18398W        W35246   7.912  14.205   5.995  0.0458  0.1025  0.2096
18399W        W35247   3.664  13.393  12.677  0.0470 -0.2866  0.1032
18400W        W35248   0.081  10.635   3.851  0.1269 -0.0586 -0.0370
18401W        W35249  16.451   1.206  14.245  0.0738  0.1183 -0.2136
18402W        W35250   3.766   0.113  15.920  0.2424 -0.0029  0.0288
18403W        W35251   4.474   8.687   3.539 -0.1598  0.3124  0.1107
18404W        W35252   6.341  12.387  16.577  0.1023  0.0796 -0.3690
18405W        W35253   3.175   8.484   4.336 -0.0028  0.1151  0.3904
18406W        W35254  15.692  14.853  17.644 -0.0747  0.0357  0.0549
18407W        W35255   0.875   3.493  17.559  0.0463  0.0710 -0.2015
18408W        W35256   4.350   8.077  16.741  0.0250 -0.2080 -0.0892
18409W        W35257   9.758   3.197  16.270 -0.1188 -0.4102  0.0610
18410W        W35258   2.658  15.144   0.078  0.0690 -0.0758  0.0258
18411W        W35259   9.578   1.310   2.957 -0.1586  0.3776 -0.1923
18412W        W35260   4.287   7.449  13.694 -0.1486 -0.0357 -0.0153
18413W        W35261  16.418   1.195  13.651 -0.1830  0.0868  0.1800
18414W        W35262  12.139   8.317   4.085  0.0695  0.1418 -0.1697
18415W        W35263   2.399  10.461  16.646 -0.1150 -0.1283 -0.0580
18416W        W35264   9.707  11.358  17.736 -0.1161  0.0949 -0.0786
18417W        W35265   2.142   3.135  13.493  0.3372 -0.0726  0.0202
18418W        W35266   1.557   0.369  15.669  0.0477 -0.0172  0.1667
18419W        W35267   5.626  14.637  14.837  0.0881 -0.0263  0.0302
18420W        W35268   0.505   6.282   2.483 -0.2964  0.1111 -0.0535
18421W        W35269   9.243   5.490   4.295  0.0948 -0.3082 -0.0267
18422W        W35270   7.349  12.547   2.191 -0.0806  0.0468  0.1296
18423W        W35271   3.598   6.076   3.301 -0.1272  0.1289 -0.3203
18424W        W35272  12.059   6.072   3.038 -0.1882  0.3087 -0.0435
18425W        W35273  15.959   8.045   3.021  0.2629 -0.1213 -0.2191
18426W        W35274   1.145   9.410  11.753  0.0369 -0.0082 -0.1485
18427W        W35275   1.353  14.668  12.072 -0.2209 -0.0486 -0.0261
18428W        W35276  11.735   0.330  14.914  0.2422  0.0823  0.2613
18429W        W35277  11.398  12.222   4.103  0.0703 -0.1666  0.1467
18430W        W35278   1.940   0.466  16.437 -0.1342 -0.0484  0.0460
18431W        W35279   8.754   1.982  15.852  0.0985  0.3509  0.0517
18432W        W35280  14.387  17.039   2.036  0.0923  0.3423 -0.2317
18433W        W35281   4.867   8.424  14.556  0.0783  0.1126 -0.0718
18434W        W35282   0.125  11.409   5.581  0.1278 -0.3022  0.2744
18435W        W35283   1.353  12.557  14.823 -0.3382  0.0255  0.1375
18436W        W35284  15.338  10.376   1.869  0.4209 -0.0464  0.1746
18437W        W35285  13.189   9.436  14.923 -0.0101 -0.1776  0.0814
18438W        W35286   3.813   5.892  15.712 -0.0139  0.0212  0.0136
18439W        W35287   1.336  16.674  17.196 -0.0135 -0.0885 -0.3277
18440W        W35288  13.061   2.412  13.163  0.0224 -0.0672  0.4498
18441W        W35289   4.434  14.366   3.680 -0.0920 -0.0351 -0.1878
18442W        W35290   9.621   7.666   4.218  0.1301 -0.1953 -0.2945
18443W        W35291   9.320   7.024  16.148 -0.0740 -0.0306  0.0495
18444W        W35292   1.921   7.022   1.589  0.0498 -0.0041 -0.1108
18445W        W35293  16.326   8.341   0.913 -0.1157 -0.0004 -0.1264
18446W        W35294   1.042  16.450  13.616 -0.3434  0.1824 -0.1920
18447W        W35295   2.354   8.924  17.754  0.1947 -0.0360  0.0215
18448W        W35296   9.639  12.085  13.423 -0.0589 -0.3667 -0.1280
18449W        W35297   7.057   0.827   0.852 -0.1359  0.1383  0.3883
18450W        W35298   5.118   4.936   6.198 -0.0253 -0.2201  0.1511
18451W        W35299   8.545   2.300   2.637  0.2625  0.0617 -0.0540
18452W        W35300   9.401  12.269   5.361  0.3499  0.0047  0.1032
18453W        W35301   4.939  13.256   1.990 -0.1400 -0.1802  0.0036
18454W        W35302   7.448  13.362   0.026  0.2399  0.1750  0.0813
18455W        W35303   6.790   1.203   5.764  0.1569  0.0258 -0.1602
18456W        W35304   9.737  15.182   4.205 -0.0946 -0.0380  0.0923
18457W        W35305   0.764  15.168  13.886  0.3588 -0.1382  0.2908
18458W        W35306   2.286  10.114  13.929 -0.0960 -0.1638 -0.1483
18459W        W35307   5.823   7.044   4.554 -0.3848  0.1369 -0.0722
18460W        W35308   8.859   7.154   2.232 -0.0436 -0.0065 -0.0481
18461W        W35309  14.685   1.198   4.660 -0.3123 -0.1857  0.2358
18462W        W35310   9.471  13.456   0.490 -0.1777  0.3245 -0.0091
18463W        W35311   9.627   8.218   4.348  0.3147 -0.3013 -0.1268
18464W        W35312   1.338   9.274  13.260  0.0224  0.2149 -0.0642
18465W        W35313   4.139  10.865   2.738 -0.1937  0.1178 -0.3398
18466W        W35314   3.348   6.158   1.200  0.0147 -0.0740  0.0026
18467W        W35315  12.752   0.922  16.207 -0.2959  0.0259 -0.1833
18468W        W35316   3.305   4.280   1.540  0.2093  0.1971 -0.0973
18469W        W35317  14.490  10.652   2.974 -0.0128 -0.1118 -0.3027
18470W        W35318   9.942   2.189  17.246 -0.0419  0.1359 -0.1903
18471W        W35319  14.601   5.561  11.927 -0.3041 -0.2393  0.1483
18472W        W35320  12.755  10.070   4.600  0.0822 -0.2895 -0.0435
18473W        W35321   5.377   7.536  16.458  0.2090  0.2073  0.0624
18474W        W35322   3.604   9.080  12.026  0.0655  0.0380  0.2287
18475W        W35323  14.412   6.801  15.529  0.0868  0.0367  0.2087
18476W        W35324  14.919  10.303   0.393 -0.1493 -0.0902  0.1903
18477W        W35325   4.561   2.460  17.340  0.0141 -0.0208 -0.0018
18478W        W35326  10.471  12.700   2.434 -0.2427  0.3640  0.1046
18479W        W35327   8.270   7.096   2.924 -0.2224  0.1603  0.2031
18480W        W35328   1.835  10.664  13.159 -0.0821  0.1982  0.0350
18481W        W35329   7.030   5.653   1.231  0.1235 -0.0671  0.1817
18482W        W35330   2.856  13.578  17.720 -0.2118  0.0260  0.2098
18483W        W35331   4.935   4.226  14.010 -0.0414  0.1714 -0.0337
18484W        W35332  17.011   9.810   1.058  0.1760  0.2301  0.0237
18485W        W35333   0.583   1.562   0.398 -0.1826 -0.0511 -0.1859
18486W        W35334  13.237   5.301  12.350  0.2661 -0.1689 -0.1146
18487W        W35335   0.605   5.813   4.049  0.0070  0.0395 -0.2016
18488W        W35336   0.165  15.050  17.714  0.3297 -0.1899  0.3786
18489W        W35337  12.740  16.783  14.523 -0.1182 -0.2136 -0.0097
18490W        W35338   5.019  12.196   2.860 -0.0772 -0.0692  0.0975
18491W        W35339   4.015   4.301   3.302 -0.0065 -0.4922 -0.1490
18492W        W35340   5.987  12.446   1.955 -0.1216  0.0279 -0.0569
18493W        W35341   1.972  10.916  12.065  0.2972 -0.0499  0.3007
18494W        W35342   8.233  12.621   5.888 -0.0512 -0.0828 -0.0986
18495W        W35343  14.660   6.455  13.303 -0.2080 -0.1514 -0.1794
18496W        W35344   0.897  11.642  16.604  0.0246  0.1998 -0.2827
18497W        W35345  12.849   0.537  10.834  0.0444 -0.1580 -0.3508
18498W        W35346   8.506  14.943  13.415 -0.1920 -0.1975 -0.0418
18499W        W35347   9.673   4.307  12.466 -0.0201  0.1558 -0.1286
18500W        W35348   3.997  14.958  17.015 -0.1676  0.0048  0.1334
18501W        W35349   4.472   1.419  12.820  0.1286  0.2582  0.2644
18502W        W35350  11.458   0.463  15.796  0.1834  0.0364 -0.3060
18503W        W35351   0.083  14.528  17.472 -0.3087  0.2576  0.2069
18504W        W35352  10.976  12.175  17.382  0.0687  0.0997  0.0270
18505W        W35353   5.631  16.472  16.698 -0.4243 -0.1494  0.0503
18506W        W35354   3.757   3.513   1.840 -0.0538 -0.0236  0.1010
18507W        W35355  15.849   3.474  16.588  0.1559  0.0885 -0.0168
18508W        W35356   0.080  16.691  17.171  0.1715 -0.0152 -0.0870
18509W        W35357  12.224  13.987   5.280 -0.0885 -0.0901 -0.0289
18510W        W35358   7.337   5.690   5.313  0.2755 -0.0451  0.0470
18511W        W35359   3.848  12.072   2.191  0.0652 -0.0437  0.1370
18512W        W35360  14.848  14.541  15.198  0.1201 -0.0365 -0.0240
18513W        W35361  12.103  16.731   5.541  0.0584 -0.2893  0.2248
18514W        W35362   3.872   7.122  15.921 -0.0730  0.1412 -0.1121
18515W        W35363   6.290   6.689  15.249 -0.1734  0.1771 -0.0628
18516W        W35364  15.069  15.032   1.078  0.1371  0.1388 -0.1234
18517W        W35365  16.675   7.405  13.246  0.0048  0.1673 -0.0570
18518W        W35366   3.681   5.879  15.177  0.0794  0.1878  0.1023
18519W        W35367   7.675   0.127  17.292 -0.1191 -0.0960  0.0967
18520W        W35368   9.346  16.682   3.645  0.0846  0.1803 -0.0693
18521W        W35369  14.713   3.090   2.584 -0.0432  0.0609 -0.0652
18522W        W35370   2.437  14.982   2.583 -0.0181 -0.0717 -0.1906
18523W        W35371   5.538   9.586  13.081  0.3550 -0.1989 -0.1826
18524W        W35372  15.888  11.787   1.839  0.0158  0.1326  0.0155
18525W        W35373   7.186   4.435   0.309 -0.2873 -0.0841 -0.0354
18526W        W35374  10.964   8.828  16.643  0.2514  0.0342  0.0390
18527W        W35375  15.890   6.629   0.445 -0.0644 -0.0234  0.1115
18528W        W35376  12.095   6.333  13.430  0.2992  0.0364 -0.3786
18529W        W35377   6.292   2.916   4.307 -0.0707 -0.3872 -0.0178
18530W        W35378  15.294   7.346   4.778 -0.2714  0.0501  0.0435
18531W        W35379   0.296   7.672  17.424 -0.0313 -0.0480 -0.0169
18532W        W35380   8.161   0.681   1.703 -0.2304  0.2644  0.0220
18533W        W35381  13.664   1.516  14.409 -0.1275  0.0039 -0.0469
18534W        W35382  11.588   2.172  16.683 -0.2535 -0.0032  0.0580
18535W        W35383   6.567   8.744  14.671  0.0991  0.0982  0.0741
18536W        W35384   2.091   5.152  13.364  0.0430  0.0101 -0.1992
18537W        W35385  10.269   6.855   4.583 -0.0591 -0.2532  0.0893
18538W        W35386  11.471   4.282  14.774 -0.2350  0.0159  0.0012
18539W        W35387   1.900   5.393   3.108  0.0257  0.1669  0.0061
18540W        W35388   9.539   0.188   2.745  0.0000  0.3201  0.1104
18541W        W35389  15.314   8.951   6.141 -0.1068 -0.1873  0.0018
18542W        W35390   1.629  16.713  12.523  0.1452  0.3918 -0.2015
18543W        W35391  13.497   2.761   1.477 -0.1424  0.3677 -0.1250
18544W        W35392   1.998  12.932  14.363  0.0735  0.1386 -0.0408
18545W        W35393  15.812   2.709   1.348 -0.0665 -0.1287 -0.0983
18546W        W35394  16.005  13.256  10.975 -0.1075 -0.1711  0.3815
18547W        W35395   4.642  14.784   1.588 -0.4594  0.0533 -0.0055
18548W        W35396   8.438   9.936   5.167  0.3268  0.0899 -0.2018
18549W        W35397   1.942   7.392   0.721  0.1575  0.1328 -0.2031
18550W        W35398  14.892   2.388  17.798  0.0970  0.2318  0.0288
18551W        W35399  11.176   4.427  12.070 -0.0373  0.0488 -0.0917
18552W        W35400   4.303   7.981   4.326 -0.1906  0.0364  0.1028
18553W        W35401   2.657   0.672   4.319 -0.0427  0.3077 -0.2276
18554W        W35402  14.005  16.153  15.879 -0.0478 -0.0626 -0.2403
18555W        W35403   2.260  10.298   3.984  0.2280  0.3334 -0.2764
18556W        W35404   3.207  10.409  16.152 -0.1680 -0.0474 -0.3302
18557W        W35405   9.326   6.353   5.571  0.2124 -0.3785  0.1003
18558W        W35406  10.789  10.749  14.773 -0.0429 -0.1326 -0.0150
18559W        W35407  13.040   3.056  15.794  0.0035  0.0755  0.1030
18560W        W35408  14.556   3.515   5.103 -0.0350 -0.2064 -0.2823
18561W        W35409   7.984   7.425   2.144 -0.1090  0.0381 -0.0823
18562W        W35410  12.442   4.417   0.934 -0.1320  0.1851  0.2430
18563W        W35411  16.878   7.045  13.706  0.1382 -0.0485 -0.1208
18564W        W35412  12.997   2.087   1.585 -0.2157  0.3378 -0.1257
18565W        W35413  10.725   3.536   4.061 -0.1327  0.0121  0.3751
18566W        W35414  10.827   4.692   4.481 -0.0921 -0.0926  0.0086
18567W        W35415   7.965   4.709  15.262 -0.3887 -0.0821 -0.2553
18568W        W35416   4.106  14.042  12.901  0.1189 -0.0987 -0.0031
18569W        W35417  12.176   6.614   1.789 -0.1190 -0.0472 -0.0625
18570W        W35418   0.877   1.387   0.015 -0.1183 -0.0092 -0.0929
18571W        W35419  15.759   6.848  13.146  0.1257 -0.2470  0.1046
18572W        W35420  16.472   2.744   4.240 -0.1726  0.2603  0.3300
18573W        W35421  13.320   6.263   4.329 -0.0532 -0.2933  0.3571
18574W        W35422   7.412   6.313   1.912  0.1028 -0.0663  0.2208
18575W        W35423  12.336   3.112  16.391 -0.0386  0.1632 -0.2237
18576W        W35424   1.863   6.319  15.685 -0.0543 -0.0952  0.1455
18577W        W35425  12.131   9.049   5.138  0.0615  0.3384  0.1710
18578W        W35426   3.422  16.300   2.608  0.1317 -0.2375  0.0081
18579W        W35427  13.618  16.866  14.364  0.1550 -0.4044 -0.1142
18580W        W35428  13.237   7.980   0.502 -0.0602 -0.1996 -0.0605
18581W        W35429  13.694   5.715   1.561 -0.1485  0.0075 -0.0019
18582W        W35430   8.249   1.840  14.483 -0.1785 -0.0923  0.1271
18583W        W35431  14.663   2.955   3.812 -0.0746 -0.2890  0.3720
18584W        W35432   5.916  15.510   5.200  0.1738  0.0964  0.0004
18585W        W35433   4.529   2.776  15.307  0.2320  0.2539 -0.3336
18586W        W35434  16.576  15.122  17.800  0.3337  0.0524 -0.1970
18587W        W35435  14.792  12.088  17.699 -0.4117  0.1435 -0.1253
18588W        W35436   7.812   0.559  16.316  0.0437  0.3335  0.2538
18589W        W35437   7.425   8.175   0.610 -0.2145  0.1215  0.1472
18590W        W35438  16.124  13.525   2.482  0.0448 -0.3066 -0.2645
18591W        W35439   4.318  10.699  16.246  0.1596 -0.1989  0.0405
18592W        W35440   4.211   7.173   5.356 -0.0523  0.1446  0.0078
18593W        W35441   5.688   5.164  15.583  0.2627  0.3226 -0.2840
18594W        W35442  10.558   1.739  14.760 -0.0751  0.0592  0.1087
18595W        W35443  11.565   8.218   4.567 -0.0063 -0.1984  0.2012
18596W        W35444   4.234  14.492  16.923 -0.3917 -0.2728 -0.0424
18597W        W35445   4.611  12.774   0.264 -0.3410  0.2162 -0.1340
18598W        W35446   9.927  12.649  12.047  0.0773  0.0760 -0.1756
18599W        W35447   8.791   6.662   0.620 -0.0008 -0.0990  0.0459
18600W        W35448   3.774   9.618   2.572 -0.0459  0.0539  0.3279
18601W        W35449   9.656   9.204  16.142 -0.2764 -0.0564 -0.0121
18602W        W35450   3.914   2.208  17.769  0.0155 -0.2743 -0.0464
18603W        W35451  16.066   6.401  13.031  0.0659 -0.0848  0.0191
18604W        W35452  15.200  13.252   2.386  0.1049  0.0162  0.1348
18605W        W35453  11.342   7.937  17.746 -0.3976 -0.2131  0.1824
18606W        W35454  10.268   2.800   0.869 -0.3814  0.0081 -0.3150
18607W        W35455  13.658  13.744   1.370  0.0339  0.1638  0.0547
18608W        W35456   8.216  12.961   2.318 -0.0169  0.1725  0.2248
18609W        W35457  11.199  13.109   1.894  0.0329  0.0637  0.0251
18610W        W35458  14.244   6.631   4.477 -0.1343 -0.0970 -0.1474
18611W        W35459  13.135   9.734   1.788 -0.2363 -0.2914  0.1088
18612W        W35460  15.869  14.228  17.010 -0.2446  0.1211  0.2087
18613W        W35461   5.392   7.200   5.288  0.0068 -0.2727  0.0834
18614W        W35462  14.019  11.239  16.597 -0.1771  0.0976  0.0262
18615W        W35463   2.696   2.562  13.116  0.1512 -0.0999  0.0169
18616W        W35464   6.794   2.103  15.577  0.2524  0.0591 -0.2024
18617W        W35465   9.971   9.322  13.924  0.1153  0.0434  0.5015
18618W        W35466   4.557   2.158   3.186  0.3418  0.0759 -0.0184
18619W        W35467   3.226   6.765  12.077 -0.1661 -0.3055  0.1939
18620W        W35468  16.550   2.955   0.842  0.0831  0.1098 -0.2429
18621W        W35469   5.866  16.267  17.809 -0.0132 -0.0182  0.3652
18622W        W35470  14.110   8.232  17.778  0.1326  0.2069  0.4168
18623W        W35471  16.501   6.257  13.313  0.1329 -0.0188  0.2246
18624W        W35472  11.798   4.740   0.184 -0.1978  0.0217 -0.1193
18625W        W35473   8.341  14.065   5.684 -0.0468  0.0224 -0.0015
18626W        W35474  15.163   0.370  14.188 -0.0230  0.1679  0.0785
18627W        W35475   6.947  10.306   1.264  0.1508 -0.3574  0.1564
18628W        W35476   6.754   7.550   1.781  0.0432 -0.0579  0.1911
18629W        W35477   0.114  10.175  17.590 -0.2265  0.1005 -0.1655
18630W        W35478   8.772   5.532  12.403  0.0086  0.2289 -0.0100
18631W        W35479  15.950   0.357  15.832 -0.1027  0.3191 -0.0360
18632W        W35480   8.937  13.185   3.662  0.0183 -0.4793  0.0769
18633W        W35481   2.637  12.838   5.306 -0.1223  0.0683 -0.0845
18634W        W35482  13.092   5.733   4.450 -0.0414 -0.0608 -0.1448
18635W        W35483   6.745   1.959  16.413 -0.1190  0.0970  0.2072
18636W        W35484   6.233   1.144  13.623 -0.2898 -0.1375  0.1031
18637W        W35485   1.506  14.369   6.695  0.0034 -0.0553  0.1224
18638W        W35486   6.564   9.723  17.205  0.0611  0.1193 -0.3452
18639W        W35487  12.934  13.908   4.099  0.0074 -0.1284 -0.0292
18640W        W35488   1.374  13.459  15.618 -0.1684  0.0428  0.0986
18641W        W35489   7.989  11.553  15.237 -0.0360  0.0697 -0.4759
18642W        W35490  14.366  13.104  15.327 -0.0370  0.0894 -0.1792
18643W        W35491  11.421   5.681  13.943 -0.2563 -0.1021 -0.0040
18644W        W35492   6.644  14.761  16.928 -0.1944 -0.0120  0.0013
18645W        W35493   1.851   8.508   1.287  0.0751 -0.0816 -0.0134
18646W        W35494   0.264   9.890   5.760 -0.0133  0.3115 -0.0873
18647W        W35495   6.091   9.795  17.092 -0.0258  0.1376 -0.1577
18648W        W35496   0.950  15.730   3.647 -0.2691  0.2014 -0.0119
18649W        W35497   0.512   5.786  17.718 -0.0225  0.0912 -0.3546
18650W        W35498   6.599   9.953   4.441  0.0728  0.2225 -0.1607
18651W        W35499   7.187   2.275  13.236 -0.0657 -0.2045  0.1919
18652W        W35500   0.890  12.775   3.044  0.0574 -0.1325  0.0440
18653W        W35501  13.772  13.681  16.353 -0.0895  0.3110 -0.0010
18654W        W35502   4.552   5.433   5.789 -0.1824  0.0859  0.1669
18655W        W35503  15.203  10.711  16.940 -0.2641  0.0639 -0.0690
18656W        W35504  11.327   1.404   0.248  0.0264  0.1521 -0.1676
18657W        W35505  14.745  16.024  12.398  0.0521  0.1419 -0.3087
18658W        W35506  15.655   9.839   3.207 -0.0846  0.0099  0.1771
18659W        W35507   9.380  15.554  12.480 -0.1499 -0.2048 -0.2136
18660W        W35508   4.980  15.823  11.894 -0.1688 -0.0849  0.1714
18661W        W35509   5.421  14.673   2.834 -0.0867 -0.2091  0.0862
18662W        W35510   8.105   4.631   5.615 -0.1242  0.1105 -0.0390
18663W        W35511  10.823   4.491  14.167  0.1542  0.1953  0.1882
18664W        W35512  11.971  12.878   4.590  0.0200 -0.0560 -0.0585
18665W        W35513   0.802   7.163   2.863 -0.1463 -0.0151  0.2680
18666W        W35514   7.920   7.698  16.508  0.3576  0.2267 -0.0226
18667W        W35515   7.605   9.040   4.286 -0.1614  0.1986  0.2062
18668W        W35516   8.953   7.872   4.596 -0.1908 -0.3127 -0.0645
18669W        W35517   7.986   6.072  14.176 -0.3194 -0.0468  0.0559
18670W        W35518   6.036   0.347   2.186  0.1970 -0.0405 -0.1357
18671W        W35519   2.968  10.916  13.106  0.0940  0.0783 -0.1994
18672W        W35520   5.766  15.068  11.368  0.1668 -0.0795  0.5414
18673W        W35521   7.050   7.528   3.937  0.1309  0.2148 -0.1544
18674W        W35522   7.282  14.165   1.565  0.1101 -0.1400 -0.0263
18675W        W35523   9.746   2.485   6.684  0.1352 -0.3747 -0.1593
18676W        W35524  11.563  16.128   2.009 -0.0767  0.1214 -0.0989
18677W        W35525   3.490   2.912   4.375  0.1462 -0.1446 -0.0563
18678W        W35526  14.377  15.258   0.972 -0.2422  0.0240  0.1909
18679W        W35527   5.737   6.021   4.474  0.1248 -0.2415 -0.3305
18680W        W35528  12.803  12.636  15.695  0.3491 -0.0667 -0.0604
18681W        W35529   5.414   8.393   0.122  0.0159 -0.2611 -0.2147
18682W        W35530  14.533   7.936  15.611  0.6230  0.0034  0.1467
18683W        W35531   2.509   2.155  13.361  0.0039 -0.0129  0.0968
18684W        W35532   5.877  12.870  16.122  0.1035 -0.0782 -0.1155
18685W        W35533   1.456   3.312   0.955  0.0365 -0.0997 -0.2150
18686W        W35534   1.318   8.703  13.936 -0.1231 -0.0681  0.0286
18687W        W35535  11.396  10.769  12.565 -0.2805  0.1317  0.1220
18688W        W35536  13.536   5.102  14.917 -0.1417 -0.0215  0.3008
18689W        W35537   2.002   2.029  13.208 -0.1945  0.3397 -0.3570
18690W        W35538   8.831  16.230   2.266 -0.2461 -0.0164 -0.0396
18691W        W35539   1.726  16.429   5.044 -0.1085 -0.1755 -0.1791
18692W        W35540   2.954  14.738   5.398  0.0672 -0.1741  0.0779
18693W        W35541   8.893   4.945   5.004  0.1381  0.1842 -0.0778
18694W        W35542   3.368  13.709  15.300 -0.0667  0.1125 -0.2325
18695W        W35543  15.867  14.986   0.536  0.0422  0.2805  0.1935
18696W        W35544  16.169  11.055  13.383  0.0883  0.0778 -0.1399
18697W        W35545   6.968  11.019   0.787  0.1482 -0.0978 -0.2098
18698W        W35546   6.205  13.549   5.831 -0.0872  0.1240 -0.2868
18699W        W35547   4.016   2.197  15.988 -0.0981 -0.0509  0.0998
18700W        W35548   5.192  16.321  13.166 -0.2083  0.1116 -0.0526
18701W        W35549  16.096  10.302   1.747  0.0256  0.1493  0.0346
18702W        W35550   4.596   2.832  12.950  0.0066  0.0766  0.1645
18703W        W35551   6.795  10.631   2.752 -0.1515 -0.3379  0.0437
18704W        W35552   4.380  11.675  15.947 -0.1620  0.0254  0.1981
18705W        W35553  10.834   7.741  16.446 -0.1615 -0.0215 -0.3244
18706W        W35554  16.728   2.390   3.773  0.1608  0.2387  0.0829
18707W        W35555  14.571   0.417   4.045  0.1397 -0.1774 -0.1548
18708W        W35556   7.429   1.344   1.408  0.1557 -0.0986 -0.1707
18709W        W35557   9.713  10.542   0.765 -0.3097  0.2648  0.0681
18710W        W35558   1.308   9.008  17.351 -0.1687 -0.1875 -0.0680
18711W        W35559  15.933   8.969   2.428 -0.0591  0.0984 -0.1174
18712W        W35560   1.199  11.667  13.576  0.0591  0.1109  0.0185
18713W        W35561   9.009  12.390  15.554  0.2131  0.1834 -0.1274
18714W        W35562   3.239  12.030  16.493 -0.2379  0.2109 -0.1006
18715W        W35563   0.077   0.205   0.462  0.2098  0.0572 -0.1195
18716W        W35564   4.776   0.218   4.316  0.0383 -0.2334  0.1983
18717W        W35565   9.287   7.422   5.363  0.2250 -0.1876 -0.0679
18718W        W35566  16.549   4.655   2.381  0.1972  0.0720 -0.0687
18719W        W35567  16.812   6.603   2.314  0.0497 -0.1429 -0.4577
18720W        W35568   4.729   6.574   2.094  0.0524 -0.0786  0.0492
18721W        W35569   7.417  12.573  11.151  0.1824  0.1958  0.2187
18722W        W35570  11.699  13.795   4.591 -0.3714  0.0487 -0.0691
18723W        W35571   2.487  15.682  15.425  0.1553  0.0611 -0.1333
18724W        W35572  13.452  16.864  13.486  0.1100  0.0893 -0.0848
18725W        W35573  12.142   6.706  13.140  0.0515 -0.0185 -0.0567
18726W        W35574   9.761  12.314  12.350 -0.1627  0.3073  0.4169
18727W        W35575  15.648  10.056  14.841  0.0644 -0.1175  0.0854
18728W        W35576   6.551  13.441   5.113 -0.1431 -0.2113  0.0252
18729W        W35577  16.963  15.792  16.547  0.1236 -0.1103  0.0313
18730W        W35578  11.976   3.461   0.633 -0.1008 -0.0587  0.1255
18731W        W35579   6.566  16.865  13.320  0.0652  0.0831 -0.0306
18732W        W35580  13.493  16.021  16.663  0.0752 -0.0613 -0.4000
18733W        W35581   0.282  10.410  13.727  0.0323  0.0226 -0.0677
18734W        W35582   2.232  16.884   5.378  0.0698 -0.0636 -0.2788
18735W        W35583   6.498   1.885   2.261 -0.0988  0.0857 -0.2025
18736W        W35584  10.715   8.559  16.279 -0.1061 -0.2309 -0.3444
18737W        W35585  14.594   3.395   1.612 -0.0898 -0.0492 -0.1403
18738W        W35586   1.062   4.458   2.437 -0.0135 -0.0845 -0.0446
18739W        W35587   5.240  16.700  15.039 -0.0220 -0.0149 -0.0439
18740W        W35588   7.785   8.186  17.501 -0.2406  0.1473 -0.0013
18741W        W35589   7.484  15.370  14.299 -0.1200 -0.0619  0.1728
18742W        W35590   0.149   3.659  14.202  0.0350  0.0464  0.2055
18743W        W35591   7.118   6.117   0.042 -0.0870 -0.2657 -0.0521
18744W        W35592  14.167   1.591   0.799  0.0374 -0.3187 -0.0326
18745W        W35593   2.846   9.113   3.960  0.3208 -0.1132  0.1302
18746W        W35594   3.366   9.665  14.492  0.0977 -0.0821 -0.0822
18747W        W35595   6.026   4.991   5.306  0.0143 -0.1233  0.1506
18748W        W35596  16.419   7.050   5.603 -0.0207  0.0040 -0.0434
18749W        W35597   5.758   2.887   2.043  0.2478  0.2711  0.0859
18750W        W35598   2.232   9.643  16.501  0.1527  0.0129 -0.2156
18751W        W35599  11.787  12.551   4.954 -0.2133  0.1379 -0.0177
18752W        W35600   1.510  16.205  13.744 -0.4055 -0.0319  0.2395
18753W        W35601  13.962   5.617   5.540 -0.3204 -0.2605 -0.1237
18754W        W35602   3.116   3.228  14.333  0.1467 -0.3778 -0.2230
18755W        W35603   1.408  14.740   5.215 -0.0441  0.0607  0.1527
18756W        W35604   1.330  15.345  13.248  0.1517  0.1865 -0.1182
18757W        W35605  14.283   3.401   3.134  0.1565  0.1868  0.0961
18758W        W35606   2.881   0.294  15.352  0.1285  0.0974 -0.1904
18759W        W35607   7.728  10.511   6.023 -0.1089 -0.0072 -0.3112
18760W        W35608   9.017  15.332   3.892 -0.1940  0.1827 -0.1490
18761W        W35609   6.651  14.885  14.386 -0.1918 -0.1825  0.2970
18762W        W35610   8.691  13.740   0.279 -0.1306 -0.1204 -0.4056
18763W        W35611  16.687  15.106  15.593 -0.0657 -0.0100 -0.1389
18764W        W35612   6.748  10.332  15.916  0.2251 -0.1567  0.2165
18765W        W35613   1.502   0.947  13.436  0.1434 -0.1383 -0.1133
18766W        W35614  14.440   6.389  15.204 -0.1529 -0.2069 -0.4940
18767W        W35615   1.546   5.636   4.171  0.2945  0.0977 -0.4064
18768W        W35616   2.363  10.734   1.652 -0.1792  0.1353  0.1936
18769W        W35617   1.482   8.025  15.245 -0.1908  0.0941  0.5005
18770W        W35618  14.716   1.485   2.777  0.0833  0.2397  0.1670
18771W        W35619   5.459   7.175  13.054 -0.1776  0.2809  0.0618
18772W        W35620  16.980  10.233   4.201 -0.4902 -0.2493  0.1909
18773W        W35621  15.005   7.708  13.821  0.0689  0.0534 -0.0745
18774W        W35622   8.982  14.641  13.586 -0.1442  0.2003  0.1234
18775W        W35623   7.087   3.251  14.779  0.0437 -0.1038  0.1246
18776W        W35624   0.405   0.019   3.147  0.0091  0.0226  0.0825
18777W        W35625   4.185  11.496   0.662 -0.0640  0.2314  0.1211
18778W        W35626  11.625   2.562  16.294 -0.0551 -0.0320 -0.4338
18779W        W35627  12.313  11.828  16.072  0.0342 -0.4523 -0.0998
18780W        W35628  15.234   4.520   1.563 -0.0261 -0.0512  0.1751
18781W        W35629  14.373   6.171  13.802  0.1598 -0.0180 -0.0930
18782W        W35630  12.420   5.208   1.586  0.2378  0.1695  0.1607
18783W        W35631  12.968  12.303  17.505  0.0304  0.0858  0.1481
18784W        W35632   4.274   8.980  11.782 -0.1220 -0.1443 -0.1292
18785W        W35633   6.501  13.172  14.523  0.0646 -0.0714  0.0557
18786W        W35634  12.540   3.895  17.122  0.0213  0.2330  0.0805
18787W        W35635  14.107   8.051  12.858  0.1056  0.1053 -0.0334
18788W        W35636   7.230  10.291   4.711 -0.0853  0.4935  0.1233
18789W        W35637  16.556   5.002   5.586  0.0997  0.0495 -0.0278
18790W        W35638  16.257  14.747  13.434  0.0109 -0.2062 -0.1529
18791W        W35639  11.254  14.246  13.252 -0.3312 -0.1238 -0.2862
18792W        W35640   1.302   2.627   5.319  0.0645 -0.0679  0.2533
18793W        W35641  16.245  12.834   0.865  0.3506 -0.1492 -0.2459
18794W        W35642  13.602   2.213  12.430  0.1071  0.0514  0.1759
18795W        W35643  11.835  12.896  17.561 -0.0904  0.2019  0.1594
18796W        W35644   1.055  11.404  15.805 -0.3549  0.0429  0.0972
18797W        W35645   4.660  16.009  14.473  0.0234 -0.0468  0.0371
18798W        W35646  13.113   3.737  14.670  0.0195  0.1141  0.2298
18799W        W35647   4.245   2.180   1.375  0.0462  0.3626  0.3062
18800W        W35648   9.035   8.845   4.721 -0.1336  0.1284  0.0516
18801W        W35649   6.976  10.604  14.030  0.0563 -0.1927 -0.1823
18802W        W35650   7.139   9.204  15.259 -0.5202  0.1230 -0.1270
18803W        W35651  11.826   1.123  17.714 -0.1725  0.2935 -0.2888
18804W        W35652  12.231  10.639   2.931  0.1749  0.0121 -0.5511
18805W        W35653  14.132  10.982   4.940 -0.0815 -0.3574  0.0813
18806W        W35654  10.001  12.269  16.710  0.0568  0.1140 -0.2642
18807W        W35655  16.793   1.415   3.748  0.1524 -0.0873  0.0413
18808W        W35656  10.748  16.139   5.760  0.0385  0.2420 -0.2733
18809W        W35657  12.361   8.527  14.302 -0.0254  0.1718 -0.0146
18810W        W35658  16.879   6.054   4.628 -0.2162 -0.1316 -0.1463
18811W        W35659   6.085   2.287  13.217  0.2205 -0.0448  0.2889
18812W        W35660   2.620   2.514   4.419  0.0465 -0.0196  0.2336
18813W        W35661   3.862   6.451   4.592 -0.3208  0.0364 -0.1915
18814W        W35662   3.010   3.363  16.037 -0.0995  0.0308  0.1943
18815W        W35663   3.400   8.373   0.546  0.2911  0.1451 -0.0318
18816W        W35664   3.068  17.017   3.495 -0.1041 -0.2657 -0.0489
18817W        W35665  13.147  14.863   5.339  0.2816  0.1622 -0.1777
18818W        W35666  14.500  10.476  12.797 -0.1973  0.2035 -0.0382
18819W        W35667  11.125   5.267  14.165  0.0169  0.4514 -0.0448
18820W        W35668  14.615  13.007   5.179  0.1293  0.0431  0.0393
18821W        W35669  16.235  11.487  16.754  0.0986  0.2632  0.2088
18822W        W35670   9.809   9.400   3.263 -0.0623 -0.0636  0.1769
18823W        W35671  10.126  10.757   1.052 -0.2988 -0.0987 -0.2422
18824W        W35672  13.934  10.784  15.463 -0.0723  0.2319  0.1769
18825W        W35673   1.317   5.639  16.433 -0.1477 -0.3903  0.4482
18826W        W35674  11.285  15.055   0.479 -0.0897 -0.0317 -0.2470
18827W        W35675   9.916   4.982   1.963 -0.1520  0.1921 -0.0783
18828W        W35676  16.492  12.089  13.169  0.2537 -0.0746 -0.5488
18829W        W35677  10.850   1.091  12.299  0.0803  0.0480  0.1906
18830W        W35678   3.595   5.062  14.155 -0.1081 -0.1496  0.4275
18831W        W35679   0.624   5.166   3.217 -0.0948 -0.1922  0.1954
18832W        W35680   9.275  12.580   3.025 -0.2768  0.0872  0.0044
18833W        W35681  15.807  10.082  16.902  0.4697  0.3590  0.0264
18834W        W35682   5.114  12.750  13.422  0.1452 -0.3885 -0.1294
18835W        W35683   7.174  12.406  13.450  0.0076 -0.2126 -0.0009
18836W        W35684   6.838  16.334   3.360 -0.0114  0.2098 -0.0954
18837W        W35685  10.146  10.045  17.726 -0.0610  0.1380  0.0958
18838W        W35686   2.124   4.815  12.240 -0.1661 -0.0098  0.0957
18839W        W35687   5.776  15.528  14.215 -0.1803 -0.1436  0.0118
18840W        W35688   3.567  12.906  14.045  0.1022  0.2262  0.2111
18841W        W35689   7.378   2.032  16.710  0.3441  0.3153 -0.0394
18842W        W35690   1.967   8.176   4.125  0.3574  0.0790  0.2888
18843W        W35691   2.793   6.019   5.555  0.0333 -0.2696  0.2923
18844W        W35692   3.140  16.595   4.951 -0.1578  0.1652 -0.2460
18845W        W35693  14.435   0.469  15.949 -0.1348  0.0374 -0.1122
18846W        W35694   3.368   7.177  15.954  0.0858 -0.0534 -0.0647
18847W        W35695   9.226   6.636   0.218  0.2218 -0.2924  0.0748
18848W        W35696  10.542   2.932  14.504  0.0587  0.0725  0.1394
18849W        W35697   9.520  11.622   5.350  0.2126 -0.0527 -0.0541
18850W        W35698   5.917   8.594   2.195  0.2772  0.1065  0.1986
18851W        W35699   5.177  10.653  13.736  0.5112 -0.3333  0.1603
18852W        W35700   6.296  11.199  16.483 -0.1206 -0.0484  0.2889
18853W        W35701   2.225   9.206   1.733  0.2463  0.1728  0.0109
18854W        W35702   2.216  15.626   4.703  0.2617 -0.0683 -0.0041
18855W        W35703  12.000  15.900   2.210  0.3011  0.0746  0.1340
18856W        W35704  11.237   8.527   3.197  0.2127  0.3263 -0.1458
18857W        W35705   2.332   6.864   5.699 -0.2627  0.1341  0.3052
18858W        W35706  13.228   9.354   0.862  0.2681  0.0304 -0.0971
18859W        W35707   7.758   7.793   0.681 -0.2449 -0.3568  0.0706
18860W        W35708  11.029   6.420   5.121 -0.2059 -0.3546 -0.0207
18861W        W35709   4.959   0.879   3.043 -0.2073  0.1746 -0.1819
18862W        W35710  14.107   0.487  17.253 -0.1446  0.0349  0.2350
18863W        W35711  12.177  10.374  14.862 -0.2295 -0.1384 -0.1083
18864W        W35712   0.250  10.198  15.054 -0.1510  0.0077 -0.0680
18865W        W35713   1.324   1.024   0.017 -0.1239 -0.2169 -0.1572
18866W        W35714   8.454   0.831   2.547 -0.0629 -0.0596 -0.3192
18867W        W35715  15.606   7.250   2.213  0.0091  0.0682  0.0248
18868W        W35716  11.358  12.843  13.298 -0.0407 -0.0041 -0.1753
18869W        W35717   9.797  13.287   3.107  0.0646 -0.1490  0.1149
18870W        W35718  15.742  14.793   3.733  0.1579  0.1122  0.1315
18871W        W35719   8.440   2.086   4.380 -0.2336 -0.1359 -0.1445
18872W        W35720   0.104  12.266  16.161 -0.2309 -0.0779  0.0779
18873W        W35721   1.232  12.408  11.316 -0.1189  0.1065 -0.1423
18874W        W35722  13.771   5.321  17.825 -0.1447  0.0783  0.0590
18875W        W35723  13.561  12.435   3.067 -0.0744 -0.1439 -0.1244
18876W        W35724   9.927   3.479   0.030 -0.0492 -0.1054 -0.0466
18877W        W35725   8.941  14.386   4.429  0.3041  0.0872  0.1093
18878W        W35726   0.566  15.267   4.953 -0.0241 -0.0057  0.0055
18879W        W35727   3.689   7.258   5.292  0.0911  0.0676 -0.0512
18880W        W35728   7.219  15.761  12.401 -0.1891  0.1066  0.1585
18881W        W35729  12.639   5.234   3.031  0.0222  0.4088  0.2512
18882W        W35730   6.240  13.961  13.016 -0.1485  0.1818 -0.0406
18883W        W35731   5.377  11.153  15.528  0.0279 -0.0487  0.0631
18884W        W35732  13.949   6.995  17.181  0.2362 -0.2707  0.2539
18885W        W35733   6.068   4.758  17.432 -0.3033 -0.2810  0.2689
18886W        W35734   5.203   9.944  13.242  0.1152  0.1015 -0.1389
18887W        W35735  11.077  11.675   0.616 -0.0274 -0.2231 -0.1238
18888W        W35736  15.481  10.788  15.461 -0.0135 -0.1797 -0.1798
18889W        W35737  15.674   7.950   2.575  0.1098 -0.3172 -0.2077
18890W        W35738   2.153   8.943   5.657  0.1960 -0.0233 -0.0946
18891W        W35739  16.220  15.619   4.916  0.2437 -0.0015 -0.1930
18892W        W35740   1.920   4.442  15.086 -0.1901 -0.3909  0.0175
18893W        W35741   9.621   8.678  14.639  0.0073 -0.0967 -0.1759
18894W        W35742   1.417  13.784   5.805 -0.1410  0.1636 -0.1875
18895W        W35743   2.589  16.054  16.359 -0.0277 -0.1601  0.2004
18896W        W35744  14.978   7.153  13.832 -0.1003 -0.0088  0.0455
18897W        W35745  10.638   0.979   4.567 -0.0711  0.0797 -0.3444
18898W        W35746   4.427  16.284  17.689 -0.0411 -0.3150 -0.0483
18899W        W35747   7.415  16.170  16.660 -0.2758 -0.1005  0.1532
18900W        W35748   0.920  16.471   2.119  0.1632 -0.0085 -0.1164
18901W        W35749  14.281  15.217   2.076 -0.1110 -0.0563 -0.3655
18902W        W35750  15.974  11.048  16.658 -0.1335 -0.1348 -0.1116
18903W        W35751  15.146   9.581   3.961 -0.2462 -0.0375  0.0511
18904W        W35752   8.829   9.562  14.835  0.1454 -0.2747 -0.2534
18905W        W35753   4.686  13.260   1.037 -0.1955 -0.0395  0.2735
18906W        W35754   0.784   8.710   2.680 -0.1712  0.0346 -0.0850
18907W        W35755   8.621   2.459   4.930 -0.0106 -0.1082 -0.2519
18908W        W35756   1.703   4.769   1.047  0.1171  0.0371  0.0176
18909W        W35757   7.306   7.686  15.733 -0.1603 -0.0684 -0.2138
18910W        W35758  15.608  16.814  11.504 -0.2975 -0.2495  0.0528
18911W        W35759  16.637  14.506  13.274 -0.0139  0.0879  0.0471
18912W        W35760   2.539   2.443   2.086 -0.4107 -0.0363 -0.0868
18913W        W35761  13.487  15.726  14.176 -0.2752 -0.1491 -0.0991
18914W        W35762   7.183   2.516   5.632 -0.2037  0.2137 -0.1639
18915W        W35763   7.430  16.147   0.619 -0.2597 -0.1805 -0.1668
18916W        W35764  12.278  15.928  14.941  0.0613 -0.0378  0.3133
18917W        W35765  10.772   8.789  13.233  0.0628  0.0221  0.1004
18918W        W35766   4.567   6.249   2.504  0.0153  0.1465 -0.0847
18919W        W35767   1.345  11.889  17.819  0.0472 -0.0308  0.1254
18920W        W35768   9.087  12.070  14.654  0.0006 -0.0428 -0.0914
18921W        W35769  11.071   1.404  12.771 -0.0947  0.1817  0.2410
18922W        W35770   7.881   4.221   5.496 -0.0937 -0.1852 -0.0553
18923W        W35771  15.483  15.089   1.352  0.1214  0.0452 -0.0715
18924W        W35772   6.667   4.233   2.949  0.4753 -0.2225 -0.0769
18925W        W35773   5.089  11.338   3.933  0.0266  0.0173 -0.1707
18926W        W35774   0.572  16.078  12.340 -0.1605  0.0952  0.1289
18927W        W35775  15.068   6.542  12.969 -0.3700  0.0452 -0.3565
18928W        W35776  11.853   0.753  12.091  0.0021 -0.0100  0.0758
18929W        W35777   3.598   3.515  17.259 -0.1240 -0.1707  0.0593
18930W        W35778   5.283   5.768   3.443  0.0167 -0.1562  0.1361
18931W        W35779  10.186  13.624  17.595  0.2931  0.1243  0.0314
18932W        W35780   2.344   5.345   4.474 -0.1128 -0.0651 -0.0901
18933W        W35781   2.851   2.840  17.625  0.3717 -0.1288  0.0050
18934W        W35782   2.951   0.903   4.679 -0.3504  0.0327  0.0831
18935W        W35783  10.223   4.923  12.128  0.3145  0.2116 -0.0759
18936W        W35784   3.151  11.218   5.950  0.4448  0.0769 -0.2515
18937W        W35785  12.019   7.398   2.907 -0.0063  0.0939 -0.0252
18938W        W35786  14.390   8.649   5.338  0.4202 -0.0351 -0.0192
18939W        W35787  11.410   7.272   2.950 -0.1030 -0.0147 -0.1607
18940W        W35788   2.641  15.440  13.202 -0.1138 -0.1747 -0.0360
18941W        W35789   3.653   9.363   0.385  0.1044  0.2266  0.0088
18942W        W35790   4.050   5.284  16.937 -0.2481  0.1721 -0.2390
18943W        W35791  13.590  11.548  14.215 -0.0392  0.2414  0.1578
18944W        W35792   3.084  16.556   5.492 -0.2779  0.0567 -0.0981
18945W        W35793   4.769  14.323   0.961  0.0630 -0.0685 -0.0042
18946W        W35794  11.171  11.407   4.049 -0.1247  0.0380 -0.1108
18947W        W35795  15.017  12.789  14.288 -0.1042  0.2012 -0.1831
18948W        W35796   5.541  12.934  10.981 -0.3645  0.0497 -0.0105
18949W        W35797   9.488   9.531  11.689  0.2422 -0.2177 -0.0954
18950W        W35798   7.838   4.319   0.745  0.1072  0.5341 -0.0361
18951W        W35799  12.519   1.027  14.977 -0.0981  0.1757  0.0094
18952W        W35800  10.431   4.040   2.549  0.3091  0.2257  0.2181
18953W        W35801  15.586   7.685  17.144 -0.2126  0.1568 -0.0539
18954W        W35802  16.129   7.261  13.083 -0.0394 -0.0217  0.2572
18955W        W35803   6.995   7.521  17.265  0.2710  0.3685 -0.1736
18956W        W35804   1.872  16.274   4.591  0.0744  0.0269 -0.3347
18957W        W35805   8.193   1.678   2.044  0.2626  0.0231 -0.1325
18958W        W35806  10.073   1.200  12.797  0.1187  0.0330 -0.0525
18959W        W35807   8.150   5.158   2.315 -0.2765 -0.0505  0.0327
18960W        W35808   7.017  16.126  15.590 -0.0826 -0.0472 -0.0254
18961W        W35809   4.234  15.796   0.615  0.0203 -0.1026 -0.2297
18962W        W35810  12.266   9.883   4.508  0.2130 -0.3040  0.3331
18963W        W35811   7.988   6.234   1.384  0.0583  0.0961 -0.0952
18964W        W35812  14.848   8.638   3.791  0.0883  0.0601  0.1971
18965W        W35813   3.185  11.060   4.102 -0.0254 -0.0134  0.2550
18966W        W35814  13.711  15.220  15.973  0.0167  0.0950 -0.2089
18967W        W35815   8.568  10.640   1.701  0.3751 -0.2119 -0.3057
18968W        W35816   0.779   4.776   3.473  0.2478 -0.5010 -0.1312
18969W        W35817   2.255   1.882  16.637 -0.2015  0.0201 -0.3434
18970W        W35818   4.929   3.116   5.397 -0.1970 -0.3890 -0.0282
18971W        W35819   6.197   3.233  17.753  0.0738  0.1902 -0.1524
18972W        W35820   4.115  11.449   4.920  0.0392 -0.0978  0.0598
18973W        W35821  16.548   0.096  15.207  0.1352 -0.1681  0.0987
18974W        W35822  13.517  15.455   5.658  0.0358  0.1437  0.1716
18975W        W35823  12.418   9.449  14.402  0.0818 -0.1223  0.1063
18976W        W35824  12.847   1.868  13.351 -0.0096 -0.0023 -0.2078
18977W        W35825  10.700   2.790  13.161 -0.0294  0.2674  0.1337
18978W        W35826   2.865   1.948  14.723 -0.3967  0.2158  0.1954
18979W        W35827  15.456  13.335   4.006  0.2442  0.1181  0.1694
18980W        W35828  17.053  15.134  12.100 -0.5174  0.1017  0.1834
18981W        W35829   4.524  14.366  14.349 -0.0056 -0.2789  0.2305
18982W        W35830   1.530   2.601   3.896  0.2187 -0.4046 -0.0505
18983W        W35831   1.200   8.532  17.803 -0.1123  0.0785 -0.3220
18984W        W35832   1.473  10.828  14.121 -0.0118 -0.0906 -0.0013
18985W        W35833   6.686   7.888   5.182 -0.0321 -0.2783 -0.1434
18986W        W35834  15.721   1.518   2.018  0.0805  0.2549  0.2703
18987W        W35835   5.424   0.512   5.553 -0.1756  0.3026  0.1712
18988W        W35836  16.943   5.143   5.331 -0.0431  0.3230  0.1936
18989W        W35837   6.797  15.237   0.996 -0.2296  0.1061 -0.2728
18990W        W35838   2.029   1.715   3.006  0.2048  0.0747  0.0219
18991W        W35839  10.689   9.963   3.190  0.1810  0.0429  0.2858
18992W        W35840   5.748   9.260  12.716 -0.0169 -0.1009 -0.3734
18993W        W35841   4.036   4.046   1.122 -0.0180  0.1763  0.2360
18994W        W35842   3.124  13.588   0.762 -0.0597  0.1509  0.1383
18995W        W35843   4.824  12.224   3.770 -0.1642  0.1477 -0.0086
18996W        W35844  14.590   8.799  12.303  0.0320 -0.0785 -0.0720
18997W        W35845   0.541   1.755   1.043 -0.3865 -0.0571 -0.1432
18998W        W35846  14.571   4.667  17.726 -0.0493  0.1764  0.1183
18999W        W35847  13.398  14.656   3.086  0.1170 -0.0901  0.1309
19000W        W35848  13.395  11.330   2.000 -0.2091  0.0271  0.1705
19001W        W35849  14.193   9.373  15.457 -0.3257 -0.0393 -0.0235
19002W        W35850   5.421   7.547  13.812  0.1732  0.0606 -0.3617
19003W        W35851   5.692   5.702  16.444 -0.2184  0.0321 -0.2224
19004W        W35852   5.859   6.825  11.825  0.1184 -0.0513  0.0981
19005W        W35853  11.976  11.334  17.299  0.0705  0.3016 -0.0667
19006W        W35854   1.262   4.418  17.522  0.1893  0.0025 -0.2575
19007W        W35855   0.861  12.717  15.202 -0.3951  0.1442 -0.1210
19008W        W35856  10.306   3.221   3.245  0.1103 -0.4721  0.3747
19009W        W35857   9.002  11.963   1.907 -0.1595  0.0726 -0.0139
19010W        W35858   0.550   2.954   1.489  0.0021  0.0883  0.0798
19011W        W35859   1.101  17.025  16.834 -0.0189  0.2928  0.2145
19012W        W35860  13.007  14.936  17.491 -0.0193  0.4297  0.0160
19013W        W35861   9.262   1.784   4.864  0.1841  0.1735 -0.0708
19014W        W35862   0.723   0.257  16.716 -0.1023 -0.1661 -0.1409
19015W        W35863  11.398  14.203   5.537 -0.1706 -0.1949  0.2045
19016W        W35864  15.078   0.857  15.358 -0.0461  0.1755  0.1116
19017W        W35865  14.413   8.402  15.578  0.1808 -0.1585 -0.1821
19018W        W35866  16.845  15.757  14.753  0.1183  0.3414 -0.2257
19019W        W35867   6.404  12.702   5.686  0.0864  0.3376  0.0425
19020W        W35868  10.452  12.531   2.959  0.1848 -0.0422 -0.2619
19021W        W35869  11.384   4.915  12.193 -0.1836  0.0861  0.3380
19022W        W35870   7.182   3.596  16.332  0.0719  0.0138  0.1588
19023W        W35871   9.722   8.557  15.559 -0.1331 -0.0512  0.2842
19024W        W35872   6.795  16.019   4.431  0.0342  0.1358  0.0787
19025W        W35873   4.960   1.374  17.851 -0.0836  0.0312 -0.0387
19026W        W35874   2.028  14.775   4.471  0.1308  0.2249 -0.1076
19027W        W35875   7.594  11.271  15.450  0.3402  0.1252 -0.1722
19028W        W35876  15.624   4.477  13.488 -0.0133  0.0421  0.2900
19029W        W35877  15.544  11.502   5.797  0.0827  0.1370  0.0919
19030W        W35878   1.181  13.065   4.403  0.0206  0.2701 -0.0333
19031W        W35879  13.204  16.948   3.694  0.0570 -0.0972  0.1077
19032W        W35880   5.637   1.632   1.443 -0.1499 -0.0457  0.0021
19033W        W35881  12.269  16.009   0.038 -0.3914 -0.0310 -0.1872
19034W        W35882  10.389  12.669  15.147  0.2276  0.4340  0.0700
19035W        W35883   5.319   6.564  16.337  0.0122 -0.1700 -0.0811
19036W        W35884  14.961  15.480  17.389  0.0647  0.1837  0.2471
19037W        W35885   7.654   0.105   2.729  0.1859 -0.0458  0.0944
19038W        W35886  15.568  10.625   4.614  0.2101  0.0395  0.1543
19039W        W35887   6.247   1.663   0.886 -0.2037  0.1773  0.1486
19040W        W35888   6.909  14.894   2.714 -0.0596  0.3485 -0.5053
19041W        W35889  12.759  17.040  14.044  0.1965 -0.0739  0.2753
19042W        W35890  16.890  14.295   4.567 -0.0686 -0.1252  0.1986
19043W        W35891  14.127  11.126   4.195 -0.3332  0.0750 -0.0124
19044W        W35892  12.278   6.970   2.676  0.2939  0.0469  0.1337
19045W        W35893   5.415  10.019  17.416  0.0831 -0.1580 -0.1997
19046W        W35894  12.645   6.331   3.727  0.1167 -0.0002 -0.0552
19047W        W35895   6.199  12.824   3.265  0.0634  0.0591 -0.1715
19048W        W35896  12.429   7.405  12.002  0.3255 -0.1431  0.0588
19049W        W35897  15.161   6.713   5.563  0.0201  0.2455 -0.1384
19050W        W35898   2.857  10.313  15.189  0.0200 -0.3222 -0.2470
19051W        W35899   8.280   7.199  12.166  0.0423  0.0392 -0.2642
19052W        W35900  12.766   4.544   3.942  0.0101  0.0905 -0.0875
19053W        W35901   0.547   3.874   2.907 -0.1836  0.1740 -0.0449
19054W        W35902  10.545   1.191  14.936 -0.4344 -0.1413 -0.0850
19055W        W35903   5.559   9.901   0.261 -0.2350  0.1700  0.0418
19056W        W35904  11.081   7.095  16.040  0.1644  0.1559  0.0555
19057W        W35905   7.519   8.892  15.817 -0.3953 -0.1493  0.0816
19058W        W35906  14.281  16.044   4.481 -0.0102  0.1629 -0.1840
19059W        W35907  15.488   5.691  13.200 -0.2896  0.2388 -0.2740
19060W        W35908  13.500   3.803  16.647  0.1433  0.0561 -0.1636
19061W        W35909   0.910   0.458  17.329 -0.1164 -0.3739 -0.3015
19062W        W35910   7.038   2.108   1.016  0.2030  0.0423  0.0914
19063W        W35911   0.155   5.881   2.793  0.0451 -0.1929  0.0973
19064W        W35912   5.160  14.888   1.157 -0.1541  0.0817 -0.0864
19065W        W35913  10.780  16.831  17.640 -0.1855  0.6007 -0.0878
19066W        W35914  12.257   2.603  17.116  0.1967  0.0875  0.2606
19067W        W35915  14.541   1.267   5.621  0.1800  0.1123 -0.0256
19068W        W35916   9.488   1.045  12.205 -0.2027 -0.2076  0.0022
19069W        W35917   9.520   6.010   4.167 -0.0338  0.0705 -0.0350
19070W        W35918  12.690  15.094   5.189  0.1502  0.2011 -0.0273
19071W        W35919  11.162  15.234  11.492  0.0769  0.0487 -0.0851
19072W        W35920   6.854  12.617  16.674 -0.0722 -0.1556  0.1495
19073W        W35921  10.928   4.142   4.579 -0.2980  0.1156 -0.0679
19074W        W35922   0.321  13.607  17.745  0.0905 -0.1787 -0.0090
19075W        W35923   4.526  12.691   1.133  0.0017  0.1774  0.2726
19076W        W35924   6.926  12.727  17.658  0.0075  0.4255  0.0577
19077W        W35925   6.572  12.008   1.014 -0.0387 -0.1132 -0.0352
19078W        W35926  12.321  10.961   2.529  0.3374  0.0366 -0.1394
19079W        W35927   7.400  13.095  12.352 -0.2953 -0.1313 -0.0326
19080W        W35928   4.376  10.125   2.007  0.0888  0.0039 -0.1744
19081W        W35929   9.312  16.131   0.713  0.0520  0.0584  0.0430
19082W        W35930   8.649  15.662  12.365 -0.2592  0.0905  0.2110
19083W        W35931   0.173   4.007  14.936 -0.3102 -0.2061  0.2068
19084W        W35932  14.098   8.401  16.265  0.0749 -0.0005  0.2475
19085W        W35933   0.816   1.295  15.952  0.2236  0.0776  0.1080
19086W        W35934  13.207  10.482   2.393 -0.2901 -0.0202 -0.0314
19087W        W35935  16.367  12.107  17.196 -0.2356 -0.1899 -0.0381
19088W        W35936   8.112   8.035  14.263 -0.1487  0.1265 -0.0666
19089W        W35937  14.642   0.882  14.871  0.2901  0.2104 -0.0993
19090W        W35938   0.878   1.269   5.027  0.1603 -0.3168  0.0761
19091W        W35939  13.936  11.535   0.882 -0.0793  0.0110 -0.1353
19092W        W35940  12.451   7.564   6.155 -0.1041 -0.0807  0.1091
19093W        W35941   1.750  10.520   1.798  0.3723  0.0250 -0.2645
19094W        W35942   7.667   4.042  15.803  0.2772  0.0035  0.3839
19095W        W35943  14.084   7.686  14.427 -0.1723 -0.1439 -0.2378
19096W        W35944  14.962   7.749   5.804 -0.2347  0.0051  0.0963
19097W        W35945   5.461  13.592  14.468  0.0103  0.1394 -0.0638
19098W        W35946  13.307  14.384  16.259 -0.1047 -0.0894  0.1855
19099W        W35947   9.414  13.302  15.994  0.2514 -0.1157  0.0588
19100W        W35948   6.227   1.700  17.253 -0.0717 -0.0611  0.0713
19101W        W35949   7.505   1.709   6.203  0.0301 -0.2775  0.1074
19102W        W35950  12.812   1.569   0.222  0.1940  0.2122  0.1158
19103W        W35951   6.091  10.500   5.248  0.0762  0.0417 -0.3629
19104W        W35952  14.025  13.034   1.768 -0.0888  0.0262 -0.0431
19105W        W35953   3.727   1.440   5.685  0.0103 -0.3346  0.0859
19106W        W35954  15.907  15.960  14.650 -0.1876 -0.0409 -0.3528
19107W        W35955   6.820   3.768   5.407 -0.1217 -0.3682 -0.0492
19108W        W35956   1.506   4.551  17.025  0.2030 -0.1830  0.2847
19109W        W35957   5.503   0.428  13.953 -0.1873  0.0890 -0.1955
19110W        W35958  16.626   2.353   0.730  0.1503 -0.0656 -0.1030
19111W        W35959  16.442  12.184   0.421 -0.0148 -0.1322 -0.1445
19112W        W35960   3.776   4.833  15.485 -0.0301  0.2094  0.2240
19113W        W35961  12.660  10.221  14.938 -0.0993 -0.3821 -0.1182
19114W        W35962  16.429   4.022  14.995  0.0043 -0.2901 -0.1188
19115W        W35963  15.298  14.357   4.090  0.1516  0.2245 -0.2678
19116W        W35964  13.591   5.591  16.134 -0.1256  0.2193 -0.2575
19117W        W35965   3.073  12.526   6.000 -0.1417 -0.2846 -0.1433
19118W        W35966   8.711   7.968  17.436  0.1694  0.1695 -0.2714
19119W        W35967   1.720  11.782   1.671  0.0604 -0.4281 -0.4325
19120W        W35968   8.994  13.788   2.074  0.0247  0.4692  0.0531
19121W        W35969  11.306  10.575   5.169  0.3327 -0.0986 -0.2899
19122W        W35970   6.951  13.206   4.181  0.2934 -0.0836  0.0974
19123W        W35971  10.721   8.026   2.814 -0.1405 -0.3077 -0.2512
19124W        W35972   5.143  11.435   2.103  0.1503 -0.2222 -0.0118
19125W        W35973   8.641   5.015  17.513  0.1680  0.0417 -0.0368
19126W        W35974  12.987   2.223   4.794  0.0999 -0.1048  0.2366
19127W        W35975   8.554  11.696  14.580  0.0131 -0.0711  0.2974
19128W        W35976  15.461   2.638  17.698 -0.0275  0.0588 -0.0030
19129W        W35977   5.933  10.894  14.291 -0.0570 -0.3236 -0.0603
19130W        W35978   4.882  11.015  13.985  0.1857 -0.0239  0.0706
19131W        W35979   8.819   7.639  15.884  0.0248  0.1106  0.2720
19132W        W35980   4.430   9.696  16.520  0.0187 -0.0196 -0.2945
19133W        W35981   6.798  15.847   6.135 -0.0072  0.1420 -0.1349
19134W        W35982  11.201  12.310   0.779 -0.1089  0.2552 -0.2115
19135W        W35983   5.324   5.783  12.622 -0.0111 -0.0004  0.0548
19136W        W35984   4.537   6.820  17.410 -0.1458  0.1257  0.1343
19137W        W35985  16.256  14.197  13.207  0.4241  0.1936  0.1330
19138W        W35986  14.709  15.412   0.403 -0.0766 -0.0136 -0.0769
19139W        W35987  15.533  10.552  14.674 -0.1376  0.2775  0.2888
19140W        W35988   2.977   2.897   0.490  0.0420 -0.0994 -0.0739
19141W        W35989   8.873  15.468   2.904 -0.1711  0.0806 -0.1244
19142W        W35990  10.146  15.719  16.551 -0.1232  0.1914  0.2524
19143W        W35991   0.810   7.740  17.356 -0.0007 -0.4504  0.0962
19144W        W35992  10.685  16.086   1.982  0.1916  0.0745 -0.1821
19145W        W35993   9.989  11.001   2.794 -0.1513 -0.0163  0.2547
19146W        W35994   3.685   8.775  17.578 -0.2668  0.0035 -0.0383
19147W        W35995   3.883   9.894  12.668 -0.1843 -0.0478 -0.2189
19148W        W35996  15.025   2.425   1.257  0.0241  0.0331 -0.0590
19149W        W35997   8.348  13.358   4.563 -0.0198 -0.3426 -0.1114
19150W        W35998  15.132   0.325  16.653  0.1802 -0.1845 -0.1115
19151W        W35999  15.950   1.864  13.803 -0.0160 -0.4543  0.2939
19152W        W36000   4.321  11.128  15.048  0.4711  0.0689 -0.1530
19153W        W36001  14.054  16.742   4.070 -0.1958  0.0373  0.1049
19154W        W36002  14.835   2.832  12.675 -0.3302 -0.2219  0.0200
19155W        W36003   7.092   3.415   1.869  0.0170  0.0937  0.0078
19156W        W36004  12.165   8.133   1.104 -0.2232 -0.0085  0.3329
19157W        W36005   8.330  11.311  14.778  0.0219  0.4049 -0.0903
19158W        W36006   6.727  14.203   1.171 -0.1790 -0.0726 -0.2718
19159W        W36007  12.525   8.591   3.682  0.2251  0.2264  0.0854
19160W        W36008   3.610  11.252  12.712 -0.1177  0.3934  0.1425
19161W        W36009   0.310   0.392  16.973  0.1317 -0.1278 -0.1993
19162W        W36010   5.165   9.565  16.026  0.2797  0.0919  0.0757
19163W        W36011  16.612  15.015   3.335 -0.3049  0.2365 -0.1768
19164W        W36012  11.588   4.556  16.119  0.2288  0.4050 -0.3430
19165W        W36013  14.609   0.804   2.245 -0.0589 -0.1782 -0.1268
19166W        W36014   0.540   6.962   6.836  0.0922 -0.1243  0.0200
19167W        W36015  11.188   3.644  16.102 -0.3988  0.1899  0.2087
19168W        W36016   2.055  10.292  12.525 -0.1866 -0.1444 -0.0344
19169W        W36017   4.029   0.990  13.993 -0.0780  0.1974 -0.0474
19170W        W36018  14.367   6.740  17.717 -0.1094  0.0495  0.0804
19171W        W36019   1.101  12.601   4.811  0.0363 -0.1822 -0.1779
19172W        W36020   0.922  14.725   0.017  0.2302 -0.2730  0.0166
19173W        W36021   0.188  10.248   1.274  0.0749  0.1656 -0.0907
19174W        W36022   6.630   7.417  16.492 -0.0330  0.0127 -0.0627
19175W        W36023   3.980   3.920  12.787  0.0120 -0.1713  0.0287
19176W        W36024   0.614   6.281   3.007  0.5331 -0.2681 -0.2336
19177W        W36025   7.430  14.743   4.981  0.0849  0.4060  0.0323
19178W        W36026   9.061   2.450  14.519  0.2508 -0.0648 -0.2941
19179W        W36027  10.197   7.210   5.486  0.1660  0.0477 -0.1210
19180W        W36028   4.696   2.645   0.509 -0.0612 -0.1793 -0.2136
19181W        W36029  13.904   8.996  11.691 -0.1064  0.0155 -0.0914
19182W        W36030   4.743   7.400   3.116 -0.0286 -0.0870  0.1787
19183W        W36031  11.742   3.395  15.031 -0.1839  0.1783  0.1628
19184W        W36032   7.563   3.498   2.252 -0.0047  0.2106 -0.1576
19185W        W36033  11.670   3.490   4.419 -0.1423  0.1043 -0.0235
19186W        W36034   9.422  12.119  17.432 -0.0462 -0.0246  0.2723
19187W        W36035  10.622  15.063   1.166 -0.1450  0.0034 -0.1194
19188W        W36036   9.496   7.128   4.552  0.2166 -0.1566  0.1141
19189W        W36037   1.582  11.653  17.406  0.0226 -0.1180  0.1362
19190W        W36038   0.459   3.322   6.677 -0.1152  0.1546 -0.0879
19191W        W36039   6.218   1.554  13.857 -0.1356  0.1094  0.1745
19192W        W36040   9.063   4.253  13.884 -0.0750  0.1680 -0.0353
19193W        W36041  11.313   0.293  16.231 -0.3100  0.0654  0.1862
19194W        W36042  15.640   0.561  12.266  0.3653 -0.0528 -0.0987
19195W        W36043   1.092   2.080  12.923  0.4123 -0.1031 -0.4204
19196W        W36044   0.965   8.156   1.153  0.0147 -0.0496 -0.1498
19197W        W36045   6.210   0.606   1.670  0.0042  0.0868 -0.2819
19198W        W36046   7.015   0.275  16.510 -0.2111  0.5234  0.1001
19199W        W36047  15.000   3.732   1.009  0.1355 -0.2001  0.1188
19200W        W36048   5.251  11.905   3.690  0.0629  0.1621  0.2136
19201W        W36049   4.000  14.283   5.817  0.0576  0.3556 -0.0397
19202W        W36050  16.506   8.656  16.675 -0.0801  0.0849 -0.2109
19203W        W36051  11.415  15.912  12.636  0.1402 -0.0685 -0.3134
19204W        W36052   7.994   1.430  15.649 -0.0345 -0.0865  0.1424
19205W        W36053  12.597  10.622   5.241  0.0227  0.3310  0.0387
19206W        W36054   3.402  10.677   5.429  0.1421 -0.1921 -0.4563
19207W        W36055   6.706  12.859   0.208 -0.1182  0.1691 -0.0080
19208W        W36056   2.326   8.184   2.189 -0.2102  0.1380  0.2735
19209W        W36057   6.141  13.456   2.421  0.0328  0.2162 -0.0518
19210W        W36058  12.166  10.382  12.745 -0.1901  0.1517  0.2143
19211W        W36059   1.700  13.096   3.613 -0.1163  0.0020  0.0268
19212W        W36060  12.258   0.012  16.831  0.1856  0.0035  0.2248
19213W        W36061  16.921   7.956  16.649 -0.0650 -0.0056 -0.0281
19214W        W36062   3.010  11.185  14.318 -0.0792 -0.0889  0.1226
19215W        W36063  10.522  12.580   3.834  0.0151  0.1374 -0.2193
19216W        W36064  14.580  16.582   1.895 -0.4533 -0.0379 -0.0346
19217W        W36065  12.553  12.399   5.273  0.2927 -0.0833  0.0895
19218W        W36066   9.265  14.905  16.278 -0.1827  0.1351 -0.3166
19219W        W36067   1.119  15.612  15.306 -0.2160 -0.1422 -0.1775
19220W        W36068   3.963   9.806  16.536 -0.2778  0.0450 -0.2271
19221W        W36069   8.288   2.757   1.254  0.0240 -0.1342  0.0803
19222W        W36070   1.404  10.067   1.582  0.1205 -0.0213  0.4862
19223W        W36071  11.162   4.739  17.725  0.2116 -0.0387 -0.3607
19224W        W36072  13.596   3.813  13.842 -0.0923  0.2972 -0.1737
19225W        W36073   2.089  15.955   2.286  0.0906  0.1562  0.2470
19226W        W36074  11.604   0.447   1.022  0.0426 -0.2813  0.2864
19227W        W36075   1.552  14.115  15.491  0.1392 -0.3223 -0.0917
19228W        W36076  13.132  15.678  12.208 -0.3707 -0.0912  0.1432
19229W        W36077  11.546   8.217  16.760 -0.0804  0.0525  0.0086
19230W        W36078   6.221   5.685   2.388 -0.2551  0.1629  0.0046
19231W        W36079   1.864  16.775   1.784  0.0506  0.3790 -0.0934
19232W        W36080   1.520   3.723  15.021 -0.2008  0.0452 -0.0259
19233W        W36081  16.927   9.697   4.485  0.0975  0.0408 -0.1060
19234W        W36082   9.759  11.564   1.543 -0.2159 -0.0482  0.0224
19235W        W36083   9.093  10.539   3.805 -0.0475 -0.0199 -0.0169
19236W        W36084   4.281  10.114  15.360  0.1658  0.4363 -0.1016
19237W        W36085  14.572   8.721  16.050 -0.2157 -0.1151  0.0917
19238W        W36086   0.436  14.745   2.824  0.2285 -0.2808 -0.2197
19239W        W36087   2.958   4.026   0.811  0.0845  0.2790  0.3481
19240W        W36088  11.670   6.733   0.999 -0.1347 -0.1462 -0.0666
19241W        W36089  13.573  12.822   1.672  0.0104  0.0848  0.2614
19242W        W36090  13.206   5.649  14.440  0.0369 -0.0661  0.1759
19243W        W36091   2.498  11.224  11.911 -0.0816 -0.0725  0.4880
19244W        W36092  10.044   5.886  15.090  0.3178  0.1139  0.1747
19245W        W36093   2.402   3.186  15.327 -0.1082  0.0952  0.3123
19246W        W36094  10.043   5.204   4.604  0.1037  0.1345 -0.2827
19247W        W36095   3.982   5.221  16.244  0.0373 -0.0478 -0.0181
19248W        W36096  15.068  10.255   4.126  0.0537 -0.2627 -0.0905
19249W        W36097   6.848   9.872  12.803 -0.2952  0.1845  0.0414
19250W        W36098   1.902   9.205  17.055 -0.0063  0.1447  0.1146
19251W        W36099   2.251   8.914  14.101 -0.0324  0.1027  0.1286
19252W        W36100   5.969  13.950   6.038 -0.1434  0.0556 -0.1483
19253W        W36101   0.497  14.712  17.593 -0.0893  0.0491  0.1508
19254W        W36102  16.672  14.539   3.058  0.0087  0.2068  0.2843
19255W        W36103  10.496   3.046   4.279 -0.0396  0.1213 -0.0740
19256W        W36104  11.135   7.102   5.693  0.2203 -0.0135 -0.1354
19257W        W36105  10.375  14.763   3.131  0.2901 -0.0534 -0.1689
19258W        W36106  12.317   0.943  12.177  0.1953 -0.0257  0.0347
19259W        W36107  11.738  14.269   3.372  0.0899  0.2812  0.1387
19260W        W36108  16.553  11.067   1.542 -0.3112 -0.2424 -0.1841
19261W        W36109   2.040  11.808   2.394  0.0025  0.2800  0.2262
19262W        W36110   0.034   1.176  14.300  0.2209 -0.1371  0.0790
19263W        W36111   7.722  12.654   3.971 -0.0160  0.0660 -0.2227
19264W        W36112   9.959  13.573   0.603 -0.0555 -0.1033 -0.0887
19265W        W36113  15.712   2.936   5.385  0.0560 -0.2121 -0.2204
19266W        W36114   6.947   1.575   2.765 -0.2708 -0.2012  0.0820
19267W        W36115   9.757  13.042   1.844 -0.0229  0.3273  0.2263
19268W        W36116  15.300  11.733  16.529 -0.1454  0.0077 -0.2053
19269W        W36117  11.729   1.673  13.292  0.0323 -0.0977 -0.0290
19270W        W36118   4.789   2.279  12.492  0.1044  0.1677 -0.2163
19271W        W36119  11.074   9.522   4.382 -0.0356 -0.0284  0.1788
19272W        W36120   0.441   4.282   0.979  0.0063 -0.0434 -0.0063
19273W        W36121   3.538   2.388   2.061  0.1516  0.3474 -0.0655
19274W        W36122  10.991   1.709   3.651  0.1355 -0.2270 -0.0584
19275W        W36123   3.046  14.166   3.399 -0.1246  0.0203 -0.2848
19276W        W36124   0.542   5.505   4.442  0.1501 -0.0262  0.0639
19277W        W36125   7.972   6.701  16.783  0.1033 -0.0448 -0.0233
19278W        W36126   8.420  16.745   4.124 -0.0946  0.1000  0.2770
19279W        W36127   6.161  16.349  13.520  0.0049  0.0043  0.1927
19280W        W36128   7.950  13.364  16.115  0.0885  0.3104 -0.1858
19281W        W36129   8.968   5.579  16.149  0.1089  0.2305  0.0868
19282W        W36130   3.997   7.148   1.299  0.0904  0.0896  0.1357
19283W        W36131  12.662   9.475  13.691  0.6306 -0.0100  0.3821
19284W        W36132   1.568   1.870   5.002  0.1055  0.0492  0.3855
19285W        W36133   4.895  11.783   0.140  0.0833 -0.3065 -0.1566
19286W        W36134   6.625  11.830   2.107  0.1887  0.0797 -0.2419
19287W        W36135  10.570  12.137   4.212  0.2977 -0.1280  0.3666
19288W        W36136  16.583  11.032   4.946 -0.0903 -0.1544 -0.1623
19289W        W36137   0.158   5.202  16.458 -0.1171 -0.3192 -0.3135
19290W        W36138  13.481  15.236  16.859 -0.4490  0.0437  0.0433
19291W        W36139   0.217  10.769   1.198  0.1975  0.0526  0.0111
19292W        W36140   8.513   3.760  15.796  0.0854  0.2404  0.1949
19293W        W36141  16.138   4.437  16.808  0.1693  0.2025 -0.0266
19294W        W36142   9.394  11.934  16.001  0.0152 -0.0841 -0.1913
19295W        W36143  11.718  12.298  14.796  0.1183 -0.3021  0.0533
19296W        W36144  12.848   9.506   0.119 -0.1818  0.0688  0.0885
19297W        W36145  16.310  15.140  15.999 -0.2873 -0.0468 -0.2535
19298W        W36146   1.731  16.207   1.051 -0.1096 -0.1351  0.0349
19299W        W36147   9.904  13.744  16.607 -0.1974  0.0390  0.2264
19300W        W36148   3.981  12.741   3.453  0.0823  0.3650  0.1068
19301W        W36149   0.477   7.595  14.669 -0.2286  0.2147 -0.2953
19302W        W36150   2.360   5.644   5.993  0.1651 -0.0879  0.0390
19303W        W36151   3.151   2.200   4.925  0.2963  0.3232 -0.0830
19304W        W36152  15.839   6.093   5.536 -0.0061 -0.2627 -0.1773
19305W        W36153  13.904  16.859  16.322 -0.0020  0.1897  0.2439
19306W        W36154  13.534  16.215  15.810 -0.3022 -0.1432 -0.1709
19307W        W36155   4.018   5.872   1.481  0.0661 -0.1863  0.1337
19308W        W36156   0.874  15.028   4.616 -0.0369  0.1887  0.0525
19309W        W36157   4.391   2.090  17.600  0.0192 -0.1717  0.3616
19310W        W36158   8.404   0.601   1.140  0.1215  0.0277  0.1533
19311W        W36159  11.268   4.810   1.874 -0.1370 -0.0125 -0.1121
19312W        W36160   0.067  12.725  14.125  0.5584  0.0945  0.0452
19313W        W36161   3.328   3.112   0.879 -0.1197  0.2579 -0.0183
19314W        W36162  13.206   2.797   2.936 -0.3307 -0.2566  0.2515
19315W        W36163   1.835  15.365  13.475 -0.2371  0.2029 -0.0926
19316W        W36164  16.053   7.466   2.920  0.0969  0.1819 -0.1720
19317W        W36165  15.522  13.831   5.441 -0.0130 -0.2832  0.0448
19318W        W36166   9.114  14.306  16.665 -0.2684 -0.2536  0.0957
19319W        W36167  11.653   8.386   2.403 -0.3628 -0.0050 -0.0780
19320W        W36168   4.246  15.445  16.480  0.2946  0.1835 -0.3965
19321W        W36169   1.034  10.158  14.595 -0.0198 -0.2846 -0.2128
19322W        W36170   2.773  10.931   1.513  0.2507  0.1170  0.3413
19323W        W36171   1.818   9.303   3.433 -0.1809 -0.2848 -0.2173
19324W        W36172   2.350   5.205  15.546  0.0507  0.0800 -0.1391
19325W        W36173   2.088  13.164  13.430  0.0121 -0.1732  0.0506
19326W        W36174  13.167   2.732   0.505 -0.3738  0.1064  0.2004
19327W        W36175   4.285  14.646   5.216  0.2349 -0.1768 -0.0207
19328W        W36176  16.107   2.861  14.020 -0.2744 -0.1032  0.0937
19329W        W36177   3.432   0.719   4.850 -0.1006  0.1020  0.0572
19330W        W36178   4.233   2.620   5.659 -0.1945  0.1580  0.2618
19331W        W36179  12.880   5.865  16.699 -0.0811 -0.1165 -0.3029
19332W        W36180  15.001   0.995  14.313 -0.3492 -0.0105 -0.4191
19333W        W36181   9.051  14.734  17.297  0.2255  0.1414  0.0585
19334W        W36182  11.478  15.951   4.610 -0.0568 -0.1463  0.0366
19335W        W36183  14.037  13.391   2.746 -0.0776  0.2633 -0.0667
19336W        W36184  12.937   3.511   0.315 -0.1042 -0.0709  0.0272
19337W        W36185  13.422  11.141  17.488  0.0986  0.0059 -0.1781
19338W        W36186   3.894   9.962   0.337 -0.0241 -0.2355 -0.0194
19339W        W36187   1.467   0.040   0.343  0.0221  0.2399 -0.0495
19340W        W36188   1.636  10.533  12.688 -0.1722  0.1918  0.1373
19341W        W36189   3.746  10.819   1.509 -0.0175  0.1927  0.2211
19342W        W36190   0.651   6.612  14.683  0.2591 -0.0970 -0.1365
19343W        W36191  11.071   7.461   4.909  0.2363 -0.0093 -0.0279
19344W        W36192   7.232  10.047  17.593  0.0212 -0.0679  0.0402
19345W        W36193   9.222  11.829   1.450  0.1122 -0.2541 -0.0892
19346W        W36194  12.925   5.847   0.491  0.1916  0.0811  0.0261
19347W        W36195   9.894   6.458   6.146  0.0167  0.0995  0.0390
19348W        W36196   2.633  10.698   3.887  0.0903  0.1257  0.1511
19349W        W36197  16.091  13.042   4.738  0.3208 -0.0029  0.1061
19350W        W36198  10.516   7.158   5.057 -0.2477 -0.0084 -0.0448
19351W        W36199   2.162  12.491   1.602 -0.0135  0.1029  0.0260
19352W        W36200  15.976  10.127   3.869 -0.1042 -0.2935 -0.1192
19353W        W36201   9.310   9.954   5.850 -0.1627 -0.1636 -0.2251
19354W        W36202   3.001  11.681   4.527 -0.0710 -0.2905  0.0568
19355W        W36203   3.806  12.793   2.409 -0.1919  0.2282 -0.1397
19356W        W36204  12.573   5.614  14.593  0.2086 -0.1476  0.0625
19357W        W36205   1.295   8.496   4.935  0.0009 -0.0318  0.0930
19358W        W36206  10.249   2.293   0.717 -0.1733 -0.2327 -0.0240
19359W        W36207  11.972  14.448   0.665  0.0121 -0.1747  0.2251
19360W        W36208   8.046   5.185   4.785  0.1228  0.2525  0.2498
19361W        W36209   8.920  16.577  14.957  0.0605  0.3412 -0.0668
19362W        W36210   4.758   3.150   4.390 -0.0857  0.0673 -0.0740
19363W        W36211   4.451  15.386   0.788  0.0575  0.2460 -0.1083
19364W        W36212  13.733   4.553   1.028  0.1038  0.0651  0.2343
19365W        W36213   2.116   7.561  12.918 -0.2867  0.1121 -0.0847
19366W        W36214   1.196  10.311  16.125 -0.0053  0.0229 -0.2152
19367W        W36215   5.544   2.082   3.154 -0.1444  0.3271  0.4040
19368W        W36216   8.905   9.931  12.418 -0.0830 -0.2652  0.2640
19369W        W36217  12.820  11.040  14.710  0.1852 -0.0528 -0.0431
19370W        W36218  14.463   3.680  17.184  0.1482  0.0433 -0.0277
19371W        W36219   8.103   8.999   4.970  0.2924  0.1339  0.1335
19372W        W36220   1.951  14.771  12.253  0.3404 -0.1380 -0.0802
19373W        W36221  14.796  14.586   2.880 -0.1293 -0.1659 -0.2464
19374W        W36222  13.138   2.863  17.828  0.0158  0.0589 -0.1894
19375W        W36223   6.758   9.418  17.525 -0.0046  0.0602  0.1483
19376W        W36224   2.371   4.005   1.793  0.1068  0.1207  0.0706
19377W        W36225   1.446  15.545  15.632  0.1403 -0.0428  0.1911
19378W        W36226  11.466  15.611   1.129 -0.1372  0.0757 -0.0991
19379W        W36227   2.387   1.548   0.745  0.3064 -0.1107  0.2977
19380W        W36228   6.283  12.846   3.825  0.1035  0.0082 -0.1830
19381W        W36229   8.429   6.924  15.438 -0.5132 -0.0984  0.2616
19382W        W36230   3.441   8.270  17.374 -0.2655  0.2514 -0.2202
19383W        W36231  11.126   0.834  12.631 -0.1950 -0.4041  0.3209
19384W        W36232   6.701   6.282   4.710 -0.4595 -0.2862 -0.1205
19385W        W36233   6.874  13.672  16.480 -0.1990 -0.1147  0.1236
19386W        W36234   2.670   5.361  13.286 -0.0475  0.2482  0.1115
19387W        W36235   5.720  14.395   3.564 -0.1192 -0.1083  0.0395
19388W        W36236   2.108  16.573  15.658  0.2022  0.0187 -0.2039
19389W        W36237  13.627  11.037   4.945  0.2280  0.0421 -0.2962
19390W        W36238   8.628  10.430   1.287 -0.3223  0.3881  0.1003
19391W        W36239   3.352   7.395  13.554 -0.3998 -0.0258  0.1863
19392W        W36240  12.597   6.927  17.069  0.1295  0.2276 -0.3377
19393W        W36241  14.275   1.400  15.665  0.0402 -0.0923 -0.3429
19394W        W36242   6.709   8.708   3.372  0.4653  0.0573  0.3890
19395W        W36243  12.716   4.367  12.450  0.0520 -0.0235  0.0002
19396W        W36244   8.168  16.103   4.728 -0.0670 -0.1771 -0.0637
19397W        W36245  10.867   2.859   2.606 -0.0747  0.2898 -0.0141
19398W        W36246   2.909  11.079   1.074 -0.1701 -0.2264 -0.0152
19399W        W36247   3.040   5.966   0.312 -0.2715 -0.0214 -0.2079
19400W        W36248   0.021   7.630  16.232  0.2542  0.0117  0.0046
19401W        W36249   3.362   7.067   1.564  0.1743  0.1389  0.1412
19402W        W36250  11.648   8.672  15.830 -0.0370  0.2345 -0.0276
19403W        W36251  12.787   9.024  17.781  0.3323  0.1565  0.1786
19404W        W36252  11.864   8.580  14.362  0.0055  0.0921 -0.0737
19405W        W36253   6.000  16.590   5.529 -0.1692  0.3249  0.1154
19406W        W36254  11.521   8.167  14.881 -0.0482 -0.0014 -0.2996
19407W        W36255   6.422   5.256   2.637 -0.0452  0.1550  0.0156
19408W        W36256  11.202  10.058  12.840  0.3092 -0.2502  0.1978
19409W        W36257   6.942   4.921   0.493 -0.2915 -0.0578 -0.2778
19410W        W36258  13.327   0.769   3.184 -0.2270 -0.2611 -0.2314
19411W        W36259  10.748   5.394  14.761 -0.0613  0.0276  0.2006
19412W        W36260   1.586   2.746  16.951 -0.2263 -0.0559  0.2290
19413W        W36261   0.113  16.014   4.954 -0.1269 -0.0817 -0.2013
19414W        W36262   2.339  11.564  15.600 -0.0331 -0.0929 -0.1432
19415W        W36263   5.094   9.182   4.965  0.0292 -0.0456 -0.1833
19416W        W36264   1.459   2.665   3.390 -0.2827 -0.0671  0.2261
19417W        W36265   2.632   5.133  14.073 -0.1718 -0.2709 -0.1054
19418W        W36266   9.114  12.331  16.076 -0.2096 -0.4735 -0.0001
19419W        W36267   3.534  13.043  13.050 -0.1739 -0.1578 -0.1154
19420W        W36268  12.058   1.292   5.505  0.1950  0.2104  0.2269
19421W        W36269  16.615   3.722  16.574  0.2652 -0.2415  0.1482
19422W        W36270   2.133   5.910  14.950  0.0621  0.0735  0.1918
19423W        W36271   9.127  13.375   2.608  0.1683  0.1769 -0.1532
19424W        W36272   7.948  14.319   3.794 -0.5310  0.3527 -0.0071
19425W        W36273  10.861   1.878   4.093 -0.0755  0.0246  0.1362
19426W        W36274   2.810   3.869   3.519  0.1486 -0.0009  0.2188
19427W        W36275  10.223  16.021   1.220 -0.2489  0.3182  0.0515
19428W        W36276   5.044   9.610   3.677 -0.3828 -0.1705  0.2110
19429W        W36277  10.044  16.356  16.935  0.1706 -0.2863  0.2290
19430W        W36278   3.112  12.919  16.540 -0.3155 -0.0571  0.0021
19431W        W36279   0.325   0.540  15.750  0.0944 -0.2737 -0.0567
19432W        W36280  13.440  16.013   1.622  0.0579  0.1936  0.1656
19433W        W36281   8.199  12.095   0.647 -0.0074  0.1042  0.1197
19434W        W36282   7.082   1.632   5.892 -0.0900 -0.1830 -0.0970
19435W        W36283  12.396  11.449   2.802  0.2805 -0.1373 -0.1116
19436W        W36284   7.447  16.690   4.664  0.0702 -0.2497 -0.1797
19437W        W36285  16.217  13.387  16.781 -0.0753 -0.0785  0.0521
19438W        W36286   1.152   6.553  13.198  0.0342 -0.1049 -0.1825
19439W        W36287   1.893   0.398   3.317  0.1276 -0.1302 -0.3694
19440W        W36288   3.859  15.514   0.816  0.0998  0.0042  0.3495
19441W        W36289   9.414   6.521  14.582  0.0270  0.1586 -0.2254
19442W        W36290   2.263  12.260   5.884 -0.1458  0.2746 -0.0047
19443W        W36291   1.867  13.227   0.666  0.2492  0.0450 -0.1058
19444W        W36292  14.159  11.752  14.083 -0.4966  0.0444  0.1238
19445W        W36293   7.049   8.163   4.722  0.0544  0.0933 -0.2758
19446W        W36294   6.080   9.472   3.327  0.0949  0.0271 -0.2100
19447W        W36295   5.905  11.486   0.767  0.1555  0.1438  0.1257
19448W        W36296  14.804   8.727  13.734  0.0655 -0.1110 -0.3600
19449W        W36297   9.783  13.043   0.324  0.0620  0.1053 -0.2003
19450W        W36298  16.636   0.857  17.685 -0.1014  0.1812 -0.0783
19451W        W36299  13.681   0.291  14.742 -0.2438  0.1027  0.0809
19452W        W36300  12.124  11.023   1.286 -0.2260 -0.1533 -0.1020
19453W        W36301   3.814  14.701  14.150  0.1689  0.1719 -0.0507
19454W        W36302   6.560  14.601  16.219  0.0260  0.1406  0.0943
19455W        W36303   5.683  15.573   4.244  0.0692 -0.4868 -0.1077
19456W        W36304  10.995   1.028  13.579 -0.0505  0.2745  0.0061
19457W        W36305   2.693   1.634  16.896  0.2903  0.0410 -0.0338
19458W        W36306   4.953  10.589  16.713 -0.0776 -0.2272  0.1348
19459W        W36307   7.565  16.094  17.246 -0.0251 -0.0858 -0.1781
19460W        W36308  11.284   0.782   0.669  0.2374 -0.1450  0.1798
19461W        W36309  11.074  14.010   4.641  0.0516  0.2183 -0.0819
19462W        W36310   4.490   8.648  14.401 -0.0548 -0.0671 -0.0207
19463W        W36311   4.462  13.336   1.988 -0.0585 -0.0578 -0.1306
19464W        W36312   6.129   3.448  16.122 -0.0320 -0.1465 -0.0616
19465W        W36313  16.531   6.831   4.972 -0.0171  0.0674  0.2972
19466W        W36314   2.559   8.338  14.581  0.3731  0.3020  0.2731
19467W        W36315  13.892   7.297   3.937  0.2455  0.0709 -0.1551
19468W        W36316  13.400  10.596  15.412  0.2317 -0.0896 -0.1215
19469W        W36317   1.227   6.756   1.004  0.0949 -0.1795 -0.0017
19470W        W36318  15.407  10.220  16.526 -0.0269 -0.3121 -0.1352
19471W        W36319   8.998  10.531  17.699 -0.1431 -0.3231 -0.0229
19472W        W36320   8.200  14.422   5.213 -0.0596  0.1061 -0.1691
19473W        W36321   7.073   9.401   4.108 -0.2025  0.0291  0.0198
19474W        W36322   9.685   1.646  13.967 -0.1419 -0.0434 -0.1790
19475W        W36323  16.485   4.275   0.787  0.1541  0.6279 -0.1851
19476W        W36324   3.648  12.502  11.753 -0.2342  0.3765  0.1067
19477W        W36325   7.814  10.084   1.026  0.1790  0.3925  0.1751
19478W        W36326  15.219  13.357   1.417  0.0067 -0.5039 -0.2187
19479W        W36327   1.404   9.237   3.677 -0.0472 -0.1161  0.1277
19480W        W36328  13.486  13.649   4.633 -0.0150 -0.0177  0.0812
19481W        W36329   6.111  11.947   0.745  0.2997 -0.0832  0.0748
19482W        W36330   0.782   1.774   3.231  0.2943 -0.1280  0.1637
19483W        W36331   3.826  13.340   0.077  0.3007 -0.0259  0.1461
19484W        W36332   9.841  16.635  17.484 -0.0966  0.0607 -0.1065
19485W        W36333   7.168  16.943   2.716 -0.4436 -0.0348 -0.1124
19486W        W36334   5.685  16.512  17.357  0.4472  0.3841 -0.0776
19487W        W36335   5.824  11.976  15.875 -0.0773  0.1439  0.2411
19488W        W36336   0.178   6.462   2.853 -0.0547 -0.1236  0.0641
19489W        W36337   1.700   4.683   4.731 -0.2624 -0.1323 -0.1312
19490W        W36338  15.797   1.300  15.584  0.2447 -0.0298  0.0758
19491W        W36339   6.896  11.101  14.382 -0.2454  0.0864  0.0924
19492W        W36340   3.254   7.108   3.911  0.0505  0.2065 -0.0015
19493W        W36341   9.768  12.635  12.765 -0.4020  0.3305  0.2118
19494W        W36342   3.595  13.856   0.070 -0.2934 -0.2428 -0.0829
19495W        W36343   8.316  14.862  14.294  0.1028 -0.1542 -0.1404
19496W        W36344   4.498   6.650   5.049 -0.3168  0.0861 -0.2708
19497W        W36345   1.014   5.373   2.899  0.2949 -0.2318  0.1002
19498W        W36346  14.984   3.090  15.415 -0.0395  0.0273 -0.0669
19499W        W36347   1.158   9.098   4.814 -0.0685 -0.1575  0.0255
19500W        W36348  13.092  15.471   0.357 -0.2950  0.0259 -0.2156
19501W        W36349  15.641   5.547  16.769  0.2592  0.2413 -0.0885
19502W        W36350  16.687   2.478   4.840 -0.0500  0.0457  0.0767
19503W        W36351  13.142   1.427  12.345 -0.1044 -0.1123  0.0389
19504W        W36352   3.879   3.793  14.544  0.1412  0.2829  0.0136
19505W        W36353  12.981   4.839   3.061  0.1319  0.0880 -0.1507
19506W        W36354  16.017  11.522  14.464  0.1882 -0.0948  0.2216
19507W        W36355   9.025  15.631   4.299 -0.0786  0.2076 -0.0042
19508W        W36356   6.906  14.978   1.472 -0.3055  0.0141 -0.1126
19509W        W36357   5.787   8.058   5.317  0.2649 -0.1161 -0.3911
19510W        W36358   9.875   0.746   2.083  0.2016  0.1644  0.2948
19511W        W36359  10.669   5.288  15.244  0.0726  0.2341  0.1303
19512W        W36360  16.793  15.720   2.130  0.1086  0.0097  0.0755
19513W        W36361   2.527  12.558  13.244 -0.0434  0.1135  0.0987
19514W        W36362   1.253  16.138   3.873 -0.0263  0.0498 -0.2439
19515W        W36363   1.214   8.202  13.015  0.1889 -0.0153 -0.1569
19516W        W36364   4.741   1.313  17.397  0.0645  0.1305 -0.1140
19517W        W36365   4.204   2.816   1.544 -0.1842 -0.0840  0.1801
19518W        W36366   2.033  10.533  16.265  0.1446 -0.4231  0.0049
19519W        W36367   7.208  13.197  14.779 -0.0401 -0.2615 -0.0559
19520W        W36368   0.262  14.755  14.592 -0.0694  0.1580  0.2316
19521W        W36369   5.418   6.664   5.420 -0.0194 -0.3004 -0.2299
19522W        W36370  11.799  14.457  12.660 -0.1085 -0.0059  0.0812
19523W        W36371  13.205   3.822  13.318 -0.1329  0.1390  0.3399
19524W        W36372   1.421   5.078  15.217  0.1300 -0.2003  0.2276
19525W        W36373   2.381  15.107  13.502  0.0450  0.3409  0.0914
19526W        W36374  13.133  12.311  12.043 -0.2377 -0.0294  0.3154
19527W        W36375  14.891   3.866   1.957 -0.2599 -0.0851  0.1110
19528W        W36376  16.211  13.736  17.144 -0.1445 -0.0407  0.0897
19529W        W36377  15.897   6.920  12.309  0.0416 -0.0422  0.2466
19530W        W36378   7.122   7.712  13.351  0.0267 -0.0623 -0.1479
19531W        W36379   4.244  16.075   1.053  0.1373 -0.0604  0.2767
19532W        W36380  15.004   2.426  16.388 -0.2041 -0.3895 -0.0205
19533W        W36381  11.826  10.775   3.268  0.0423  0.2943  0.3914
19534W        W36382  12.817  14.446  15.112  0.0792 -0.0783  0.2499
19535W        W36383  13.595   0.538  16.356  0.0693 -0.5569  0.2419
19536W        W36384  12.725   1.042   1.777  0.1003  0.1910  0.2556
19537W        W36385   7.821  16.464  16.886 -0.1739  0.0592  0.1656
19538W        W36386  14.773   1.992  11.808 -0.0714 -0.0162  0.0633
19539W        W36387   4.646  13.174   2.406  0.0810 -0.0529 -0.1695
19540W        W36388   5.854  15.299   5.649  0.0303 -0.3285 -0.0740
19541W        W36389   6.243  13.127  13.488 -0.1478 -0.0058  0.2229
19542W        W36390   3.077   8.549  14.313 -0.0688  0.2115  0.0473
19543W        W36391   8.686  12.100  14.319 -0.0324 -0.0840 -0.0073
19544W        W36392   2.813  13.351  13.973 -0.2666 -0.2678  0.0898
19545W        W36393   1.679  11.859   1.189  0.0629 -0.0886  0.1693
19546W        W36394  12.355   9.160  17.504  0.1862 -0.0898 -0.0235
19547W        W36395  11.188  13.401   3.431  0.0455 -0.0785 -0.2663
19548W        W36396   5.239  13.398   1.324  0.0310  0.2718 -0.1743
19549W        W36397   8.041   0.235  16.714  0.0859  0.0516  0.0074
19550W        W36398   3.129  10.261   4.531 -0.1647 -0.1437  0.0488
19551W        W36399   7.483  11.655   4.083 -0.1689 -0.1482  0.0150
19552W        W36400   7.289   9.235  16.715  0.1377 -0.2543  0.1122
19553W        W36401   0.174  14.188   1.467  0.0292 -0.0393 -0.1722
19554W        W36402   4.585  15.307  13.689  0.0058 -0.1647 -0.0147
19555W        W36403   5.522   5.410   2.661 -0.0036  0.1999  0.1332
19556W        W36404   4.022  11.744   3.515 -0.0311  0.0882 -0.0393
19557W        W36405   9.975  14.532   3.495 -0.3020 -0.1517 -0.0086
19558W        W36406   1.026   7.943  15.413 -0.1734 -0.1364  0.2266
19559W        W36407  15.086   5.823   2.590 -0.0181  0.3229  0.1328
19560W        W36408  10.696  11.284   0.724  0.0902  0.1255 -0.1066
19561W        W36409   2.045   2.156   3.330 -0.1514 -0.2445 -0.0523
19562W        W36410   3.614  15.683  13.973 -0.2567 -0.3345  0.2284
19563W        W36411   9.161   6.761  17.475  0.2269  0.1285 -0.1972
19564W        W36412   6.405  10.598   3.134 -0.1586  0.3217  0.3031
19565W        W36413  15.189  12.832  17.287  0.0553  0.0196 -0.0789
19566W        W36414  13.706  13.240  11.126  0.0467 -0.0387  0.0697
19567W        W36415   0.125   2.405   2.674 -0.2708  0.0751 -0.0876
19568W        W36416   2.510  12.463   0.754  0.1896  0.0923  0.1080
19569W        W36417   5.503   8.385  13.460  0.3831  0.0384  0.2494
19570W        W36418   1.165   4.332  15.634 -0.3875  0.2634  0.0708
19571W        W36419  15.389  12.795   3.770  0.2095  0.1006 -0.1697
19572W        W36420   5.821   0.472  15.818 -0.3066 -0.2287  0.3027
19573W        W36421   1.926   0.574   4.220 -0.2347 -0.1168  0.1432
19574W        W36422  13.423   4.042  14.439  0.3620  0.1173  0.1911
19575W        W36423  12.266   5.330   4.049  0.0374  0.0144 -0.3590
19576W        W36424  12.931   1.417  12.812  0.1042  0.0485 -0.1674
19577W        W36425  14.746  11.187   2.026 -0.0421 -0.1134  0.3015
19578W        W36426  13.398  14.138  12.721 -0.2323 -0.0160  0.2091
19579W        W36427   7.907   1.651  14.815 -0.2088 -0.0841  0.0130
19580W        W36428  13.288  15.387  16.173  0.2696 -0.1195 -0.0251
19581W        W36429   7.483  13.600  15.898  0.0501 -0.2633 -0.1852
19582W        W36430   0.484   9.952   5.245 -0.1138 -0.4730 -0.0432
19583W        W36431  11.795   1.834   4.666  0.2093 -0.0214  0.0347
19584W        W36432   1.517   5.983   4.545  0.1462 -0.1182  0.2056
19585W        W36433   3.540   0.676   5.618  0.3037 -0.1524 -0.0045
19586W        W36434  13.354  14.387  12.258 -0.1822  0.1143  0.0301
19587W        W36435   0.651   7.987  15.025  0.1870 -0.2504  0.0122
19588W        W36436  12.972  12.786  14.421 -0.0756 -0.2040 -0.2427
19589W        W36437   4.056  12.820  13.810  0.2892  0.2482  0.0472
19590W        W36438  13.125   3.880  15.160 -0.1649  0.0334 -0.0030
19591W        W36439   2.766  12.015   5.334  0.3208 -0.0661 -0.1464
19592W        W36440  15.436   1.357  16.910  0.1425  0.0593 -0.1239
19593W        W36441   9.577   4.302  13.715 -0.0248  0.1702  0.1361
19594W        W36442  12.974  13.336   1.647 -0.0544  0.0401 -0.3133
19595W        W36443  12.757  14.934   0.989 -0.0051  0.1081 -0.0613
19596W        W36444  17.003   0.682  16.779 -0.0465  0.2424  0.4536
19597W        W36445  11.626   2.721  17.305  0.0371  0.2139 -0.1134
19598W        W36446  12.340  15.685  16.326  0.2895 -0.1744 -0.0902
19599W        W36447  17.017  11.909   0.257 -0.0445  0.2944 -0.1489
19600W        W36448   1.997  15.953   3.672 -0.1599  0.0089 -0.0700
19601W        W36449  10.081   8.015   1.185 -0.4091  0.2416 -0.0417
19602W        W36450  15.928  10.501   5.108 -0.3151  0.0845  0.1319
19603W        W36451   0.096   4.210  14.335 -0.1234 -0.0068 -0.2029
19604W        W36452  11.641  17.019   3.580  0.0967  0.2671  0.0215
19605W        W36453  10.163   6.949  14.205  0.0786 -0.0034  0.0166
19606W        W36454  15.071   1.126   4.983  0.0881  0.4047  0.2764
19607W        W36455   3.052  15.708  13.335  0.1204  0.1594  0.0487
19608W        W36456  10.570   1.587  12.847 -0.0795 -0.0920  0.1357
19609W        W36457   9.133  16.789   2.728 -0.0805  0.2924 -0.0631
19610W        W36458  12.203  11.011  15.926 -0.1251  0.3325 -0.2716
19611W        W36459   2.684  14.190   4.815 -0.4930  0.1411  0.1388
19612W        W36460   6.632  16.328   1.556  0.0738 -0.2469 -0.0810
19613W        W36461  11.360  10.407   4.573  0.1074  0.0607 -0.1783
19614W        W36462   4.222  15.903  17.347  0.2209 -0.2719  0.1777
19615W        W36463   9.215   7.921   4.136 -0.2981  0.1282 -0.2824
19616W        W36464   2.588  16.499   5.257  0.1511 -0.0620  0.0440
19617W        W36465   0.548  13.582  16.128 -0.2328  0.0674 -0.1363
19618W        W36466   4.941   2.769  16.629 -0.1972  0.0305 -0.2181
19619W        W36467   8.284   0.973  17.079 -0.0839 -0.1455 -0.1436
19620W        W36468  10.958   9.341   2.526 -0.0877  0.2773  0.0233
19621W        W36469  13.329   8.751   4.345  0.0855  0.1145 -0.0413
19622W        W36470   8.242   8.399   3.513  0.4118 -0.0707 -0.0561
19623W        W36471   5.403   8.626   1.940  0.2516  0.1098 -0.2884
19624W        W36472  10.819  11.114   5.003  0.0959  0.1354 -0.0997
19625W        W36473  16.938   0.116  16.998 -0.0538  0.0189  0.0700
19626W        W36474   0.991  15.796  14.432 -0.1590  0.1965 -0.2032
19627W        W36475  12.345  16.751  12.563  0.3137 -0.0476 -0.3027
19628W        W36476   5.002   6.076   2.698 -0.3306 -0.2857  0.0625
19629W        W36477  14.080  13.512   1.705  0.0466  0.0567 -0.0813
19630W        W36478   2.846  14.299  14.243 -0.0659 -0.1398 -0.3396
19631W        W36479   6.518  11.362   5.202 -0.1608  0.0790 -0.2861
19632W        W36480  14.560   2.311  14.514 -0.1120 -0.0159  0.2178
19633W        W36481   7.969   1.956   1.645  0.1873 -0.0771  0.1080
19634W        W36482   5.895  12.959   1.336 -0.1487  0.0495  0.1801
19635W        W36483   5.313  11.002  14.831  0.4769 -0.1312 -0.0789
19636W        W36484   8.490   9.182  12.674  0.0695  0.1241  0.0939
19637W        W36485  13.302   6.711   0.917  0.2658 -0.1699 -0.0211
19638W        W36486   9.220  10.705   0.868 -0.0194 -0.2187  0.1917
19639W        W36487  11.201   0.065  17.518 -0.2526 -0.3136  0.0245
19640W        W36488  14.986  11.072  17.189 -0.1462 -0.0507  0.3335
19641W        W36489   7.278  12.420   0.874  0.0583  0.0253 -0.2056
19642W        W36490   8.464  12.988  15.317  0.2435 -0.1206  0.1364
19643W        W36491   0.491   4.951  16.141 -0.3187  0.4475 -0.0600
19644W        W36492  11.204   2.684   1.382 -0.0745 -0.0006 -0.2021
19645W        W36493   2.426   3.606   2.767 -0.0228 -0.0564 -0.1183
19646W        W36494  10.334   4.094   3.276  0.5570  0.1482  0.0890
19647W        W36495   4.454   1.716  17.264  0.0690  0.0101 -0.2633
19648W        W36496   8.321   5.162   0.422  0.2594 -0.0104 -0.0063
19649W        W36497   5.360  14.136   1.646 -0.1290  0.0543  0.1857
19650W        W36498   8.491  16.608  14.455  0.1568 -0.0474  0.2104
19651W        W36499   6.039  12.975   2.248 -0.1902  0.2040 -0.1265
19652W        W36500   9.879   3.639  15.713 -0.1993 -0.1316  0.4529
19653W        W36501   5.997   4.390  12.850  0.2707 -0.2219  0.0797
19654W        W36502   1.862   3.028   6.228  0.0472 -0.0807  0.0697
19655W        W36503  16.897  16.856   5.885 -0.0634  0.0492 -0.0074
19656W        W36504   0.335  12.160   0.034 -0.2441  0.1606 -0.0118
19657W        W36505  11.480   0.760   3.384  0.1842  0.2064  0.2955
19658W        W36506  10.785   7.367   5.438 -0.1765 -0.0294  0.1260
19659W        W36507  10.872   4.406  16.914  0.0550  0.0033  0.1486
19660W        W36508   5.587   4.341  16.124 -0.0105 -0.0933 -0.0766
19661W        W36509  16.414   1.509   2.425  0.2664 -0.1932 -0.0695
19662W        W36510   9.797  10.415   3.235 -0.0235 -0.1954  0.4572
19663W        W36511   1.599  13.653  14.922 -0.2811 -0.0278  0.2328
19664W        W36512  16.814  11.852  14.118 -0.2991 -0.0933 -0.1926
19665W        W36513   8.554   4.760  15.694  0.1603 -0.2437 -0.0883
19666W        W36514  12.358   5.057  15.467 -0.1693 -0.3681 -0.1975
19667W        W36515   3.809  11.114  13.319 -0.3298  0.0865  0.2276
19668W        W36516   1.039   1.296   0.478  0.0303 -0.0225 -0.0111
19669W        W36517  11.702  12.034   2.933  0.1192  0.0705 -0.1403
19670W        W36518  15.008  11.946  12.652  0.1230  0.1055  0.0819
19671W        W36519   0.578   4.558  15.095  0.0227  0.0769  0.1537
19672W        W36520   9.793   7.417   2.109  0.0727 -0.0064  0.2454
19673W        W36521  17.033   5.806  12.921 -0.0541 -0.2257  0.0636
19674W        W36522  16.912  14.638   6.551 -0.0557  0.1413 -0.0971
19675W        W36523   1.504   5.349  17.484  0.0836 -0.0530 -0.0935
19676W        W36524  10.668  16.186   2.483 -0.0848 -0.3457  0.0829
19677W        W36525  10.349   5.460   6.403  0.0410  0.4457 -0.0298
19678W        W36526  14.837   0.352  16.266  0.0149 -0.2826 -0.1290
19679W        W36527   5.463  12.644   0.630  0.1404 -0.0500 -0.0177
19680W        W36528   3.989  10.830  15.248 -0.1171 -0.0328 -0.0451
19681W        W36529  16.957   4.206  16.322  0.0092 -0.2883  0.2829
19682W        W36530  10.009  16.722  16.546  0.0388  0.0785 -0.0932
19683W        W36531  15.060  12.434  15.756  0.2038 -0.1289  0.0125
19684W        W36532   9.719   9.536  15.506  0.0358  0.2680 -0.0777
19685W        W36533  13.949  15.857  16.601 -0.1851 -0.0681 -0.0772
19686W        W36534   2.727   3.872  15.555  0.3203  0.1899 -0.3757
19687W        W36535  15.492   7.243  14.720 -0.1457  0.4559 -0.2482
19688W        W36536   8.442  16.481   4.530  0.1593 -0.0260  0.4548
19689W        W36537  11.772  10.134  17.163 -0.0917 -0.0536  0.2161
19690W        W36538   1.949  13.467   3.334  0.0344  0.5354  0.3402
19691W        W36539   6.293   4.093   1.452  0.0866 -0.0625 -0.1369
19692W        W36540  15.867   9.026  12.227 -0.0337  0.2358 -0.0296
19693W        W36541   8.973   6.381  16.509  0.0423  0.2117 -0.1710
19694W        W36542   5.172   0.796  14.195  0.0964 -0.0683 -0.0908
19695W        W36543   4.028   7.913  14.519  0.1559 -0.0885 -0.1379
19696W        W36544   2.656   8.970   1.549  0.0068 -0.0322  0.2077
19697W        W36545   3.122   6.333  12.241 -0.1768  0.0858 -0.2557
19698W        W36546  12.781  11.749   2.612  0.0263 -0.1427 -0.1000
19699W        W36547   6.217  10.147  16.642  0.0533 -0.2766  0.1545
19700W        W36548   9.787   0.657  16.752 -0.3503 -0.2175  0.0513
19701W        W36549  15.311   2.994   4.632 -0.1368  0.2123 -0.0778
19702W        W36550  10.475   2.158  15.449  0.1640 -0.0766 -0.2746
19703W        W36551   8.119  15.078   3.776  0.3711  0.1971 -0.1165
19704W        W36552  12.614   6.602  12.555 -0.0125  0.0040 -0.0342
19705W        W36553  16.247  11.416   1.769 -0.1326  0.1523 -0.2206
19706W        W36554  12.316   8.582   3.189 -0.1332 -0.1528  0.1391
19707W        W36555  10.653  11.541  12.283  0.0480 -0.2492 -0.0584
19708W        W36556   9.929   5.481   0.757  0.1527 -0.0617  0.0910
19709W        W36557  13.586   1.212   5.304  0.2346  0.0835 -0.2834
19710W        W36558   2.593   6.546   5.341  0.1084  0.1814 -0.2053
19711W        W36559  11.071   4.814  16.598  0.1239  0.0283  0.0154
19712W        W36560  15.221   8.938   3.696  0.0697 -0.0413 -0.3021
19713W        W36561  10.176  14.115  15.414  0.3087  0.0636 -0.3476
19714W        W36562   5.579   3.443  17.723  0.1268 -0.3188  0.2691
19715W        W36563   5.420  15.293   3.936 -0.0573 -0.1914 -0.0892
19716W        W36564   7.305  16.555  15.577  0.1606 -0.0723 -0.1544
19717W        W36565  12.262  15.821   5.105 -0.0257  0.4374  0.2211
19718W        W36566  12.731  16.171  13.770  0.1489 -0.1512 -0.0078
19719W        W36567   5.558   8.834  16.454  0.2077 -0.2041  0.3011
19720W        W36568   2.757  10.938  16.859  0.2723 -0.2176 -0.0368
19721W        W36569   3.612   1.043   1.490 -0.2181 -0.0161  0.0362
19722W        W36570   2.628   7.143  13.729  0.2053  0.0236 -0.2102
19723W        W36571   6.751  11.011  11.653 -0.0863  0.0912 -0.0844
19724W        W36572  12.604   9.770   1.517  0.0080  0.0888  0.0110
19725W        W36573  13.362   9.588   6.400 -0.0502 -0.0549  0.1037
19726W        W36574   6.558  13.718  14.629  0.0638 -0.0487 -0.0827
19727W        W36575  15.395  14.754   2.257  0.2774  0.0696 -0.1496
19728W        W36576   3.968   6.448  15.882 -0.2484  0.1062 -0.1512
19729W        W36577   6.329  14.908   4.920  0.0491 -0.1710  0.0554
19730W        W36578   3.271  10.388  16.808 -0.2863 -0.0034 -0.1426
19731W        W36579   5.505  14.669   0.126  0.1084 -0.1514 -0.0551
19732W        W36580  16.074   7.643  13.446  0.2000  0.3424  0.1742
19733W        W36581  14.444   4.689  15.731 -0.0856  0.3170 -0.0359
19734W        W36582   3.615   6.498   5.432  0.0396 -0.0319 -0.2308
19735W        W36583   2.088  10.902  14.912  0.0818  0.0665  0.2094
19736W        W36584   7.985  10.923  12.908 -0.1560  0.1836  0.0152
19737W        W36585  13.939   5.468  17.364 -0.1231  0.1064  0.0614
19738W        W36586  13.436   6.785   5.942 -0.0379 -0.1953 -0.4495
19739W        W36587   5.512   9.214   2.413 -0.0057 -0.0518 -0.1907
19740W        W36588  10.185   8.257  15.371 -0.1703  0.0912  0.1802
19741W        W36589  16.712   9.196   5.458  0.1120  0.1638  0.6111
19742W        W36590   4.352  10.393   3.298 -0.5266  0.3094 -0.1098
19743W        W36591   1.826   0.119  16.965  0.1769  0.0680 -0.3241
19744W        W36592   2.365   1.720   1.738 -0.1328  0.4155 -0.2440
19745W        W36593   7.824   6.225  14.834  0.1455 -0.0540 -0.1287
19746W        W36594  13.590  10.422  17.044 -0.3207  0.1061  0.0239
19747W        W36595   7.058   3.308  17.433 -0.5756  0.1741 -0.3460
19748W        W36596   0.638   8.361   0.744 -0.1523  0.1566  0.1791
19749W        W36597  13.765   3.108  16.487  0.1626  0.0781 -0.3349
19750W        W36598   8.080   2.397   5.242 -0.2345  0.1092  0.0321
19751W        W36599   0.756  16.298  13.236 -0.1456 -0.0269  0.0624
19752W        W36600   9.436  15.153  16.681 -0.2609 -0.1662 -0.1762
19753W        W36601   1.210   5.807  17.271 -0.1560 -0.0187  0.0078
19754W        W36602   4.900  11.406  16.877 -0.0049 -0.2675 -0.0251
19755W        W36603  13.877  10.244  13.256 -0.0574 -0.0270  0.2468
19756W        W36604   1.695  12.431  14.478 -0.3604 -0.2753 -0.0421
19757W        W36605   9.810   7.720  12.428 -0.1762 -0.1734  0.0550
19758W        W36606  11.669  11.157  12.408  0.2830 -0.2422  0.2865
19759W        W36607   6.064   2.452   1.036 -0.1071 -0.1204  0.2088
19760W        W36608   3.250   5.832   4.239  0.1197  0.1093 -0.1339
19761W        W36609  14.409  15.137  14.798  0.1121 -0.0545 -0.0865
19762W        W36610  15.300  12.471   2.965 -0.0953  0.4336 -0.2203
19763W        W36611   5.130   2.418  13.906  0.0847  0.0594  0.2287
19764W        W36612   7.243   6.914  16.344  0.1862 -0.2608  0.1769
19765W        W36613   0.416   9.796  17.687  0.0207 -0.0096 -0.1068
19766W        W36614  13.714  15.574  12.620  0.2583 -0.3454 -0.0198
19767W        W36615   3.333  14.841  12.935 -0.1325  0.3219  0.1658
19768W        W36616  13.149  15.827  11.030  0.0312 -0.1612  0.0586
19769W        W36617   8.433   6.473   3.698 -0.1374 -0.1518 -0.1394
19770W        W36618   7.936  13.667  13.485 -0.0931  0.0632  0.1078
19771W        W36619  17.033  12.010  17.577 -0.0916 -0.1763 -0.0235
19772W        W36620  12.293  14.545   4.461 -0.0527  0.0330  0.1641
19773W        W36621  16.326   8.535   4.596  0.0281  0.0296 -0.1582
19774W        W36622   0.907  13.964  13.116  0.0059 -0.1686 -0.0772
19775W        W36623   0.145   3.333  17.169 -0.0136 -0.2221 -0.0691
19776W        W36624   5.514   7.570  13.325 -0.2605  0.1256  0.0105
19777W        W36625   0.502  10.567   2.112  0.2337  0.0390  0.2801
19778W        W36626  14.623   5.907  16.108  0.2482  0.1091  0.1356
19779W        W36627   1.538   8.611   0.922 -0.0766 -0.0873  0.1885
19780W        W36628   8.335   3.603   5.090  0.1677 -0.0886  0.1420
19781W        W36629  14.609  10.304   3.854 -0.1422 -0.1330 -0.1623
19782W        W36630   5.086  12.963   4.360  0.1559 -0.0433 -0.1396
19783W        W36631  14.007   2.631  15.745 -0.1363  0.1522  0.1544
19784W        W36632  13.261  13.261  12.719  0.0630 -0.2481 -0.0260
19785W        W36633   8.484  10.193   3.018 -0.0394 -0.0565 -0.0929
19786W        W36634   8.411   5.525  14.980 -0.1919  0.3642 -0.2206
19787W        W36635   4.319   1.744   4.487  0.3158 -0.3914 -0.0025
19788W        W36636  12.558  16.434   3.903  0.1364 -0.0639  0.0376
19789W        W36637   6.024  11.015   1.163 -0.2150 -0.5529  0.0074
19790W        W36638   6.509   5.162  16.951  0.3813 -0.2719  0.1592
19791W        W36639   0.316  13.391   4.116  0.2319 -0.1132  0.0608
19792W        W36640  10.172  12.750  13.611  0.0474  0.1382  0.1113
19793W        W36641   2.236  14.896   4.009  0.0664  0.1154 -0.1854
19794W        W36642   7.508  10.236   2.474  0.1072  0.1920  0.1913
19795W        W36643  11.277  10.492   1.635 -0.0477  0.1670 -0.0036
19796W        W36644   6.995  10.011  16.137  0.0585 -0.0673 -0.1467
19797W        W36645   1.224   7.574   5.338  0.3637 -0.1155 -0.0589
19798W        W36646  15.974   0.158   2.104  0.2882  0.2671  0.1641
19799W        W36647   5.518  15.164  17.213 -0.0806  0.3283 -0.0433
19800W        W36648  12.290   6.759   4.481 -0.1321 -0.1374 -0.0530
19801W        W36649   3.131   6.255  12.954 -0.0898  0.2378 -0.1313
19802W        W36650  11.688   0.705   2.194 -0.1049  0.0079  0.4880
19803W        W36651   9.130  13.571   0.147  0.0917  0.2960  0.1857
19804W        W36652  12.099   1.356  15.006  0.1234 -0.0089 -0.1050
19805W        W36653  13.176   0.328   4.280 -0.0076  0.0524  0.0115
19806W        W36654   8.921  10.084  13.730 -0.0400 -0.0413 -0.1714
19807W        W36655   7.060   5.171   1.937 -0.0265  0.2645 -0.1780
19808W        W36656   3.578  12.409   5.261  0.1067 -0.0247  0.2028
19809W        W36657   1.859  16.822   4.643 -0.2408  0.0760 -0.2987
19810W        W36658   8.756   4.364   2.370 -0.2304 -0.1698  0.0345
19811W        W36659   9.054   4.981  12.488  0.0971 -0.3516  0.0629
19812W        W36660  10.015  12.228  14.292  0.0713  0.1804  0.1506
19813W        W36661   1.056  12.770  15.702  0.1964  0.1288  0.0082
19814W        W36662  16.340  13.500   4.157 -0.0313 -0.0819  0.1365
19815W        W36663   5.631  15.582  16.952  0.1214 -0.0764 -0.3428
19816W        W36664  17.042  16.203  15.659 -0.0890  0.2891 -0.0588
19817W        W36665   7.285   1.379  12.397  0.1445  0.2037 -0.0245
19818W        W36666  15.567  13.275  15.966  0.0658 -0.2199  0.0878
19819W        W36667   9.484  14.473  13.400 -0.1126  0.0765  0.1859
19820W        W36668  13.783  15.936   4.489 -0.1432 -0.0205 -0.1563
19821W        W36669   2.759  13.711  15.309 -0.1575 -0.1757  0.2957
19822W        W36670  11.679  13.297   4.581 -0.0822 -0.1312 -0.1443
19823W        W36671   2.129  15.248  12.492 -0.2434  0.1311  0.3951
19824W        W36672   2.992   2.861  17.147 -0.0276 -0.0444  0.0701
19825W        W36673  15.502  14.475  12.638 -0.1874  0.0127 -0.0565
19826W        W36674  12.655  12.662  16.192  0.1157  0.2344 -0.1869
19827W        W36675   7.685   4.128   2.525  0.3122  0.0923 -0.1309
19828W        W36676  10.555   7.505   2.577 -0.1273  0.0296  0.1041
19829W        W36677  16.581  13.878  14.846 -0.0145 -0.1538 -0.4071
19830W        W36678   9.952   6.491   5.659  0.0202 -0.0848 -0.3056
19831W        W36679   9.624   2.325   1.528 -0.2350 -0.0691 -0.0673
19832W        W36680   1.816  13.519  12.693 -0.0884  0.1210 -0.0473
19833W        W36681  10.497   9.945   4.745  0.0331  0.0508 -0.1068
19834W        W36682  13.001  16.715  17.130  0.0812  0.3166 -0.0679
19835W        W36683   5.817   8.348   1.158 -0.1044  0.0300  0.1532
19836W        W36684  11.070  12.405  14.509 -0.0980 -0.1289  0.1509
19837W        W36685   3.219  14.181  15.068  0.0125  0.0434  0.2146
19838W        W36686   2.671   1.539  12.827 -0.0670 -0.3584  0.0814
19839W        W36687  12.817   8.273  17.118 -0.3464 -0.2364  0.0776
19840W        W36688  16.195  11.096   2.710 -0.2770 -0.1239  0.2300
19841W        W36689  13.738  10.927   0.088 -0.0786 -0.3808 -0.3003
19842W        W36690   5.211   7.939   2.214 -0.0998 -0.1205  0.1259
19843W        W36691   1.099   3.523  15.919  0.0000  0.0172  0.2602
19844W        W36692   5.883   5.777   0.093 -0.1586  0.1461  0.1220
19845W        W36693   9.541  15.920  13.851 -0.3818  0.1015  0.0134
19846W        W36694   2.478   0.793   0.881  0.0699 -0.0531 -0.0969
19847W        W36695  14.650   0.075  13.432 -0.0322 -0.2753  0.1478
19848W        W36696  10.252  15.330   4.335 -0.1199 -0.0025  0.1760
19849W        W36697  11.569   6.490  13.333 -0.1252  0.1464 -0.2179
19850W        W36698  14.802   1.495  12.582 -0.1698  0.0557  0.1292
19851W        W36699  14.655   6.685  14.781 -0.0944 -0.1563 -0.1008
19852W        W36700  15.077   8.385   6.310  0.1544 -0.1268 -0.0178
19853W        W36701  15.458   2.233  14.075  0.1318  0.1889  0.3449
19854W        W36702   0.383  11.605  14.738  0.2526 -0.3534 -0.1500
19855W        W36703   6.067   8.678  12.957  0.0890 -0.2197 -0.0123
19856W        W36704   8.151  12.713   3.250 -0.2665 -0.1703  0.1784
19857W        W36705   7.467   9.392   0.248  0.0102 -0.1379 -0.0310
19858W        W36706   6.197   0.734  13.213 -0.0684  0.1372  0.0015
19859W        W36707  12.258   9.136   3.835  0.1577 -0.0346  0.1308
19860W        W36708  11.461   4.747  14.937 -0.0248  0.1255 -0.0786
19861W        W36709  11.733   5.644   3.165  0.0994  0.1064 -0.3581
19862W        W36710  12.997  14.568  11.982 -0.0315 -0.0860  0.0309
19863W        W36711  11.376   7.431  15.525 -0.1561 -0.0762  0.1794
19864W        W36712  12.728   0.121   0.977 -0.1272 -0.3270 -0.1543
19865W        W36713   8.563   4.261  15.693 -0.1315  0.0955 -0.2151
19866W        W36714  11.375   7.070   3.736  0.2006 -0.1787 -0.1449
19867W        W36715   0.315   4.191  16.550 -0.0139 -0.0132 -0.3349
19868W        W36716  11.060   2.752  11.001  0.2076  0.1545  0.1686
19869W        W36717  12.511  15.648   3.782 -0.2684  0.0491 -0.0828
19870W        W36718   9.041   4.464  17.413 -0.2757  0.1234 -0.0958
19871W        W36719   3.235  14.626   0.894  0.0653 -0.0607  0.4750
19872W        W36720  10.489  12.385  16.577 -0.0302  0.3856 -0.0755
19873W        W36721   3.665  11.628   3.146  0.3392  0.2746 -0.1022
19874W        W36722   4.824   2.367  12.951  0.0421  0.0878 -0.0732
19875W        W36723  12.004  10.606  16.175  0.0730  0.0024  0.1925
19876W        W36724   7.824   2.517  17.732  0.0743 -0.0572  0.1686
19877W        W36725  12.181   2.204   2.463 -0.0097 -0.0629  0.1585
19878W        W36726   6.821   3.716  13.875  0.2429 -0.2090  0.0434
19879W        W36727   0.156  10.959   0.513  0.1336 -0.0657  0.2507
19880W        W36728   1.843  10.759   0.938  0.2613 -0.2041  0.1278
19881W        W36729  14.218   8.063   0.440  0.0044 -0.1976 -0.0146
19882W        W36730  16.857   0.587  13.108  0.0252 -0.0265  0.1724
19883W        W36731   6.408  16.842   5.408  0.2312  0.2679 -0.5021
19884W        W36732   3.552   9.588   5.767  0.1158  0.3265  0.0998
19885W        W36733   1.769  13.901   1.427 -0.0653 -0.1379 -0.0681
19886W        W36734   2.772  12.577  15.566 -0.1305  0.1122  0.0842
19887W        W36735   4.187   0.711  14.410 -0.3339 -0.3230 -0.0899
19888W        W36736  16.593   0.320   3.063 -0.1348  0.0193  0.2552
19889W        W36737   0.539   2.392   1.123  0.3393  0.0374  0.3612
19890W        W36738   5.160   6.480  13.553 -0.3343 -0.4064 -0.0110
19891W        W36739  12.508   8.950   1.889  0.1331 -0.0928  0.0512
19892W        W36740  12.248   2.189   0.050 -0.1767 -0.0164  0.2875
19893W        W36741   4.055   5.486   2.765  0.2759 -0.0721 -0.0112
19894W        W36742  10.011   7.074   3.296 -0.1478 -0.1823 -0.0100
19895W        W36743   9.081  14.154  13.698  0.0703 -0.1950 -0.1266
19896W        W36744   5.648   4.572   2.119  0.0017 -0.1041 -0.1272
19897W        W36745  17.027  13.483  16.386  0.0456  0.2166  0.2367
19898W        W36746  16.297   2.114   1.042  0.0169  0.2020  0.0361
19899W        W36747   5.779  14.252   0.109 -0.1041  0.0985  0.1281
19900W        W36748   9.728   0.572  14.046 -0.0300 -0.1115 -0.0869
19901W        W36749   2.314  16.438  15.240  0.0032  0.2464 -0.1611
19902W        W36750  14.806  17.012  16.908 -0.0800  0.1342  0.1146
19903W        W36751   0.876   6.088  17.606  0.2298  0.1752  0.1290
19904W        W36752   0.511   4.403   2.311  0.2125 -0.0465  0.0266
19905W        W36753   8.765  14.149   1.813  0.0387 -0.0011 -0.2262
19906W        W36754  11.842  16.927   4.039  0.1814 -0.1908  0.1255
19907W        W36755  16.738   0.834  15.245  0.1230 -0.1064  0.0122
19908W        W36756  12.509  12.254  15.895  0.2208  0.3241  0.0486
19909W        W36757  13.977  11.332   5.706  0.0339  0.1469  0.0021
19910W        W36758   8.121   6.737  12.320 -0.0574 -0.1724  0.0614
19911W        W36759   4.578  10.512  12.777 -0.1291  0.2375 -0.1959
19912W        W36760   5.958  12.364   0.494 -0.0937  0.3743 -0.2096
19913W        W36761   9.504  10.029  14.235 -0.4116  0.0357  0.1679
19914W        W36762   2.741  15.499  14.137 -0.1085  0.4733  0.1177
19915W        W36763   3.089   3.213   0.008 -0.0667  0.1126  0.0805
19916W        W36764  13.111   6.210   0.210  0.1235  0.3072  0.1036
19917W        W36765   9.887   1.915  15.356 -0.1727 -0.0768  0.3415
19918W        W36766  14.507   2.340  12.144 -0.0556  0.2839 -0.0475
19919W        W36767   3.323   2.161   3.378 -0.3218  0.1752  0.0034
19920W        W36768  11.072   1.723   4.867  0.4053 -0.1951  0.0588
19921W        W36769   6.383   7.675  14.660  0.2352  0.0786 -0.1753
19922W        W36770  12.423  16.813   5.880  0.3248  0.1387 -0.3158
19923W        W36771  11.897  14.519   4.849 -0.1927 -0.0124 -0.1211
19924W        W36772   3.111   5.347   3.682  0.0024  0.0384 -0.0012
19925W        W36773  16.636  13.610  16.738  0.3207  0.1767 -0.1611
19926W        W36774   5.842   9.354   4.162 -0.0376 -0.1794 -0.0723
19927W        W36775  14.113  15.775   5.425  0.1090 -0.2174 -0.0299
19928W        W36776   4.457  13.498  16.145 -0.0756 -0.1618  0.1167
19929W        W36777  16.164   7.129  17.744 -0.0378  0.0801 -0.0629
19930W        W36778  15.756   9.537  16.000 -0.2070  0.2157 -0.1489
19931W        W36779  14.211  16.838   3.567 -0.1451  0.0835  0.1827
19932W        W36780   2.251  13.808  14.153  0.0577 -0.0414  0.1069
19933W        W36781   6.584   3.130   6.203  0.1030 -0.0514 -0.2595
19934W        W36782   4.477  13.660   0.120 -0.0123 -0.2529 -0.0806
19935W        W36783  13.415   6.227  16.425 -0.2897 -0.1376  0.2007
19936W        W36784   7.210  16.868   4.304 -0.2240 -0.1505  0.1776
19937W        W36785  15.137   7.020  15.071 -0.0409  0.0370  0.1828
19938W        W36786   9.476  16.611  14.851  0.0764  0.0868 -0.0966
19939W        W36787   2.412   2.194   6.155 -0.1887 -0.0676  0.2722
19940W        W36788   5.124   1.962  14.192 -0.2832 -0.1302 -0.0954
19941W        W36789  10.931  10.885   3.320 -0.1542 -0.0036  0.1357
19942W        W36790  12.334   0.450  12.132 -0.0066  0.5043 -0.0736
19943W        W36791   2.198  14.444   5.727  0.0440  0.0231 -0.0190
19944W        W36792  10.297  15.344  12.143  0.0445  0.1342  0.0434
19945W        W36793  14.896  13.757   1.556  0.0193 -0.1989 -0.0239
19946W        W36794  11.700  11.816  16.754 -0.1778  0.1209 -0.0695
19947W        W36795  13.524   4.864   1.376 -0.1561  0.0356  0.2704
19948W        W36796   4.507   4.291   2.377  0.0543  0.0781 -0.0840
19949W        W36797   2.951  11.481   2.233 -0.1825  0.0615  0.0012
19950W        W36798   8.703  13.494  12.476  0.0967  0.2312  0.1572
19951W        W36799   5.527  13.256   3.600  0.0334 -0.1156 -0.0317
19952W        W36800  13.181   6.787  16.838  0.1909  0.1748 -0.1320
19953W        W36801   4.812   2.334   0.022  0.0197 -0.0083 -0.4961
19954W        W36802   2.219   3.841   4.144  0.3293 -0.1009 -0.4456
19955W        W36803  13.172   3.501  13.677  0.3076  0.1794 -0.3637
19956W        W36804  10.602  13.354  11.772  0.3482  0.0537  0.0479
19957W        W36805  10.951  16.268  13.954  0.0001  0.1064 -0.2475
19958W        W36806  13.311   3.658   5.406  0.0456 -0.0966 -0.3668
19959W        W36807   2.800  11.273   5.345  0.3068 -0.2381 -0.1500
19960W        W36808  16.110  14.463   2.484  0.0681  0.1508 -0.1736
19961W        W36809   5.975   2.386   0.517  0.0669 -0.0671 -0.1759
19962W        W36810   9.782  14.654   0.702  0.0876 -0.0459 -0.3403
19963W        W36811  14.072   8.543  12.967  0.1007 -0.1834 -0.0976
19964W        W36812   8.674   0.895  16.790 -0.0414 -0.0320  0.1757
19965W        W36813   3.966   8.255  17.586 -0.0863 -0.0256 -0.1699
19966W        W36814   4.095   9.058   4.196  0.0411 -0.1341  0.2700
19967W        W36815   6.049  12.579  15.213 -0.1484  0.1245  0.2410
19968W        W36816  11.521   0.154   4.251  0.0765  0.0473 -0.0096
19969W        W36817   6.321   9.521   4.293  0.1262 -0.2462 -0.0970
19970W        W36818  13.177   4.989  15.392 -0.0011  0.1777 -0.3757
19971W        W36819  16.934   1.231   0.099 -0.0435 -0.0027  0.1657
19972W        W36820   3.019   2.083  13.913  0.0523  0.1868 -0.2592
19973W        W36821   9.183   8.401   4.569 -0.0929 -0.0329 -0.2143
19974W        W36822   3.349   7.922   0.057 -0.1566  0.2699 -0.0172
19975W        W36823   5.999   7.278  11.968 -0.0430 -0.1481  0.1276
19976W        W36824   8.332  15.559   4.343 -0.2482 -0.1787 -0.4583
19977W        W36825  12.238  13.560  13.541 -0.2749  0.2524 -0.2757
19978W        W36826  11.586   4.827  17.494  0.1162 -0.1809  0.2693
19979W        W36827  13.469   6.782  15.424 -0.0605  0.0522  0.0817
19980W        W36828   5.988   1.064  12.220 -0.3513  0.0823 -0.4996
19981W        W36829  11.175   7.122  17.410 -0.0634  0.2483 -0.1297
19982W        W36830   8.713   1.092   5.304  0.1033 -0.0622 -0.0140
19983W        W36831   8.264   2.118  15.745  0.0626  0.1950 -0.1602
19984W        W36832  10.400  12.274  15.644  0.2137  0.3333 -0.1257
19985W        W36833   7.814   3.627  13.420  0.1430  0.2204  0.0177
19986W        W36834   9.948  10.467   5.266  0.2063  0.1023 -0.0107
19987W        W36835  12.064  13.092   1.658 -0.1650  0.1182 -0.1334
19988W        W36836  16.483  16.713  15.485  0.1250  0.1906  0.0029
19989W        W36837   5.555  10.672  15.250  0.0756  0.0528  0.0904
19990W        W36838   6.877   2.073  12.899 -0.0355  0.0801 -0.1497
19991W        W36839   1.220   5.141   5.985 -0.1661  0.0270 -0.0024
19992W        W36840  13.072   0.129  16.862 -0.1906  0.0305 -0.0459
19993W        W36841   8.707   4.854  16.577  0.0696  0.1053 -0.1127
19994W        W36842   3.074   0.166  13.396 -0.1147  0.2831 -0.1523
19995W        W36843  11.657   2.056  13.927 -0.1431  0.1084 -0.1341
19996W        W36844   7.477   5.018   5.229 -0.1981 -0.5611  0.0678
19997W        W36845   4.655   2.146   0.529 -0.1934  0.1776 -0.2657
19998W        W36846   2.133  13.406  11.323 -0.1526 -0.0120  0.2451
19999W        W36847  14.854   0.465  12.257  0.1574 -0.1998  0.1032
20000W        W36848   9.491  16.616  13.216 -0.0904  0.2484  0.2631
20001W        W36849   9.665   3.676   2.887  0.0157  0.0169  0.1115
20002W        W36850   7.995  13.602  15.584  0.0575 -0.0066 -0.1773
20003W        W36851   1.759   2.025  16.871  0.0548 -0.0823 -0.0141
20004W        W36852   4.591  13.295  14.161 -0.1963  0.1959  0.1288
20005W        W36853  15.229   0.507   2.798  0.0635 -0.0077  0.0262
20006W        W36854   0.997  16.516  17.596 -0.0979  0.1205  0.3221
20007W        W36855  11.725   1.232  12.018  0.3122 -0.0105 -0.0356
20008W        W36856  15.097  12.886   0.699 -0.1576  0.3086 -0.1536
20009W        W36857   6.775  11.767  17.366 -0.0937 -0.0379  0.2352
20010W        W36858   8.743   8.014  15.574 -0.1316  0.1117  0.0348
20011W        W36859   5.973   6.164   2.275  0.0425 -0.1260 -0.2014
20012W        W36860   9.003   5.724   3.282  0.0106  0.0649 -0.2890
20013W        W36861   2.463   2.970   4.830 -0.0149 -0.0092  0.0149
20014W        W36862   9.486  12.758   5.392  0.1249  0.1065 -0.1616
20015W        W36863   9.989   8.282  13.227  0.1917  0.3115  0.1940
20016W        W36864   0.280  14.733  16.460  0.2255 -0.0809  0.0013
20017W        W36865  15.723  13.735  17.224 -0.1155 -0.0917  0.0231
20018W        W36866  16.514   1.156   2.835 -0.0100 -0.2428  0.0169
20019W        W36867  14.810   7.537   4.791 -0.0961  0.2752  0.3019
20020W        W36868  11.456  10.602   2.298  0.4194  0.2732 -0.1564
20021W        W36869   3.274   9.359   2.130  0.2615 -0.1214 -0.2822
20022W        W36870   3.660  15.071  15.585  0.1580  0.1178  0.0550
20023W        W36871   1.384   9.287  15.161  0.1059  0.1448  0.1307
20024W        W36872   7.932  15.657  14.561  0.0300 -0.1590  0.1100
20025W        W36873   6.138   9.151   6.292 -0.0857  0.0047 -0.0431
20026W        W36874  14.248  11.111   3.290  0.0741 -0.0822 -0.0899
20027W        W36875   9.281  10.404  13.898  0.0607  0.2880  0.2303
20028W        W36876   2.333   4.270  16.363 -0.0461  0.0812 -0.0220
20029W        W36877   5.593  17.063   5.416  0.4374  0.0786 -0.1338
20030W        W36878   1.755  12.611  12.239  0.0586 -0.1877 -0.1862
20031W        W36879   3.784   1.714  13.718 -0.1719  0.0804  0.0893
20032W        W36880   2.963   0.748   0.837 -0.0195 -0.1712  0.1073
20033W        W36881  14.141   6.765  14.534 -0.2848  0.1553 -0.0774
20034W        W36882   4.540   6.438  15.631 -0.2555  0.0399  0.1051
20035W        W36883   3.199  10.066   5.081  0.1195  0.1952 -0.1774
20036W        W36884   0.008   2.414  16.840 -0.3505 -0.1430  0.1572
20037W        W36885  13.015   6.145   4.805  0.0272  0.3573 -0.0439
20038W        W36886   9.153   9.489  12.563 -0.0828  0.2327  0.0759
20039W        W36887  12.801   5.675  12.569 -0.1532  0.1368  0.0459
20040W        W36888  11.155   6.587  14.998 -0.0403 -0.1472 -0.3712
20041W        W36889   9.047  11.914   0.573 -0.0081  0.1236  0.0922
20042W        W36890   0.121  13.910  16.072 -0.1577  0.1369 -0.2099
20043W        W36891   7.946  14.969  13.270  0.0015  0.1794 -0.3815
20044W        W36892   5.753  10.946  12.740 -0.1868  0.1247 -0.1978
20045W        W36893  11.803  15.350  17.486  0.4465 -0.2105  0.2963
20046W        W36894  13.046  13.466  15.136  0.0836  0.1113  0.1328
20047W        W36895  10.050  16.347  14.464 -0.2488  0.2276  0.1883
20048W        W36896  11.719  16.973  17.464  0.0864 -0.0862  0.0387
20049W        W36897  10.641  11.588  14.334 -0.2205 -0.5857  0.1938
20050W        W36898  15.541   8.281   0.138  0.1817  0.2338 -0.2644
20051W        W36899  11.362   1.650  14.861  0.0416 -0.0506  0.0244
20052W        W36900   3.000   7.074   4.772  0.1136  0.0401 -0.0011
20053W        W36901  10.450  12.848   3.430  0.2016  0.0678 -0.0781
20054W        W36902   1.830   8.823  17.490 -0.3096  0.0842  0.2230
20055W        W36903   4.396  11.933   3.787  0.0849  0.0054 -0.0236
20056W        W36904   4.779  13.275   0.479  0.3415  0.0082 -0.0482
20057W        W36905   1.292   9.225   4.222  0.1589 -0.2305 -0.1635
20058W        W36906  14.420  12.033  14.387 -0.3428  0.0264 -0.1739
20059W        W36907   6.426   7.597  15.325  0.0634  0.0768 -0.1419
20060W        W36908   5.454   1.750  12.674 -0.1599  0.0614  0.2432
20061W        W36909  12.651   9.489  15.874  0.2165  0.1641  0.2197
20062W        W36910   0.051   5.231  17.289 -0.0818 -0.0470  0.2443
20063W        W36911   2.002  14.469   6.512  0.0148 -0.1223 -0.1135
20064W        W36912  14.075   9.704  13.987 -0.0819 -0.1932  0.1173
20065W        W36913   5.919   6.135   0.548 -0.1906  0.2564 -0.1551
20066W        W36914  11.018  10.776  16.480 -0.1860  0.2981  0.0222
20067W        W36915  13.364   6.291  13.662 -0.3025 -0.1300 -0.0538
20068W        W36916   0.523  13.771   1.399 -0.2723 -0.2816 -0.1712
20069W        W36917   0.292  13.851   1.860  0.2704  0.2065  0.0603
20070W        W36918   6.591   3.630  12.017  0.0773 -0.0312  0.0322
20071W        W36919   6.440  13.432  15.443 -0.2501  0.0023  0.4209
20072W        W36920   5.550  15.208  12.565 -0.1444 -0.0909  0.0201
20073W        W36921   5.231  15.874  16.065  0.0738  0.0701  0.0734
20074W        W36922   8.903   6.954  13.533  0.2983 -0.0248  0.1005
20075W        W36923   0.701   1.180  11.958  0.1283 -0.0474  0.0258
20076W        W36924   3.058   7.340   1.825 -0.1053  0.1754  0.0100
20077W        W36925  14.787  13.543  17.846 -0.0990 -0.0412 -0.0838
20078W        W36926  13.376   8.020   3.729 -0.0990 -0.1144 -0.0901
20079W        W36927   8.948  14.846   3.672  0.1362  0.1244 -0.1438
20080W        W36928  13.601   9.560   4.844 -0.1860  0.1106 -0.0041
20081W        W36929   4.038  13.100  14.326 -0.1133 -0.0630  0.1382
20082W        W36930   7.366  11.949   3.603 -0.0090 -0.0469 -0.0909
20083W        W36931  12.684   1.233   1.247  0.2201  0.0515  0.1580
20084W        W36932   7.791  16.701   5.712  0.0745 -0.0327  0.1372
20085W        W36933   8.609  13.104   5.364  0.0370 -0.2336  0.0152
20086W        W36934  14.374   4.597  15.232 -0.2430  0.0210  0.3688
20087W        W36935   0.828   8.887  13.897 -0.1426 -0.0015 -0.0541
20088W        W36936   1.666   7.211  16.073  0.0096 -0.0869 -0.3176
20089W        W36937   7.603   2.465  12.893  0.4750 -0.0866 -0.3401
20090W        W36938   0.803   6.419  14.206  0.2357 -0.2309  0.0975
20091W        W36939  11.519   8.803   4.395 -0.0397 -0.0306  0.0065
20092W        W36940   7.077   9.872   4.357 -0.1653 -0.0928 -0.2059
20093W        W36941  12.120   6.231  12.326 -0.0159  0.0684 -0.0887
20094W        W36942   9.521   6.707   5.886  0.1068  0.2619  0.1562
20095W        W36943  11.428  14.577   3.847  0.0506 -0.1432  0.1175
20096W        W36944   3.288  12.919   1.237  0.1423  0.2224  0.0275
20097W        W36945   8.668   9.213   4.601  0.2148  0.1518  0.1725
20098W        W36946   2.342   5.557   5.494 -0.0571 -0.1251  0.1034
20099W        W36947   6.813   6.806   4.455  0.0139  0.2821 -0.1012
20100W        W36948   0.368  11.384   5.082 -0.0298  0.1602 -0.0703
20101W        W36949   6.521   2.562   3.486  0.1187  0.1786 -0.2916
20102W        W36950  15.673   3.364  15.474 -0.0275  0.0618 -0.4463
20103W        W36951   2.045   8.823   3.005  0.1039  0.1280 -0.0795
20104W        W36952  14.765  10.103  12.547  0.2038  0.1084  0.0857
20105W        W36953   1.737  14.935   2.081  0.0813 -0.0595 -0.1825
20106W        W36954  15.841   9.628   1.203  0.0633 -0.1947  0.0851
20107W        W36955   9.233  11.586   2.200 -0.0813  0.0551 -0.0603
20108W        W36956   9.058   3.304  13.180 -0.1483 -0.0636  0.2351
20109W        W36957  12.819   6.559   5.309 -0.0090 -0.0988 -0.2299
20110W        W36958   8.935   8.333  14.364  0.1644 -0.0313 -0.2058
20111W        W36959  17.012   2.603  12.861 -0.0905 -0.1737  0.2546
20112W        W36960   4.388  11.707   1.077 -0.0465 -0.1094  0.2191
20113W        W36961  15.717  14.069   2.929 -0.2691  0.1005 -0.0361
20114W        W36962   3.770  16.340   3.116 -0.0969 -0.2050 -0.1147
20115W        W36963  16.283  12.303  12.440 -0.4096  0.3031  0.1813
20116W        W36964  16.541   2.589   5.413 -0.0039  0.1076  0.0275
20117W        W36965  10.246   3.722   5.449 -0.0113 -0.0072  0.2840
20118W        W36966   0.557   5.642   4.998 -0.1455  0.0515  0.0697
20119W        W36967   5.130   7.404  16.013 -0.0409  0.3277 -0.3152
20120W        W36968   9.745   9.813   1.819  0.1126  0.1290 -0.0391
20121W        W36969   3.055   7.906   5.793 -0.1628 -0.0915 -0.3677
20122W        W36970   8.597   5.578  15.832 -0.0431  0.2172 -0.2251
20123W        W36971   7.662   1.663  12.444 -0.2334 -0.0984  0.1070
20124W        W36972   3.225  10.934   0.259  0.0103 -0.0615 -0.0435
20125W        W36973   7.811   7.732   4.516  0.1825  0.1548  0.0595
20126W        W36974   7.824  16.686  12.981 -0.0738 -0.0974 -0.0733
20127W        W36975   7.958   0.883  15.468 -0.1824  0.3098  0.0433
20128W        W36976   4.166   5.631  12.963 -0.0117  0.3873  0.0018
20129W        W36977   7.786  11.827  17.021  0.3154  0.0658  0.1015
20130W        W36978  16.608  16.102   2.549 -0.1100 -0.3490  0.1245
20131W        W36979   0.067  11.808   1.843  0.0855 -0.0681 -0.0147
20132W        W36980   6.040   2.680   2.401 -0.0103  0.0494 -0.0165
20133W        W36981   6.696   2.386  17.636 -0.2014 -0.0513 -0.1263
20134W        W36982   6.518   2.943   3.835 -0.5651  0.1813  0.2434
20135W        W36983   0.758  10.528  12.879 -0.2282  0.3161  0.1402
20136W        W36984   4.673   7.462  16.185  0.2052  0.0899  0.0106
20137W        W36985  14.103   9.113   5.483  0.0448 -0.0873 -0.1386
20138W        W36986   1.648   7.780  17.819 -0.1356  0.0732 -0.0006
20139W        W36987   9.759   1.899  16.222 -0.0012 -0.0518 -0.1943
20140W        W36988   8.720   0.872  17.280 -0.0242  0.0168 -0.0555
20141W        W36989   8.137  10.436   1.900  0.0996  0.1220 -0.5045
20142W        W36990   2.744  16.862   2.553  0.0378  0.2150  0.4352
20143W        W36991   4.591   1.751  16.694 -0.3328 -0.1342  0.2716
20144W        W36992   4.180  14.069   2.683 -0.3413  0.1904 -0.0301
20145W        W36993   9.114   5.677  13.224 -0.0063 -0.1923  0.0596
20146W        W36994   2.392   7.281  13.292 -0.0556 -0.0023 -0.0415
20147W        W36995  16.879   7.874  14.081 -0.4007 -0.0168 -0.0250
20148W        W36996   0.539  15.076   3.195  0.2962  0.3254 -0.0537
20149W        W36997   8.089  10.465  14.003 -0.3193  0.4631  0.1930
20150W        W36998   4.668   9.377  16.187  0.1623  0.1679  0.1261
20151W        W36999  14.026   5.002  16.163 -0.0409  0.1147 -0.3787
20152W        W37000   6.104   3.227  13.254  0.1156 -0.1748  0.0592
20153W        W37001   8.197  15.578  13.594 -0.2358  0.2280  0.0699
20154W        W37002   2.506   0.151  15.703 -0.0549 -0.0869 -0.1706
20155W        W37003   5.409   9.245   0.220 -0.0171  0.1265 -0.0733
20156W        W37004  16.216   2.014   0.100  0.3090 -0.1098 -0.1277
20157W        W37005  15.425  15.573  16.070 -0.2099 -0.2652 -0.0977
20158W        W37006   2.403  12.134  15.037 -0.1869 -0.2617 -0.0164
20159W        W37007   8.190   0.189   1.460 -0.2059 -0.1323  0.0656
20160W        W37008   6.455   6.751   2.935  0.1212  0.2211  0.2348
20161W        W37009  12.530   1.035   4.391  0.1575  0.1514 -0.1304
20162W        W37010  15.661  15.487   3.307  0.0240  0.1598 -0.2462
20163W        W37011   7.584   3.856  13.816 -0.3241 -0.0883  0.2426
20164W        W37012  12.591  12.855   4.678 -0.0932  0.0004  0.0118
20165W        W37013  12.324   5.867  15.982 -0.5993 -0.3553 -0.1911
20166W        W37014  16.984  11.893   5.668  0.0345 -0.1191  0.1870
20167W        W37015   6.919   7.850  17.782 -0.0572  0.0155 -0.0055
20168W        W37016   9.508   5.607   5.314 -0.0880  0.3389 -0.1682
20169W        W37017   9.684  12.142   4.110 -0.2102  0.3067 -0.0204
20170W        W37018   9.351  16.226   4.968  0.1220  0.0826  0.0598
20171W        W37019  14.978  14.964  15.476  0.1911 -0.4725  0.0196
20172W        W37020   4.048   1.744  17.740  0.1792 -0.2397  0.2587
20173W        W37021  13.697   3.386   2.668 -0.0128 -0.1471  0.0654
20174W        W37022   0.123   5.749   4.318 -0.3407  0.0314 -0.0309
20175W        W37023   4.531  12.281  13.122 -0.3197 -0.0031 -0.0949
20176W        W37024   0.972   8.097   3.404  0.3588  0.1510  0.1361
20177W        W37025  10.012  15.740  17.598  0.3527  0.0715  0.0462
20178W        W37026  10.441   7.874  13.602 -0.0484  0.1932 -0.1493
20179W        W37027  12.942   5.331   1.731 -0.0750  0.1802 -0.1020
20180W        W37028  14.064   9.287   2.370 -0.4601  0.0073 -0.0275
20181W        W37029   9.736   4.425   4.114 -0.0680  0.1026 -0.1070
20182W        W37030   6.697   3.847   1.297 -0.0684  0.0148 -0.2654
20183W        W37031   1.582  16.737  13.851  0.1813  0.2205  0.0430
20184W        W37032   2.594  14.542   2.758 -0.1933  0.1316 -0.1581
20185W        W37033   9.890   4.560  16.793 -0.0007  0.0281 -0.1344
20186W        W37034  12.441  15.333  13.229  0.0293  0.0736 -0.0055
20187W        W37035   6.416  16.150  15.344  0.1063 -0.1403 -0.0635
20188W        W37036  15.418   4.539   3.876 -0.1877  0.1921 -0.0876
20189W        W37037   2.985   9.900   1.750 -0.2206 -0.0811  0.0446
20190W        W37038  11.133   7.955  14.736 -0.2279  0.1510  0.3664
20191W        W37039   4.957   9.392   2.245  0.1503 -0.1092  0.1428
20192W        W37040   5.351  10.045   3.544  0.3576 -0.0954 -0.0430
20193W        W37041  16.371   0.731  13.801  0.1085 -0.3065 -0.2194
20194W        W37042  13.807  16.318  16.370 -0.3413  0.0063  0.3680
20195W        W37043   7.729   3.721  14.259 -0.0581 -0.0138  0.0422
20196W        W37044   7.803   2.762  16.772 -0.0158  0.2511  0.1304
20197W        W37045  10.441   4.975  14.922  0.1411 -0.1279  0.2223
20198W        W37046   9.783  15.087  15.915 -0.1014 -0.1363  0.0062
20199W        W37047   3.851   6.139  17.494  0.0733  0.0185  0.1131
20200W        W37048  12.525   0.161  13.428 -0.0850 -0.0705 -0.1589
20201W        W37049  15.769   5.532  14.282  0.1946 -0.0659  0.2228
20202W        W37050  13.573   2.422  14.402 -0.0903  0.1051  0.1102
20203W        W37051  11.219   2.797  13.997 -0.1278 -0.3686 -0.1006
20204W        W37052   0.339  12.930   1.118 -0.1020  0.1689  0.1241
20205W        W37053   1.192   3.420   2.305  0.3431 -0.0309 -0.2570
20206W        W37054  12.826  14.044  14.272  0.0638 -0.0835 -0.3268
20207W        W37055   5.588   9.514   0.677  0.3209  0.1628 -0.0098
20208W        W37056  12.710   9.389  16.752 -0.0953  0.2254  0.2689
20209W        W37057   2.582  12.557   6.145 -0.1680 -0.1569 -0.2073
20210W        W37058   6.345   0.097   1.936  0.1480  0.2118  0.1916
20211W        W37059   7.621  14.527   2.158  0.1541 -0.2785  0.1289
20212W        W37060  12.472   6.968  12.855  0.1956  0.4009  0.1740
20213W        W37061  10.347   6.068  17.803 -0.1234  0.0151  0.0054
20214W        W37062   4.737  11.949  15.599  0.0784  0.2801  0.3048
20215W        W37063  12.749   5.670   3.216  0.1013 -0.3536  0.0712
20216W        W37064  12.371  14.610   1.055  0.1263  0.0702 -0.0395
20217W        W37065   4.260   2.822   5.102  0.1887 -0.2470  0.0404
20218W        W37066  16.970   9.075  15.324 -0.0102  0.2313 -0.0529
20219W        W37067   2.650   2.644   1.283 -0.1281  0.1015  0.1266
20220W        W37068   8.627   2.011   2.202  0.1006  0.0756  0.2690
20221W        W37069  14.286   6.462  17.295 -0.1395 -0.0100 -0.2098
20222W        W37070   5.045  16.053  12.756  0.0058 -0.0222  0.1470
20223W        W37071   5.383   2.342   3.537  0.0078 -0.0856  0.0245
20224W        W37072   3.208  14.881  15.813  0.0152  0.4498 -0.2559
20225W        W37073  16.827   4.014  14.665 -0.1662  0.4168  0.0037
20226W        W37074   1.921   7.472  13.439  0.0867 -0.0683  0.1606
20227W        W37075  14.103  11.085  12.426  0.0007 -0.1131  0.0466
20228W        W37076   8.986   9.118  15.055  0.0862  0.0374 -0.3224
20229W        W37077   8.869  13.403   5.918 -0.1566  0.0291  0.0620
20230W        W37078  10.218   3.713   2.908 -0.3476 -0.1622  0.0923
20231W        W37079  13.627  14.600  15.406 -0.0965 -0.0039 -0.0559
20232W        W37080   2.569  11.994  12.408 -0.0993 -0.0495  0.0809
20233W        W37081   1.848  16.364  12.106  0.1572  0.0358  0.1035
20234W        W37082  12.627   0.574   0.795 -0.5099 -0.0411 -0.0566
20235W        W37083  16.882   7.826   1.396  0.1661  0.0698  0.0783
20236W        W37084  16.058   8.537   3.001 -0.0414 -0.1774 -0.0046
20237W        W37085   3.372  16.311  15.350 -0.0200 -0.3175  0.1150
20238W        W37086   4.475  13.350   4.759 -0.0009  0.0659 -0.1229
20239W        W37087   3.105   8.748  16.411 -0.0689  0.1126 -0.2704
20240W        W37088  12.939   0.565   3.902 -0.2072 -0.2651 -0.2279
20241W        W37089   7.491   2.966  17.563 -0.0441  0.0157  0.0585
20242W        W37090  11.266   2.645  14.530 -0.2541 -0.2236  0.0865
20243W        W37091  16.915  10.056   2.273  0.0681  0.0547  0.2052
20244W        W37092   6.090  12.547  13.379  0.2867  0.2053  0.2286
20245W        W37093   9.718   8.320   0.973 -0.1096 -0.0637  0.0173
20246W        W37094  12.913   4.472  13.276  0.2958 -0.1930  0.3662
20247W        W37095  10.789  16.403  16.952 -0.0816 -0.0083 -0.1507
20248W        W37096   5.521   3.893   3.705  0.0146 -0.5053 -0.1461
20249W        W37097  10.231   6.148  13.437 -0.1049 -0.1166 -0.2792
20250W        W37098   7.257   5.721  15.914 -0.2450 -0.3556 -0.2919
20251W        W37099  16.517   0.509  16.906  0.1283  0.1006 -0.1843
20252W        W37100  13.879   7.956  16.518 -0.1593  0.0002  0.0352
20253W        W37101  12.799   0.047   4.006 -0.1160  0.2608 -0.0086
20254W        W37102   3.354  12.347  12.761  0.1950 -0.0655  0.1594
20255W        W37103  16.015  11.521   5.440  0.0174 -0.1027  0.3164
20256W        W37104   4.158  15.952  14.676 -0.0727  0.3157 -0.0873
20257W        W37105   3.353  16.062  16.358  0.1123  0.0956 -0.1320
20258W        W37106  10.756  12.186   3.146 -0.1790 -0.0778  0.0945
20259W        W37107  15.462  11.224   4.801 -0.0137 -0.1781  0.3163
20260W        W37108  14.249   8.299  16.812  0.0691  0.0528 -0.1446
20261W        W37109   8.119  11.452  16.704  0.0076  0.0298 -0.2646
20262W        W37110  14.280  12.402  16.886 -0.1293 -0.0208  0.2222
20263W        W37111  16.208   8.375   5.652 -0.1568  0.0509 -0.0560
20264W        W37112   7.844  14.024  17.186 -0.2054  0.0011 -0.4032
20265W        W37113   9.182   7.077   1.279 -0.0931  0.0563  0.1484
20266W        W37114  12.327   5.110   5.089 -0.0398 -0.0167  0.1498
20267W        W37115  14.688   9.237   1.709  0.1871  0.0942  0.1451
20268W        W37116   7.486   0.981  13.955 -0.1116 -0.0801 -0.1299
20269W        W37117   3.235  10.378  14.273 -0.0683  0.0069 -0.0423
20270W        W37118   2.683   9.709   1.401  0.2514  0.2484 -0.0332
20271W        W37119   1.918   7.987  15.581  0.0455  0.0809 -0.1818
20272W        W37120   9.300   5.575   0.235 -0.3447 -0.0653 -0.0934
20273W        W37121   3.972   2.300  15.461 -0.3109 -0.0520  0.1994
20274W        W37122   9.779  16.287   1.482  0.0124 -0.0860 -0.0661
20275W        W37123   5.832  16.483   4.509 -0.1459 -0.1114  0.1104
20276W        W37124  14.344   8.946   3.793  0.3285 -0.3408 -0.1024
20277W        W37125   5.434   7.507   5.784  0.0465  0.0876  0.2611
20278W        W37126   7.433   9.102   3.225  0.0188 -0.0937 -0.2688
20279W        W37127   0.452  16.869   3.937 -0.2755 -0.3420  0.2643
20280W        W37128   9.339   3.270   2.907 -0.0435  0.0917 -0.0164
20281W        W37129   8.274   2.353  17.611  0.0067 -0.0120 -0.0720
20282W        W37130   4.811   5.756  12.613 -0.1012 -0.3645  0.3204
20283W        W37131   3.128   0.017   2.194  0.1793 -0.0527  0.1221
20284W        W37132  16.281   2.885   1.909  0.0982 -0.0358  0.4017
20285W        W37133  15.979  14.438   4.308 -0.0067  0.1023 -0.2187
20286W        W37134   7.673   2.712   1.811  0.0746 -0.1225  0.1052
20287W        W37135  15.113   8.454   4.934  0.0016  0.0758  0.1931
20288W        W37136   4.997   5.631   5.424  0.0239 -0.0660 -0.0403
20289W        W37137  14.524  11.398   0.103  0.1526  0.3188  0.2209
20290W        W37138  15.549   9.808  17.310  0.0098 -0.0266  0.3415
20291W        W37139   6.545  12.017  16.947  0.0050  0.0612 -0.0871
20292W        W37140   5.658   4.296  14.714 -0.3118 -0.0409  0.0017
20293W        W37141   8.966  10.243   2.427 -0.1610  0.2293  0.0566
20294W        W37142   9.753  13.973  17.504 -0.0643  0.0458 -0.0547
20295W        W37143  12.873  10.564  15.490 -0.2198  0.1719 -0.0988
20296W        W37144   3.005  16.329   1.854  0.3223  0.0384  0.2112
20297W        W37145   1.795   4.849   3.728 -0.0601 -0.0552  0.1684
20298W        W37146  10.476   8.445   1.252 -0.0614  0.1606  0.2264
20299W        W37147   9.826   1.350  12.353  0.0163 -0.1867 -0.1504
20300W        W37148  16.163  13.411   1.542  0.2296 -0.0107  0.0987
20301W        W37149  15.117  11.692   5.045 -0.2240 -0.0973 -0.3284
20302W        W37150  10.631  12.791   4.352 -0.0695 -0.0645 -0.0126
20303W        W37151  10.011  10.155   4.257  0.0763 -0.4732 -0.2234
20304W        W37152   3.241   1.763  16.359 -0.0993  0.2057 -0.0716
20305W        W37153  11.938  15.381   1.845  0.2821 -0.2022  0.2813
20306W        W37154   6.095   4.492  14.800  0.1655 -0.0574 -0.1032
20307W        W37155   4.975   7.845  16.232 -0.2102  0.0174  0.1082
20308W        W37156   4.506   7.873  14.304 -0.1245 -0.3078  0.1079
20309W        W37157   3.428  12.844   2.714  0.0101  0.2084  0.0147
20310W        W37158  13.847  12.566  15.987 -0.1992  0.2591  0.0007
20311W        W37159   6.978   5.889  16.383  0.4472 -0.1065  0.1356
20312W        W37160  13.015   8.635  15.939 -0.0927 -0.2248  0.0763
20313W        W37161   6.814  16.492   5.426 -0.1149 -0.0951 -0.0931
20314W        W37162   1.706   8.384  17.715 -0.0981 -0.0767  0.0302
20315W        W37163   6.283   2.571   5.295  0.1144 -0.1113  0.0167
20316W        W37164  11.978   4.807  15.111 -0.1679  0.1700  0.1503
20317W        W37165   5.371   0.172  13.077  0.1264  0.0098 -0.0608
20318W        W37166   9.149  10.275  17.294  0.1987 -0.2476  0.3346
20319W        W37167   7.081   0.291   3.006 -0.1185 -0.0364 -0.1287
20320W        W37168   5.817   1.877  16.950  0.0324 -0.0749  0.0535
20321W        W37169   1.386  13.955   1.088 -0.5688  0.1298  0.1824
20322W        W37170  12.871  10.481  16.416  0.1191  0.2352 -0.0500
20323W        W37171  16.257  11.067  13.940 -0.1995  0.1912  0.1393
20324W        W37172   8.357   5.951  16.571  0.2455  0.0654 -0.3628
20325W        W37173  14.228   2.055   0.977  0.0114 -0.0109 -0.1699
20326W        W37174   7.621  15.446  15.453  0.2783  0.0297 -0.0598
20327W        W37175   7.219   4.219  11.316  0.0431 -0.1545 -0.2176
20328W        W37176   2.466   1.071  14.814 -0.2362 -0.0175  0.1139
20329W        W37177  12.169  12.569   4.279 -0.3115  0.1067 -0.1680
20330W        W37178  12.773   6.138  16.034 -0.2274 -0.0168  0.0653
20331W        W37179   1.638   7.734  14.794  0.1775 -0.2397 -0.1513
20332W        W37180   8.457   2.783  16.835  0.0344 -0.0169  0.2310
20333W        W37181   7.546   3.375  16.536  0.3722 -0.1355  0.0938
20334W        W37182  16.774   7.726  17.364 -0.0965 -0.1030  0.1973
20335W        W37183   2.809  13.711   3.362 -0.2391 -0.0851  0.0952
20336W        W37184  15.783   5.638  16.251 -0.0475 -0.0861 -0.0351
20337W        W37185  15.867  10.894  15.974 -0.0249 -0.1063 -0.0267
20338W        W37186  12.322  16.538   0.655 -0.1377  0.0975 -0.5575
20339W        W37187  16.931   4.989   2.303  0.0228 -0.1073  0.0921
20340W        W37188   2.887   4.699   6.741  0.1292  0.0491  0.0115
20341W        W37189  12.538   6.909   4.954 -0.1621  0.0384 -0.0178
20342W        W37190   7.924  10.955   3.120  0.2955 -0.2607  0.0613
20343W        W37191   9.270  13.498  13.357  0.0800 -0.0676  0.5417
20344W        W37192   4.163   6.506   3.769  0.2505 -0.1360 -0.2582
20345W        W37193  16.898  12.317  14.420 -0.0356  0.0214 -0.1913
20346W        W37194  11.736  12.032   3.591 -0.1803  0.0398  0.1454
20347W        W37195   3.259   7.170   1.091 -0.0766 -0.0423 -0.2154
20348W        W37196   1.476  10.871  11.910 -0.0400 -0.0892 -0.1619
20349W        W37197   7.372   6.624   2.995 -0.0070 -0.1467  0.1964
20350W        W37198  14.993  14.049  17.676  0.1594 -0.0536  0.2000
20351W        W37199   2.607   4.427  13.199 -0.0010  0.0932  0.4047
20352W        W37200   4.245  15.013  13.899  0.1304  0.0256 -0.0132
20353W        W37201  13.947  11.577  15.017  0.1314  0.2076 -0.0092
20354W        W37202  11.378   1.229  12.353 -0.2859 -0.0066 -0.0186
20355W        W37203   2.664  11.192  17.253  0.1528 -0.1147 -0.0363
20356W        W37204   1.345  11.071   3.493  0.0246  0.3873 -0.0402
20357W        W37205   8.071   6.335   0.735  0.0545 -0.1687  0.1314
20358W        W37206   2.339  10.643  12.256 -0.2294 -0.0919  0.0855
20359W        W37207   2.356   6.369  14.852  0.3155  0.1438 -0.2549
20360W        W37208  13.370   4.504   3.711 -0.1999  0.1278  0.0541
20361W        W37209  11.645   5.778   0.753 -0.0677  0.0184 -0.0220
20362W        W37210   5.055  13.705  16.198 -0.0236  0.0368 -0.2893
20363W        W37211  15.911   4.300  16.363  0.0387 -0.2828 -0.0361
20364W        W37212   2.958  16.154  13.665  0.1598 -0.1654 -0.2334
20365W        W37213   6.729  10.940  15.145  0.2371  0.1018 -0.5607
20366W        W37214  15.284   0.541   4.225 -0.0752 -0.0092 -0.0671
20367W        W37215  12.488   8.523   2.694 -0.0377 -0.2591  0.2716
20368W        W37216   3.464   2.405   4.564 -0.1960  0.3657 -0.1022
20369W        W37217   7.641   7.586  14.103  0.2651  0.1013 -0.3296
20370W        W37218   7.364  12.123   2.568 -0.1141 -0.0059 -0.2095
20371W        W37219  16.382   5.252   1.056  0.0969  0.3776 -0.0275
20372W        W37220   7.628  14.484   1.294 -0.0526 -0.1330  0.0968
20373W        W37221   1.244   9.351   2.193  0.0441 -0.0282 -0.1017
20374W        W37222   6.001   2.175   4.652  0.1428 -0.0012 -0.3339
20375W        W37223   6.514   6.173  17.077 -0.0930  0.0631 -0.0671
20376W        W37224   7.565  16.763  15.988 -0.1934  0.1350  0.2936
20377W        W37225   0.197  14.836   2.061 -0.0979  0.3141 -0.0429
20378W        W37226   4.706  16.174  17.247  0.0163  0.3446 -0.0888
20379W        W37227  15.776  16.403  13.135  0.3158 -0.0408  0.3296
20380W        W37228  14.879  15.017  12.409 -0.1109  0.1751  0.0205
20381W        W37229   3.583   3.658  16.738  0.1048  0.0227  0.3586
20382W        W37230  15.613   4.463   0.949 -0.2728  0.0249  0.0513
20383W        W37231   0.818   5.124  12.915  0.1240  0.0759 -0.0063
20384W        W37232   2.045  13.098   5.436  0.1136 -0.2184 -0.0135
20385W        W37233  15.680  10.931   3.826  0.3474  0.2013 -0.0134
20386W        W37234   9.454  11.199  13.032  0.2930  0.1281  0.1371
20387W        W37235   8.223   5.394  17.284  0.2386 -0.1688 -0.1676
20388W        W37236   9.447   7.118  14.911 -0.3644 -0.0392  0.1532
20389W        W37237  14.962   7.402   0.448  0.3225  0.2127  0.1463
20390W        W37238   7.098   1.010   0.330 -0.1104  0.2388 -0.1401
20391W        W37239   2.274  16.245   3.968  0.2106 -0.0573 -0.1909
20392W        W37240  14.929  16.355  15.284 -0.2001 -0.2406 -0.0535
20393W        W37241   8.668   2.567   1.643 -0.0322 -0.0785 -0.3354
20394W        W37242   7.137  14.264  13.035 -0.2273  0.3702 -0.1244
20395W        W37243  15.890   6.916   1.957  0.1187 -0.1850  0.2125
20396W        W37244  12.559   7.378  16.469 -0.0837 -0.2003  0.1160
20397W        W37245   7.647  13.802   5.138  0.2253  0.0289 -0.3155
20398W        W37246   1.553  10.909  16.335  0.1131  0.1374 -0.1019
20399W        W37247  12.909  13.686   0.083  0.1040  0.1401 -0.0242
20400W        W37248   7.787  12.555   4.494  0.1540  0.0300  0.0496
20401W        W37249  12.948   0.415   4.839  0.0460  0.1313 -0.1119
20402W        W37250   7.458  12.247   5.661 -0.1259 -0.1710 -0.4358
20403W        W37251   3.311  16.201  13.224 -0.2269  0.0376  0.0328
20404W        W37252  13.521   1.728  12.669  0.3644 -0.1200  0.1282
20405W        W37253  11.993  16.227   1.758 -0.1619 -0.1496 -0.2384
20406W        W37254   5.704   4.843   4.877  0.1138  0.1043  0.1699
20407W        W37255   0.122  15.910   4.024 -0.0264  0.1506 -0.0262
20408W        W37256   0.623   6.647  15.188 -0.1853  0.1131  0.0254
20409W        W37257   0.061  11.426   0.514 -0.0603  0.0463 -0.2990
20410W        W37258  14.067   0.835  13.542 -0.0532  0.0250  0.2711
20411W        W37259  11.229   0.375  12.492  0.3949  0.2772 -0.2914
20412W        W37260  11.915   1.526   1.925 -0.0992  0.0652 -0.1970
20413W        W37261   0.103  16.747  14.234  0.1090 -0.0297  0.0275
20414W        W37262   1.442  11.131   4.585  0.1153  0.2784  0.2630
20415W        W37263  16.339   5.052   3.614 -0.0179  0.0332 -0.0297
20416W        W37264   7.082   0.117   5.648 -0.1019  0.0599 -0.0358
20417W        W37265  10.521  16.041   0.493 -0.0604  0.1553 -0.3314
20418W        W37266   3.802  16.442  15.595 -0.3270 -0.0093 -0.0092
20419W        W37267  13.521   6.686  13.942 -0.1060  0.3643 -0.2922
20420W        W37268   0.208   8.210  14.880 -0.0783 -0.0502  0.2212
20421W        W37269   8.162   7.917   4.860  0.0981  0.2491  0.1142
20422W        W37270   3.656   3.908   1.465  0.2706  0.2698 -0.0305
20423W        W37271  15.757  14.643   2.851 -0.2843  0.0813 -0.0373
20424W        W37272   7.392   1.604   3.114 -0.1784 -0.0955  0.0740
20425W        W37273  10.676   7.631  15.945 -0.0616  0.3007  0.0851
20426W        W37274  13.813   3.623  12.265  0.2043  0.0339 -0.0583
20427W        W37275   2.160   4.160  14.462  0.1478  0.2063 -0.1450
20428W        W37276   4.754   0.836   2.130  0.0723  0.0314 -0.0233
20429W        W37277   6.340   5.295   5.725 -0.0759 -0.2897 -0.0632
20430W        W37278   9.664   6.892   1.250 -0.1554 -0.1689 -0.0263
20431W        W37279  12.090  12.839   3.822 -0.2202  0.2194 -0.3508
20432W        W37280  15.273   3.103  13.012 -0.3381  0.1556  0.2185
20433W        W37281  15.514   5.256  13.923  0.0301 -0.0158  0.3150
20434W        W37282  15.312   5.232   5.050  0.0654  0.0712 -0.0093
20435W        W37283  11.509   3.896   5.301 -0.0381 -0.2986  0.0493
20436W        W37284  11.139  15.398   3.222 -0.0532  0.1883 -0.1187
20437W        W37285   3.584   9.041   2.519  0.0874  0.2703 -0.1601
20438W        W37286   2.958  15.312   6.019  0.0460  0.1579  0.0642
20439W        W37287   6.075   3.856  12.776  0.0894  0.1474 -0.0761
20440W        W37288   7.968   5.193  17.657 -0.1836  0.0015 -0.0686
20441W        W37289   7.492   6.654  16.024 -0.2133 -0.1929  0.2628
20442W        W37290   7.706   4.065  17.173 -0.1012  0.3584 -0.1794
20443W        W37291   0.037  12.269  14.926 -0.1114 -0.0541 -0.0228
20444W        W37292   3.486  13.898   3.409  0.1520  0.0953 -0.0415
20445W        W37293  16.839   5.511   2.887  0.1228  0.0273  0.2944
20446W        W37294  10.533   8.416  14.094  0.2203  0.1487  0.1666
20447W        W37295   4.876   7.742  12.608  0.0005  0.0672 -0.1562
20448W        W37296   0.057  11.184   0.984  0.0031 -0.1708  0.2182
20449W        W37297   5.241   0.768   1.927 -0.0131 -0.0709 -0.1183
20450W        W37298   3.059   1.187  12.687 -0.3569  0.0006 -0.0929
20451W        W37299   0.835  10.008   3.940 -0.0773 -0.3436 -0.4522
20452W        W37300  12.566  13.963   3.139 -0.0384 -0.0906 -0.0241
20453W        W37301   2.268   2.364  15.282 -0.2477  0.0445 -0.1414
20454W        W37302   5.396   8.611   0.917 -0.1245  0.3713 -0.3633
20455W        W37303   0.153   8.903  16.709  0.3246  0.0564 -0.1243
20456W        W37304  13.722  15.154  15.469  0.0543 -0.4209 -0.0158
20457W        W37305  14.710   6.603   4.758 -0.2225  0.0575  0.0033
20458W        W37306  10.309  14.400  17.738  0.0044 -0.0466 -0.1531
20459W        W37307  12.293  15.091   5.546  0.1831 -0.3481 -0.1063
20460W        W37308   3.638   3.593  15.921 -0.2388 -0.1096  0.0817
20461W        W37309  14.461   5.359  15.045  0.1546  0.0017 -0.0495
20462W        W37310   0.105   6.293   5.598 -0.1764 -0.1187  0.2372
20463W        W37311   2.722  11.195   4.246 -0.1548 -0.0015  0.0730
20464W        W37312  13.515   3.235  15.529 -0.3957 -0.0077 -0.1795
20465W        W37313   8.899   7.486   0.394 -0.2059 -0.0955  0.1722
20466W        W37314   5.602  12.649  13.358  0.1298  0.2887  0.2077
20467W        W37315  11.854   2.907  17.707 -0.0561  0.0781 -0.0362
20468W        W37316  15.798   2.380  16.763  0.2806 -0.3398 -0.0213
20469W        W37317  14.526  13.297  15.886  0.1295 -0.3490 -0.0734
20470W        W37318  12.824   3.769  14.257 -0.3160  0.0243  0.0672
20471W        W37319  14.012   6.521   0.160  0.2291 -0.0655 -0.0681
20472W        W37320   2.015   6.880   2.063  0.2058  0.0680  0.0401
20473W        W37321  11.093  13.140   3.018 -0.2190 -0.1276 -0.0518
20474W        W37322   6.863   8.676   1.616 -0.1191  0.0070  0.0255
20475W        W37323  10.289  12.208   1.164  0.0764 -0.0603  0.1612
20476W        W37324   5.262   4.852  12.562  0.1204  0.0881 -0.0513
20477W        W37325   8.115  10.060  15.359  0.1927  0.1684 -0.2501
20478W        W37326  10.214   0.197   1.943 -0.3210  0.0148 -0.0770
20479W        W37327   7.329   2.798  13.184 -0.1284 -0.1681  0.1494
20480W        W37328  14.134   9.024   0.418  0.1588 -0.1093  0.0569
20481W        W37329   6.369   6.480   2.069  0.0315  0.0631 -0.2364
20482W        W37330   7.332   0.654  16.267 -0.0382  0.1247 -0.0680
20483W        W37331   5.707  11.894  13.934 -0.3008 -0.2393 -0.1505
20484W        W37332   1.638   1.334   1.055  0.0156 -0.0885 -0.0107
20485W        W37333   6.848   6.001   3.710  0.2342  0.3491 -0.1164
20486W        W37334  15.788   5.528  11.470 -0.2777  0.4261  0.1459
20487W        W37335   8.160   2.057  16.677 -0.0598  0.2353  0.2716
20488W        W37336   0.552   1.927  13.207  0.0642 -0.0757 -0.1194
20489W        W37337   5.815   7.277   3.336  0.1284  0.1111  0.0189
20490W        W37338   0.226   6.622   0.382 -0.0410 -0.0198 -0.0337
20491W        W37339   5.437   9.670   4.004 -0.0062  0.2319  0.0853
20492W        W37340  13.847   4.868  12.876  0.0783 -0.0516  0.0792
20493W        W37341  12.440   2.553   3.632 -0.5155  0.1758  0.2262
20494W        W37342   8.917   8.394   5.948  0.1966 -0.0797 -0.0707
20495W        W37343  14.778  11.748  15.090 -0.1695 -0.0576 -0.0793
20496W        W37344   3.814   6.595   0.412 -0.0674 -0.1512  0.2074
20497W        W37345  13.138   7.675  14.443 -0.0862 -0.0755  0.1189
20498W        W37346  12.053   0.405   2.013  0.0907 -0.0510  0.3891
20499W        W37347  16.862  10.054  15.706  0.0829  0.0142  0.0903
20500W        W37348  12.117  15.370   5.148 -0.0463 -0.1042  0.0231
20501W        W37349   3.327  13.376  16.541 -0.0782  0.4158  0.2792
20502W        W37350  10.198  10.054  13.088  0.1537 -0.0188  0.0560
20503W        W37351  10.311  10.431   4.836 -0.1809  0.1649 -0.0768
20504W        W37352  11.341   4.281  13.192  0.1815 -0.0208  0.1029
20505W        W37353  11.862   1.557  15.392 -0.1025  0.1984  0.3399
20506W        W37354  14.515  10.593  14.118  0.0711  0.2255 -0.0757
20507W        W37355  12.213   5.505  13.312  0.1101 -0.1331  0.0367
20508W        W37356  11.738  10.580  13.319  0.2562 -0.2396  0.0533
20509W        W37357  13.141   9.257  16.977  0.0221  0.1097 -0.2681
20510W        W37358  13.253   6.020  15.204  0.0430 -0.2515 -0.0701
20511W        W37359  12.122   3.503  14.680  0.1694 -0.0692  0.0265
20512W        W37360   2.545  15.016  14.563 -0.0783  0.1750  0.0211
20513W        W37361   9.251  13.299   4.598  0.3068 -0.0963 -0.0796
20514W        W37362  13.164   5.856  16.197 -0.0479  0.2306 -0.1054
20515W        W37363  15.052   2.750   0.748 -0.1817 -0.1262  0.0018
20516W        W37364  15.347   8.310  17.541 -0.0155  0.2860  0.1439
20517W        W37365   6.042  12.191   2.795  0.0105  0.1059 -0.0956
20518W        W37366  16.092   8.133   4.271  0.2926  0.1636 -0.2763
20519W        W37367   3.588   0.567   2.756 -0.0686  0.0710 -0.0001
20520W        W37368  15.595  10.194   0.938  0.3925  0.4678  0.0243
20521W        W37369   3.227  14.320   2.157 -0.0300  0.1609 -0.1756
20522W        W37370   0.255   6.648  13.199 -0.1400 -0.3336  0.0024
20523W        W37371  14.588  11.340  13.304  0.2116 -0.0019 -0.1101
20524W        W37372  10.483  15.804  16.084  0.1127 -0.3023 -0.2230
20525W        W37373   8.207   4.101   5.152 -0.0127 -0.0154 -0.1023
20526W        W37374   2.072   9.276   0.634  0.0732  0.0464  0.5711
20527W        W37375  12.472   9.743  17.714 -0.1055  0.1575  0.0991
20528W        W37376  16.025   7.070  15.848  0.3059 -0.0964 -0.3351
20529W        W37377  16.327   4.295  13.932 -0.0438  0.7067  0.1624
20530W        W37378  10.791  14.697  15.834 -0.0198  0.1258  0.1026
20531W        W37379   6.140  14.362   0.447 -0.0270 -0.1045  0.0530
20532W        W37380   7.350   3.014  13.834  0.0341 -0.2089  0.0194
20533W        W37381  13.450  15.344   3.918 -0.0706  0.0511  0.2343
20534W        W37382   1.994  10.620  14.111  0.1968  0.0193 -0.2909
20535W        W37383  11.969   0.932   1.854 -0.0361  0.0984 -0.1659
20536W        W37384   1.415   2.108   5.408 -0.1915 -0.1152 -0.0825
20537W        W37385   2.416   5.826   4.702 -0.1692  0.0570 -0.0661
20538W        W37386   8.683   9.313  13.595 -0.1934 -0.0434 -0.2514
20539W        W37387  10.103  10.139   2.009  0.0751 -0.1662 -0.1687
20540W        W37388  11.137   5.669  16.610 -0.0955  0.0901  0.1330
20541W        W37389   0.460   7.717   2.913  0.0390  0.1085 -0.0214
20542W        W37390  10.283   1.041   2.200  0.1656  0.1797  0.1888
20543W        W37391  10.500   8.290  14.633 -0.4999  0.3058 -0.1755
20544W        W37392   1.512  14.388   1.368  0.4338 -0.1901  0.2411
20545W        W37393  10.772   2.524  14.442 -0.1985  0.1402 -0.0751
20546W        W37394   9.976   4.375  13.438  0.0260  0.0558 -0.1800
20547W        W37395   2.663  15.634   0.273 -0.1215  0.0691 -0.1299
20548W        W37396   7.569   1.441  17.498  0.0084 -0.1739 -0.2139
20549W        W37397   1.544  10.982   1.677  0.0529  0.1500 -0.2705
20550W        W37398   5.093  15.387  17.207 -0.2903  0.0726  0.0458
20551W        W37399   9.465   4.255  14.240 -0.2213 -0.0917  0.0136
20552W        W37400  15.974  12.784   3.752 -0.0704  0.1329  0.0813
20553W        W37401   1.086  13.912  17.144 -0.0775  0.0634 -0.1148
20554W        W37402   5.616   7.548   1.307  0.1319  0.0192  0.2383
20555W        W37403   3.508  16.821  16.571  0.1380  0.4157  0.1991
20556W        W37404  11.999  16.850   0.466  0.2622  0.0575 -0.1368
20557W        W37405   7.947   1.310  15.167  0.1770 -0.0592 -0.3998
20558W        W37406   2.579   5.202   0.269  0.0749  0.3348 -0.0275
20559W        W37407   1.777   6.552   2.363 -0.2377 -0.0538  0.0760
20560W        W37408   2.673   9.364  11.958 -0.3771 -0.1430  0.0566
20561W        W37409   8.332   5.662   2.538  0.1193  0.3018 -0.0778
20562W        W37410   3.966  14.749  15.234 -0.2966  0.1208 -0.1120
20563W        W37411  11.698   8.683   0.450 -0.1539 -0.2087  0.1588
20564W        W37412   7.242   6.681  11.608  0.0037 -0.2621 -0.0638
20565W        W37413   3.961   3.636  15.138  0.2950  0.1283  0.1655
20566W        W37414   5.536   8.359  11.217 -0.0952 -0.1868 -0.0587
20567W        W37415  11.963   4.869   4.794  0.0839  0.0709  0.1652
20568W        W37416  11.265  14.498   4.332  0.1642  0.3325 -0.0677
20569W        W37417   6.589   3.312  16.966 -0.0116  0.1449  0.3656
20570W        W37418   8.981   5.193   3.329  0.0760  0.2358  0.0237
20571W        W37419   5.347   8.305   4.582  0.2231  0.0386  0.0259
20572W        W37420   5.243   0.317  14.438  0.1081 -0.0029 -0.0482
20573W        W37421  11.683   6.612  15.825 -0.0076 -0.0789  0.1434
20574W        W37422  10.283  11.073  16.445 -0.1072  0.0084 -0.1707
20575W        W37423   9.586   3.330   1.413 -0.1337 -0.0910 -0.4081
20576W        W37424  13.221  16.569  14.397  0.0293  0.0751  0.4258
20577W        W37425   5.693   1.886   4.370  0.1126  0.2659  0.1322
20578W        W37426   4.463  16.710   3.537 -0.1736 -0.1491  0.1402
20579W        W37427  10.616   0.409   3.359 -0.2301  0.1843  0.4824
20580W        W37428  16.805  10.483   1.479  0.2920  0.0939 -0.4427
20581W        W37429  15.564   4.001  12.183  0.0456  0.0851 -0.0177
20582W        W37430  14.162   7.796  16.909  0.0310 -0.0442 -0.0532
20583W        W37431   8.987   3.079  15.132  0.0770 -0.1329  0.0881
20584W        W37432  15.641   3.226   3.026 -0.2109 -0.4398  0.0919
20585W        W37433  10.981   3.970  17.280  0.0722  0.1450  0.1507
20586W        W37434   1.326   6.176  14.944 -0.1774  0.0022 -0.2785
20587W        W37435   0.661   6.991  13.356  0.1497  0.2272  0.3159
20588W        W37436   7.417   6.363  14.524  0.0648 -0.0338  0.1084
20589W        W37437   9.050  11.672  11.595 -0.1062  0.0368  0.1277
20590W        W37438   2.190  16.509   4.928 -0.0084 -0.2798  0.4827
20591W        W37439   8.813  15.640  13.377  0.1248  0.1432 -0.0852
20592W        W37440  10.518  12.144  15.116  0.0156  0.4967  0.1206
20593W        W37441  16.662   8.338   4.935 -0.0289 -0.0049  0.0696
20594W        W37442   7.676  12.762  16.899  0.0016 -0.0316  0.0683
20595W        W37443   9.913   1.118  14.695 -0.0956 -0.1046  0.0820
20596W        W37444  16.647   1.790   1.932 -0.0456  0.2750  0.2165
20597W        W37445  11.303  16.475  13.191  0.1719 -0.2631  0.1809
20598W        W37446   6.060   0.755   6.191 -0.1049 -0.0420 -0.0134
20599W        W37447   7.255  15.890  13.233 -0.2025 -0.0299 -0.0010
20600W        W37448  14.331  15.707  15.566 -0.1333 -0.0215  0.1129
20601W        W37449  15.081  12.263  14.873  0.2414 -0.3787 -0.0081
20602W        W37450   7.964  14.763  17.015  0.0086  0.1354 -0.1340
20603W        W37451   1.810  16.341  17.142 -0.1196 -0.1603 -0.1181
20604W        W37452  13.082  14.258   1.496 -0.1406  0.0691  0.1885
20605W        W37453   8.540   3.031   0.880  0.0885  0.0886  0.2195
20606W        W37454   6.713   1.770  13.694 -0.1762  0.0626 -0.3498
20607W        W37455   1.745  10.770  17.276 -0.1726 -0.3419  0.0552
20608W        W37456   0.600   2.876  16.394  0.0426  0.1733  0.0431
20609W        W37457  17.016  10.619  15.230 -0.0924  0.0278 -0.1271
20610W        W37458   0.127   7.114   0.396  0.4646 -0.3646  0.3692
20611W        W37459   1.540   0.949   2.361  0.0678  0.0658 -0.3843
20612W        W37460  15.888  12.832   2.831  0.1032 -0.0307 -0.1006
20613W        W37461   4.594   8.860   1.359  0.0018 -0.3622  0.1378
20614W        W37462   6.330  10.758  11.931 -0.0485 -0.0026 -0.1728
20615W        W37463   9.576  10.042   4.466 -0.0162  0.2419 -0.2286
20616W        W37464   8.389   9.660   5.590  0.0909 -0.1518 -0.1582
20617W        W37465  14.937   8.379   1.569  0.1743  0.1926 -0.0469
20618W        W37466   8.839   1.330  11.497  0.1972 -0.0019  0.1111
20619W        W37467  16.803   9.054  12.175 -0.1790  0.1789  0.1232
20620W        W37468   4.043   9.685   2.102 -0.0687 -0.1368 -0.1207
20621W        W37469   0.935  13.959  16.210  0.0941 -0.1719  0.1500
20622W        W37470  10.645   4.817  13.828 -0.2219 -0.0482 -0.1930
20623W        W37471   8.561   0.934  12.162 -0.2505 -0.1015 -0.0734
20624W        W37472   0.758   2.731   1.927 -0.4188  0.1752  0.0159
20625W        W37473   1.259  10.589  12.254 -0.0864 -0.3431  0.2117
20626W        W37474   1.389  15.329   1.942  0.0286 -0.0806  0.3150
20627W        W37475  10.986   6.251   1.367  0.0811  0.1286  0.1219
20628W        W37476   2.272   5.027  14.899  0.1621 -0.3024  0.2153
20629W        W37477  14.185   2.929   3.996  0.0021 -0.0309 -0.2715
20630W        W37478   9.296   1.270   1.081 -0.2846 -0.0696 -0.1621
20631W        W37479   7.296  16.908  16.425  0.2356 -0.1744 -0.2134
20632W        W37480   8.520   1.982   1.743 -0.1419 -0.1571 -0.1591
20633W        W37481  16.640  16.210   0.186  0.0901 -0.2480  0.2544
20634W        W37482   6.475  12.657  12.984  0.0622 -0.1095  0.2352
20635W        W37483  15.351   9.926  15.200  0.4135  0.1625 -0.0698
20636W        W37484  15.218  11.045   4.423  0.3935  0.2074  0.2573
20637W        W37485   3.458   0.063  15.045  0.3026  0.1278 -0.2056
20638W        W37486   8.408  13.593  17.688  0.1706 -0.1498 -0.3191
20639W        W37487   9.011   8.139   2.338  0.2255  0.0343 -0.2006
20640W        W37488   7.059  12.931   4.711  0.2576  0.3916 -0.0390
20641W        W37489  14.703  11.892   5.814 -0.2442  0.1105  0.0629
20642W        W37490   7.835  13.840   3.730  0.1691 -0.3904  0.1445
20643W        W37491   6.372   9.050  16.677  0.1697 -0.0014 -0.1158
20644W        W37492   0.583   5.877  13.591  0.1020 -0.2229 -0.0085
20645W        W37493   7.553   6.551  16.543  0.0996 -0.0743 -0.1176
20646W        W37494  13.336  13.341   1.263 -0.1914  0.0888  0.1420
20647W        W37495  10.351  16.535  17.840  0.0690 -0.0431  0.0588
20648W        W37496  15.239  10.428  15.151  0.2071  0.2004 -0.1836
20649W        W37497   5.933   3.955   0.617 -0.1706 -0.0185 -0.0927
20650W        W37498   1.461  15.788  17.629 -0.0690 -0.1830  0.0111
20651W        W37499  15.914   9.542  12.778  0.2146  0.3476  0.2231
20652W        W37500  16.654  11.631   1.431 -0.0986 -0.0553 -0.2428
20653W        W37501   4.802   1.894  15.644 -0.0093  0.0398  0.1226
20654W        W37502  16.486  15.612   0.093  0.1771 -0.1123 -0.2366
20655W        W37503   4.523  14.512   4.588 -0.0692 -0.0776  0.1306
20656W        W37504  14.163  10.806   0.376  0.1899  0.0419  0.4656
20657W        W37505  12.358  16.877   6.389 -0.0862 -0.1818  0.1498
20658W        W37506   5.314   1.686   5.826 -0.1350  0.2037  0.2084
20659W        W37507  10.147   4.119  12.504  0.2796  0.2900  0.1040
20660W        W37508   0.723  12.431   0.328  0.1059 -0.0319  0.1685
20661W        W37509   1.336   9.690  14.667 -0.1649  0.1238 -0.0485
20662W        W37510   9.336  13.706  16.537  0.1159 -0.1195  0.0115
20663W        W37511  15.955   5.009   1.057  0.0941 -0.0708 -0.0245
20664W        W37512   7.509   3.317  14.367  0.2536  0.1957  0.2520
20665W        W37513   0.695   5.714   3.048  0.0422  0.1060 -0.1508
20666W        W37514   8.071  14.973  13.785  0.1553  0.0873 -0.0767
20667W        W37515   1.823   6.927   0.998 -0.0970  0.2399 -0.1430
20668W        W37516   2.468  16.080   0.155 -0.2396 -0.1484 -0.0817
20669W        W37517  12.634   2.020   2.298  0.0846  0.3376 -0.0370
20670W        W37518  12.974   7.032  11.977 -0.1981  0.0797 -0.1245
20671W        W37519   4.411  14.405   6.280  0.0978  0.1290 -0.1522
20672W        W37520   4.377   7.509   1.326  0.0103 -0.0076  0.1401
20673W        W37521  15.100   4.405   6.051  0.0119  0.0535 -0.2037
20674W        W37522  12.039   2.573   3.335  0.0480 -0.0296  0.3105
20675W        W37523  16.574   2.599  13.229  0.1189  0.1827 -0.0751
20676W        W37524  11.617  12.443   2.680 -0.3930  0.2862 -0.1841
20677W        W37525   6.707  13.093  17.368 -0.2588 -0.2006 -0.1632
20678W        W37526   7.108   3.068  14.243  0.1088  0.1470 -0.0375
20679W        W37527   7.982   7.281   3.799 -0.1423  0.1250 -0.2169
20680W        W37528   5.162  10.411   0.227 -0.0366 -0.1662  0.2883
20681W        W37529  11.077  15.915   0.290  0.1940 -0.1868 -0.2395
20682W        W37530  11.986  13.039  14.283  0.3404 -0.1149 -0.0716
20683W        W37531  14.265   3.354  16.663  0.2026 -0.1434 -0.1089
20684W        W37532  11.613   1.718  15.834 -0.0603  0.3111  0.3008
20685W        W37533   7.696  11.356  16.085 -0.0580  0.3155  0.1468
20686W        W37534   1.243  10.418   5.037 -0.1816  0.1042  0.0371
20687W        W37535  14.631  13.671   0.492  0.2413  0.0495  0.0036
20688W        W37536   8.678   5.451   2.173  0.2765  0.1279  0.0440
20689W        W37537  10.203   8.051   5.315  0.2426  0.0488  0.3088
20690W        W37538  11.576   0.481  17.730 -0.2068 -0.2546 -0.0802
20691W        W37539  12.372   5.941   3.908 -0.1920 -0.2403 -0.0559
20692W        W37540  15.441  11.047   5.620  0.1060  0.1783 -0.0546
20693W        W37541   9.484   2.235   1.058  0.0136  0.0011  0.0064
20694W        W37542   7.907   8.355  13.092 -0.2600 -0.2635  0.2184
20695W        W37543  15.724  16.353   2.564 -0.2711  0.3871 -0.1477
20696W        W37544   1.475   1.795  13.158 -0.4056 -0.0970 -0.0230
20697W        W37545   3.246   1.019   0.558  0.0030  0.3633 -0.1026
20698W        W37546   5.845   0.469   5.246  0.0359 -0.0992  0.2002
20699W        W37547   3.321  11.227   3.628 -0.1443  0.2419  0.0779
20700W        W37548   6.416  13.018  15.106 -0.0552 -0.0504 -0.0293
20701W        W37549   1.406  13.045  14.241 -0.0813 -0.1957 -0.1740
20702W        W37550   4.830  16.719   5.005 -0.0137 -0.0278 -0.1937
20703W        W37551   5.160  15.440  15.053  0.0145  0.1887 -0.1830
20704W        W37552   6.177   5.322  13.459 -0.0261  0.1704  0.0713
20705W        W37553   0.275  11.684   1.388 -0.3341  0.1016  0.1212
20706W        W37554   3.739   7.003  13.317 -0.2373 -0.2394  0.1016
20707W        W37555   6.473  12.503   0.506  0.1782 -0.1929  0.2714
20708W        W37556   2.903   0.315  16.792  0.3228 -0.0431  0.0592
20709W        W37557   0.645   4.698   1.281 -0.2131 -0.0133  0.2667
20710W        W37558   1.673  14.239   2.655  0.1445 -0.1386 -0.2360
20711W        W37559   9.715  16.052   1.039  0.0634 -0.1290 -0.1688
20712W        W37560   2.182  10.346  17.631 -0.4259  0.0720 -0.1235
20713W        W37561   4.159   5.795   4.891 -0.0448 -0.0999 -0.2348
20714W        W37562   9.372  12.520  15.174 -0.0830 -0.1319  0.1430
20715W        W37563  13.869   2.565   3.787 -0.2364  0.1645  0.1223
20716W        W37564   1.976  13.090  17.695  0.2920 -0.1965 -0.6021
20717W        W37565   8.331   6.019  17.278  0.1337 -0.1649 -0.1688
20718W        W37566  15.710   8.292   4.012 -0.1108  0.0239 -0.0932
20719W        W37567   8.863  12.725   0.264  0.0601 -0.2144  0.0688
20720W        W37568   5.494   2.285   5.456  0.1250 -0.1617 -0.4770
20721W        W37569  14.324   0.338   2.458  0.2172 -0.2543  0.0915
20722W        W37570   5.601   7.328   2.876  0.0976  0.2396  0.1805
20723W        W37571   0.726  11.283   0.454 -0.0074  0.0692  0.0617
20724W        W37572   5.533   9.851  16.238  0.4705  0.1895  0.1330
20725W        W37573  12.544   7.837   4.905  0.1570  0.2774  0.0735
20726W        W37574  16.029  10.167   3.401  0.1645  0.1280  0.1061
20727W        W37575  10.464   2.149   1.259  0.0907 -0.2545 -0.0414
20728W        W37576  11.743   1.451  14.595  0.3066  0.4357 -0.0551
20729W        W37577   4.918  10.077  14.816 -0.0629 -0.0151  0.0676
20730W        W37578  10.953  15.484   1.457  0.1873 -0.0654  0.0868
20731W        W37579   3.888   1.847  12.360  0.0099  0.1994 -0.0473
20732W        W37580   5.008   1.408  16.923 -0.2826  0.1620 -0.2904
20733W        W37581   0.543   0.040   2.692 -0.0442 -0.2265  0.1673
20734W        W37582   8.850   2.116   1.294  0.1564 -0.1870  0.0044
20735W        W37583   2.982   0.227  14.825  0.0016 -0.2211 -0.1238
20736W        W37584  11.026   4.004   2.366 -0.0811  0.0140  0.0615
20737W        W37585   3.796  14.969   1.835 -0.0320  0.0657 -0.1263
20738W        W37586   5.113   3.274   4.064 -0.0084 -0.0300 -0.1195
20739W        W37587   3.911   8.176   4.062 -0.1823 -0.4009 -0.2439
20740W        W37588   7.999  12.623  14.627 -0.3355 -0.1995  0.1128
20741W        W37589   0.263   4.728  13.332 -0.0796  0.1288 -0.3960
20742W        W37590   5.434   0.759   3.255  0.0987 -0.1809  0.1868
20743W        W37591   4.099  15.176   3.395 -0.0108  0.1234  0.1056
20744W        W37592  12.989   4.580  11.691  0.0613 -0.1739  0.0017
20745W        W37593  13.882   0.147  12.920  0.0794 -0.0346 -0.2260
20746W        W37594  13.595   8.037  11.400 -0.1683  0.0115 -0.1340
20747W        W37595  14.431   8.750   5.826 -0.0080 -0.0541  0.0352
20748W        W37596  15.149   2.066  13.195 -0.2391 -0.4339 -0.2577
20749W        W37597   0.642   4.818  15.628  0.1561 -0.0018  0.0278
20750W        W37598  10.279  16.139  12.252 -0.1620 -0.1095 -0.0063
20751W        W37599   2.664  10.350   1.492  0.1724 -0.0541 -0.0885
20752W        W37600   9.085   9.078  13.315 -0.2158  0.0460  0.1149
20753W        W37601   2.671   8.377   3.521 -0.1157  0.1181 -0.2013
20754W        W37602   8.641  13.437  14.708  0.0946  0.0817  0.1741
20755W        W37603   5.989   6.262   4.144  0.0683  0.2291 -0.3236
20756W        W37604  10.710   9.866  17.603  0.0045 -0.2844  0.2024
20757W        W37605   0.357   1.456   3.906  0.2853 -0.1547 -0.1167
20758W        W37606   4.010   6.791   4.232  0.1772 -0.0019 -0.2149
20759W        W37607   2.027  14.778  13.309  0.0295 -0.0706 -0.0527
20760W        W37608  10.065   9.445   4.856  0.0811  0.0988  0.0804
20761W        W37609   6.324   5.631   1.440 -0.0010  0.0011  0.1436
20762W        W37610   0.766  14.982   5.768  0.0333 -0.1771  0.0766
20763W        W37611   9.139   1.201  17.252  0.1741 -0.0293 -0.1418
20764W        W37612   6.763  15.994  12.370  0.0919 -0.0777  0.1245
20765W        W37613  15.887  10.209  17.415 -0.0249  0.1613 -0.0734
20766W        W37614  14.723   5.274   4.235 -0.0903  0.0793  0.0380
20767W        W37615   5.984   9.474   4.652  0.0477  0.1304 -0.3760
20768W        W37616  15.581   3.400   3.937  0.0651  0.4388  0.0149
20769W        W37617   9.737  11.217   1.896  0.2208 -0.0339 -0.2041
20770W        W37618   4.000  15.808  11.878 -0.1722  0.1500 -0.0543
20771W        W37619   4.932  13.021   3.090  0.1971 -0.0304  0.0403
20772W        W37620  12.624   2.574   1.353  0.2312  0.1379  0.0351
20773W        W37621  14.384   7.785  13.168  0.1763 -0.2286  0.0016
20774W        W37622   3.016   7.182   2.593  0.2443  0.0822 -0.1661
20775W        W37623  15.797   0.479   4.019  0.0765 -0.2642 -0.1632
20776W        W37624  16.421   6.772  15.787 -0.2000  0.2656 -0.0385
20777W        W37625   8.501   3.385   2.137 -0.0437  0.0876  0.0130
20778W        W37626  11.192  14.204  17.658 -0.1264 -0.2826  0.0354
20779W        W37627   2.648   6.415  17.424 -0.2471 -0.0429 -0.1126
20780W        W37628   8.768   6.095  15.696 -0.1039 -0.3539 -0.1428
20781W        W37629  11.450   7.526   1.218  0.0897  0.2768 -0.1508
20782W        W37630   4.589  14.039  12.565  0.1024 -0.1723 -0.3276
20783W        W37631   5.192  13.993   1.097  0.3707  0.0735  0.1794
20784W        W37632   1.211  14.339  13.458 -0.1183  0.1260 -0.0790
20785W        W37633   5.365   3.348  14.336 -0.0961  0.2805 -0.0702
20786W        W37634  11.605  16.364   2.513 -0.1102 -0.3029  0.1678
20787W        W37635   8.065  10.790   1.566  0.2899  0.3922  0.1039
20788W        W37636   2.842   0.135   3.939 -0.0830 -0.0501 -0.0282
20789W        W37637   7.445   1.240  14.391  0.2341  0.0525  0.3348
20790W        W37638   3.003  16.067   2.299  0.0490  0.1121  0.0593
20791W        W37639   4.892   2.260   1.853  0.1585  0.1442 -0.0689
20792W        W37640   5.881  10.326   3.906  0.1958 -0.0429 -0.1828
20793W        W37641  11.477   6.351   1.446 -0.3484  0.0805 -0.0773
20794W        W37642   8.763  16.466   2.783  0.0469 -0.3297 -0.0440
20795W        W37643  11.367   6.971  13.596 -0.2348  0.1277 -0.4595
20796W        W37644   2.055   9.507   4.859 -0.1248 -0.2880 -0.1672
20797W        W37645   6.229   4.475   2.790  0.0115  0.2111 -0.1130
20798W        W37646  11.755  10.348  13.849  0.1058 -0.0944  0.1768
20799W        W37647  12.741  14.349  17.584  0.3050 -0.1724  0.2726
20800W        W37648  11.042  13.154   5.176 -0.1007  0.1162  0.1966
20801W        W37649   3.809  12.806   5.024  0.3648 -0.0022 -0.2757
20802W        W37650   3.931   3.078  17.557  0.0488  0.2078 -0.1397
20803W        W37651  15.125   0.335  11.886 -0.0420 -0.3580  0.0368
20804W        W37652   0.266  17.018  12.174 -0.0697 -0.0600  0.0184
20805W        W37653   5.608   8.794   2.615 -0.2276  0.5448 -0.2360
20806W        W37654   5.536   8.478  13.963  0.4231 -0.0284  0.0132
20807W        W37655   9.181   3.577   5.250  0.1380 -0.4424  0.1345
20808W        W37656   7.463  13.461  14.161  0.0993  0.0355 -0.0001
20809W        W37657   7.811   5.088  16.411  0.1800 -0.1120  0.1579
20810W        W37658  10.610   8.817   3.265  0.0850  0.0208  0.0885
20811W        W37659   6.480  17.036  16.015  0.1489 -0.3176 -0.3075
20812W        W37660  14.197   3.711  17.603  0.0430 -0.1703 -0.0426
20813W        W37661   1.087   9.333  14.365 -0.2455 -0.1206  0.1217
20814W        W37662  15.669   4.521   5.024  0.1121  0.1104  0.0155
20815W        W37663   4.148   5.027   3.080 -0.2119  0.2450 -0.1797
20816W        W37664   6.238  10.309  16.070 -0.0406  0.1009  0.0659
20817W        W37665  16.687   5.799  12.463  0.0278  0.0121 -0.0659
20818W        W37666   2.148  11.006  15.437  0.2398 -0.1073 -0.0128
20819W        W37667   7.562   5.309  12.349 -0.0500 -0.3970  0.0992
20820W        W37668   3.762  12.547   2.986 -0.0399 -0.1644 -0.0511
20821W        W37669   3.775  12.214  12.446  0.2630 -0.2808  0.1045
20822W        W37670   2.542   8.893   5.348 -0.0312  0.0023  0.2559
20823W        W37671  15.854   0.952   2.083  0.1421  0.0121  0.1179
20824W        W37672  16.307   6.219  14.201  0.0247  0.4011  0.1375
20825W        W37673   4.102  15.466  17.080  0.0708 -0.0275  0.1711
20826W        W37674  12.029   1.777  13.666  0.0738  0.0999 -0.2518
20827W        W37675   3.558  14.393   5.033  0.0705 -0.2405 -0.1278
20828W        W37676   5.642   8.500  16.021  0.0890  0.1103  0.0250
20829W        W37677   3.295  16.576  16.156  0.3257 -0.1738  0.0164
20830W        W37678   8.242   4.881  17.140  0.0417 -0.1117 -0.0169
20831W        W37679  10.214   4.438  15.186  0.0495 -0.1518 -0.1894
20832W        W37680  16.633   9.242  15.015  0.0725  0.1234  0.2018
20833W        W37681   2.326  11.120  12.379  0.0484  0.3493 -0.0489
20834W        W37682  11.094   3.552  14.478  0.0204  0.1142  0.1989
20835W        W37683   9.813   4.271   4.631  0.0293 -0.4305  0.1692
20836W        W37684   4.776   2.204  16.492  0.0727 -0.0233 -0.1203
20837W        W37685   7.703   3.564   4.266  0.0441  0.3066  0.2349
20838W        W37686   8.246   2.156   3.475 -0.2579  0.2137 -0.1744
20839W        W37687  12.872   9.966   0.623  0.0394  0.3719  0.1635
20840W        W37688  15.292   0.019  13.875  0.2730  0.0141 -0.0579
20841W        W37689   4.361  15.091  14.763 -0.0371 -0.1530  0.1564
20842W        W37690   5.405  12.210   4.936 -0.1004  0.0265  0.2103
20843W        W37691  12.316   8.890  16.551  0.0030 -0.1460  0.1084
20844W        W37692   5.574  10.298  17.804 -0.1079  0.3599 -0.1201
20845W        W37693  11.627  13.104   3.193 -0.3435 -0.0838 -0.1575
20846W        W37694   5.517   1.772  14.410  0.3616  0.1997 -0.1688
20847W        W37695   3.655   8.009  15.925  0.2372 -0.0349  0.0360
20848W        W37696   4.859   3.208  17.774 -0.1356  0.2984  0.1704
20849W        W37697  10.097  12.225  14.889 -0.0105 -0.0860  0.0876
20850W        W37698  13.815   3.466  15.101  0.2478 -0.3303  0.1708
20851W        W37699   8.826   7.438  13.692 -0.5160  0.0357  0.0453
20852W        W37700  16.748   3.798   4.921  0.0715 -0.2006 -0.0974
20853W        W37701   0.991   5.654  14.937 -0.0204 -0.2401 -0.0564
20854W        W37702   5.256  12.365  16.783 -0.2141 -0.2257  0.4927
20855W        W37703  12.642  12.134  14.942  0.0953 -0.1713 -0.0453
20856W        W37704   0.907   9.995  17.560 -0.2089 -0.1564 -0.0714
20857W        W37705   3.906   1.891  17.307  0.0587 -0.1006 -0.2091
20858W        W37706   2.436  15.327  12.121 -0.0742 -0.1354  0.2744
20859W        W37707  11.885   4.553  14.684 -0.2757 -0.1300  0.2527
20860W        W37708   7.060   6.576  17.752  0.0749 -0.3505  0.1994
20861W        W37709   3.471  11.154   3.126 -0.0738 -0.0238  0.1314
20862W        W37710  11.735   4.981   1.939 -0.0444  0.0433 -0.0716
20863W        W37711   0.438   4.805  12.746 -0.3668  0.3059 -0.2979
20864W        W37712   0.989  12.298   2.790 -0.3416 -0.1071 -0.0016
20865W        W37713   0.692   5.521   5.711  0.1712  0.0381  0.1427
20866W        W37714  16.109   9.673   0.390  0.2312 -0.1251 -0.0269
20867W        W37715  10.552  13.628  17.269  0.0695 -0.0628  0.1227
20868W        W37716   9.239  10.650  12.655  0.0381 -0.0330 -0.1105
20869W        W37717   6.952   8.173   0.312 -0.0793  0.2134  0.0433
20870W        W37718  10.095   1.913   1.488  0.0547  0.0603  0.4070
20871W        W37719  10.861   7.093   1.525 -0.0118  0.0617 -0.2672
20872W        W37720  12.059   0.050  12.370 -0.1239 -0.0194 -0.0713
20873W        W37721  10.622   6.257   5.370  0.1821  0.0103  0.1448
20874W        W37722   0.748   3.996   3.555  0.1937 -0.1690 -0.1513
20875W        W37723  10.722  15.237  16.021  0.0113 -0.1433 -0.0109
20876W        W37724  13.269  13.279  13.681  0.0164  0.0031 -0.2114
20877W        W37725  11.776   4.416  17.115 -0.2557 -0.1347 -0.3207
20878W        W37726  16.894   7.701   2.112 -0.0503  0.0994 -0.3845
20879W        W37727   3.823   7.599   2.304 -0.1928  0.1463  0.2536
20880W        W37728   0.912  10.830   1.891 -0.1457  0.3332  0.2625
20881W        W37729  15.278  13.203  15.139 -0.0781 -0.2590 -0.1055
20882W        W37730   1.385   8.313   4.295  0.1634 -0.0887 -0.0839
20883W        W37731   2.781   4.412  12.322 -0.0119 -0.2947 -0.2733
20884W        W37732   2.433   1.002  14.335  0.2394  0.2542 -0.1343
20885W        W37733   6.578   1.180   3.360  0.1503 -0.2697 -0.0476
20886W        W37734  11.544   7.832   5.144 -0.3588  0.0528 -0.4021
20887W        W37735   1.125   3.431   1.553  0.0166 -0.0495 -0.2235
20888W        W37736   1.110   3.028  17.071  0.0518  0.3097 -0.1676
20889W        W37737   5.267   6.933   2.483 -0.1178 -0.4228 -0.0214
20890W        W37738  15.717  14.625  13.318 -0.0101 -0.3347  0.0907
20891W        W37739  15.185   3.185   6.379 -0.1113  0.2004 -0.0282
20892W        W37740  14.528   7.809   5.165  0.0366  0.0411 -0.0875
20893W        W37741  10.254  14.296  12.993 -0.0468  0.1638  0.2023
20894W        W37742   0.103  10.964   4.695  0.1502 -0.1051  0.1791
20895W        W37743  16.525   0.404   1.603  0.1388 -0.0345  0.0169
20896W        W37744   0.921   3.241   1.961 -0.0260  0.2001  0.1277
20897W        W37745   8.561  14.001  17.291  0.2084 -0.2500  0.2132
20898W        W37746  10.695  11.368   3.242 -0.2607 -0.3314  0.2098
20899W        W37747   3.579   3.979  13.140 -0.1608 -0.1131 -0.1607
20900W        W37748   1.019   3.773  13.643 -0.2852  0.0898  0.0175
20901W        W37749   5.845   7.542   5.273 -0.2492  0.2642  0.0456
20902W        W37750  14.349  15.213   4.290  0.4568  0.0682 -0.0784
20903W        W37751   3.404  14.960  17.154  0.0320  0.1232 -0.3785
20904W        W37752   7.972   3.525   1.798 -0.1407  0.1296 -0.2083
20905W        W37753  12.338  10.217   3.120 -0.3003  0.1257  0.0658
20906W        W37754   0.506  11.269   3.672  0.0237 -0.1789 -0.0129
20907W        W37755   7.856  11.357   2.349 -0.0484  0.2106  0.1034
20908W        W37756   7.493   7.705   3.993  0.0551 -0.2169  0.2070
20909W        W37757   8.904   2.521   2.978 -0.0663 -0.0429 -0.1272
20910W        W37758  16.884   0.581   4.706  0.1287  0.1506  0.0593
20911W        W37759   7.353   0.324   4.675  0.1550  0.0592  0.1132
20912W        W37760  16.436   8.372  14.743 -0.2378  0.0055 -0.0534
20913W        W37761   1.215   3.273  15.104 -0.0616 -0.0418  0.1250
20914W        W37762   8.658  13.758   3.478  0.1658  0.1627 -0.0230
20915W        W37763   9.385   2.075   0.376  0.2694 -0.0972 -0.1249
20916W        W37764   4.743   0.241  15.608 -0.0926 -0.5385 -0.0772
20917W        W37765  14.327  17.024  16.063 -0.0273  0.5270  0.0771
20918W        W37766  14.845  10.993   0.977  0.2622  0.0226  0.2218
20919W        W37767   1.679  15.055   4.142 -0.1203  0.0622  0.0597
20920W        W37768   8.308   0.156   3.833  0.0006 -0.0658 -0.0637
20921W        W37769  15.342   3.372   0.949  0.0888  0.2338 -0.0155
20922W        W37770  13.666  15.388  17.404 -0.1556 -0.0344  0.0304
20923W        W37771   7.225  10.785  13.071  0.1525 -0.2722  0.0691
20924W        W37772  14.855  16.440   2.338  0.1819 -0.2372 -0.0037
20925W        W37773   5.715   7.586   3.968  0.1322 -0.3243 -0.2717
20926W        W37774   4.092  11.444  17.010 -0.1552 -0.1190 -0.0451
20927W        W37775   7.433   4.756   1.921 -0.0641 -0.0771 -0.0924
20928W        W37776   6.288  12.653  13.817 -0.0288 -0.3132 -0.0646
20929W        W37777  11.224   8.333   5.380 -0.0002  0.1066  0.1482
20930W        W37778   2.504   1.753   1.222 -0.0015  0.1482 -0.2125
20931W        W37779  10.708  14.470   4.182 -0.1311 -0.1490 -0.2972
20932W        W37780   9.850   6.833   1.994  0.4622 -0.2618 -0.1186
20933W        W37781   9.993  12.239   0.319 -0.1105  0.2603 -0.1577
20934W        W37782  16.537   7.244  15.557 -0.0570  0.4340 -0.0616
20935W        W37783  14.959  12.975   2.874  0.0659  0.2188  0.0222
20936W        W37784  15.432   9.586  12.600 -0.4726  0.0856  0.0341
20937W        W37785   9.843  13.673   5.667  0.1003  0.1125 -0.0996
20938W        W37786  16.949  13.079  16.975 -0.4869  0.1432 -0.1845
20939W        W37787   6.331   1.566  16.273 -0.3391  0.2222  0.2751
20940W        W37788  16.714  13.186   5.483 -0.1462  0.3175  0.1391
20941W        W37789   5.515  16.360  14.809  0.0610 -0.0424  0.1586
20942W        W37790   0.975   5.564   1.106  0.0749 -0.0482 -0.1830
20943W        W37791   3.560   3.778  15.455  0.2802 -0.1370  0.2041
20944W        W37792  10.482   1.213  17.747  0.0333 -0.2633  0.1798
20945W        W37793  11.907  17.003   1.589 -0.1015  0.4318  0.0849
20946W        W37794   8.718  14.466  15.539 -0.0093 -0.1999 -0.0313
20947W        W37795  10.252   5.545   4.104  0.3429  0.1148 -0.2340
20948W        W37796  15.151   1.908  16.390  0.0346  0.3379 -0.3574
20949W        W37797  12.308   6.703  13.688  0.1248  0.2950 -0.0597
20950W        W37798  16.988   5.015  14.550  0.0819  0.3646  0.0782
20951W        W37799  15.034   9.227  13.449 -0.0349 -0.1462  0.1996
20952W        W37800   6.262   3.257   5.863 -0.1498 -0.0352  0.0809
20953W        W37801  15.222   6.854  17.213 -0.1356 -0.1406  0.2738
20954W        W37802   2.114   4.567   3.419 -0.1809  0.0111 -0.0367
20955W        W37803   2.831  11.041   2.436 -0.0219  0.2055  0.1392
20956W        W37804   4.965   0.020  15.971  0.3425  0.2475 -0.0717
20957W        W37805  10.617  15.983  15.198 -0.2916  0.0174 -0.0515
20958W        W37806   3.104  15.337   0.139 -0.2741  0.2106  0.2526
20959W        W37807  13.105   7.483  12.681  0.2486  0.1358  0.0396
20960W        W37808  15.071   3.919  15.043  0.0228  0.0846 -0.2053
20961W        W37809   3.905  11.169   5.325  0.0603 -0.0905 -0.0175
20962W        W37810   9.487  10.449   4.186 -0.0552  0.1140 -0.0094
20963W        W37811  14.306  14.798   0.335  0.2939 -0.0014  0.0292
20964W        W37812   9.796   4.228  15.036  0.2356 -0.3351 -0.1620
20965W        W37813   7.150  15.506   5.266 -0.0867 -0.0116 -0.0767
20966W        W37814   5.179  15.175   2.263 -0.0768  0.0562 -0.0279
20967W        W37815  10.035   6.882  13.092 -0.1203 -0.0051 -0.3279
20968W        W37816   1.080   5.280   3.447  0.0556 -0.1178  0.1100
20969W        W37817  14.264   0.411   6.048 -0.0937 -0.1073 -0.2909
20970W        W37818  15.304  15.559   1.299  0.2727 -0.1771 -0.1779
20971W        W37819   5.376  12.990  16.078  0.2499  0.0884  0.2589
20972W        W37820  16.118  12.985   3.284 -0.0199 -0.0444  0.0838
20973W        W37821   9.378   4.360  12.109  0.1642 -0.0077  0.0680
20974W        W37822   5.392  16.782  17.060 -0.1068  0.0195  0.2090
20975W        W37823  13.623   3.284   4.159 -0.1830 -0.1718  0.1331
20976W        W37824   8.529  12.263   1.042  0.2957 -0.3645 -0.1979
20977W        W37825   7.078  13.367  16.057 -0.3012  0.1028 -0.1190
20978W        W37826   8.454  11.840   5.532  0.2080 -0.0062 -0.1831
20979W        W37827  10.561   0.351  16.986  0.1783 -0.0366  0.0527
20980W        W37828  16.607   6.348   3.329  0.1154 -0.0136  0.0631
20981W        W37829  12.087  11.103   3.718 -0.1093  0.1601 -0.1548
20982W        W37830  11.346   3.507  15.310  0.3095 -0.2100  0.1208
20983W        W37831  11.426   3.106   1.602 -0.3114 -0.0249  0.0847
20984W        W37832  12.501  11.685   1.822 -0.2413  0.4098 -0.1701
20985W        W37833   3.103   0.972   1.344  0.0563  0.2117 -0.0153
20986W        W37834  15.350   8.260   0.839 -0.0809 -0.2412 -0.0892
20987W        W37835  10.049   6.016   4.039 -0.1330  0.1209  0.2027
20988W        W37836   2.665  16.116   5.534  0.0453  0.0571  0.0308
20989W        W37837   8.086   6.944   2.257 -0.3475 -0.1428  0.1191
20990W        W37838   9.217  14.076   1.105  0.0393 -0.1341  0.3388
20991W        W37839  14.173   1.916  16.392  0.2215  0.2117 -0.0251
20992W        W37840   1.981  12.312   5.090 -0.2544 -0.0393 -0.2311
20993W        W37841  12.668   3.732   1.556 -0.2383  0.1209 -0.0020
20994W        W37842   0.697   2.118  16.992  0.2708 -0.0378  0.1691
20995W        W37843  15.685  12.281  16.764  0.1756 -0.0237 -0.1072
20996W        W37844   8.213  15.260  16.965  0.0455  0.1384  0.3465
20997W        W37845  12.227   5.142   2.680  0.3632  0.0300  0.1501
20998W        W37846   3.591   8.289   5.110  0.2221  0.3298 -0.1239
20999W        W37847   4.427   6.751   0.604  0.1626 -0.4128  0.1410
21000W        W37848  10.986  12.640   2.199  0.2342 -0.1299 -0.3087
21001W        W37849   1.770   8.789   2.618 -0.0930 -0.0589 -0.0029
21002W        W37850   3.062  15.939   6.154 -0.0918  0.1583 -0.1300
21003W        W37851   6.442   6.153   0.586 -0.3640  0.4430  0.2788
21004W        W37852  12.121   1.850  13.009  0.1544  0.1018  0.5938
21005W        W37853  11.263   2.481   3.424 -0.2119  0.0276  0.0630
21006W        W37854   9.939  15.694   4.280  0.3245 -0.1269 -0.4421
21007W        W37855  11.401  12.757   2.977  0.2174 -0.0045 -0.0294
21008W        W37856  15.816   3.494   5.196  0.1964 -0.3969 -0.2987
21009W        W37857  15.456  15.675  12.150 -0.2545  0.0588 -0.0123
21010W        W37858  14.665   3.559  14.718  0.1414  0.1376  0.3479
21011W        W37859   3.277  16.559  14.030  0.0784  0.0582  0.0199
21012W        W37860   3.119   9.774   5.966 -0.1772  0.0699  0.1505
21013W        W37861   7.966  10.143   5.466 -0.2893  0.0897 -0.0370
21014W        W37862   3.069   6.685   5.187  0.1803  0.0498  0.0579
21015W        W37863   9.822   0.579   5.365  0.1204  0.0061 -0.1755
21016W        W37864   8.450   1.511   0.081  0.1234 -0.1220  0.1438
21017W        W37865  11.876   8.080   3.744 -0.1159  0.0572 -0.2968
21018W        W37866  12.626  11.024   2.946 -0.1950  0.2630  0.0797
21019W        W37867   0.585   3.548   1.720 -0.1704 -0.0156 -0.0009
21020W        W37868  15.181   5.165   4.562  0.3054  0.2936  0.0645
21021W        W37869   0.336   5.323   3.997 -0.0482 -0.0847 -0.0672
21022W        W37870   5.441  13.980  12.694 -0.0342 -0.0641  0.2142
21023W        W37871   5.455  12.813   4.738  0.2718 -0.2037  0.0154
21024W        W37872   7.278   3.217   0.576 -0.1406 -0.0157  0.0274
21025W        W37873   0.494  11.175   1.353 -0.0208 -0.1563 -0.1992
21026W        W37874  15.679   5.082  15.474 -0.0528  0.1144  0.1754
21027W        W37875  10.515  11.215   4.623 -0.2439 -0.1824 -0.2102
21028W        W37876   2.713   6.344  15.527 -0.1309  0.1105  0.0008
21029W        W37877   8.864  13.835  17.647  0.1287  0.0834  0.2462
21030W        W37878   7.505  13.859  11.389 -0.2214  0.1153 -0.0275
21031W        W37879  14.501   0.956   5.195  0.0781 -0.2670 -0.0304
21032W        W37880  15.038   0.229   3.293  0.3735 -0.0187 -0.1293
21033W        W37881  11.409  11.457  14.987 -0.1159 -0.0678  0.1195
21034W        W37882   8.546  12.586   2.263 -0.2026 -0.0771  0.1936
21035W        W37883   0.614  12.742  12.808  0.2735 -0.0593 -0.2631
21036W        W37884   3.386   9.075   5.490  0.3046  0.0635 -0.1238
21037W        W37885  10.122   4.020   3.752 -0.0468 -0.0119  0.4663
21038W        W37886  13.545   9.110   5.159 -0.2576 -0.1359  0.0801
21039W        W37887  16.126   1.123   4.556 -0.0698  0.0128 -0.0594
21040W        W37888   1.245   0.720   4.320 -0.1014  0.0514  0.1830
21041W        W37889  14.474   0.665   0.252 -0.0952 -0.1061 -0.2413
21042W        W37890   8.957   6.197   1.048  0.2315 -0.1467 -0.2838
21043W        W37891   9.373  16.494   5.493 -0.1989 -0.1052  0.0853
21044W        W37892  11.379   4.362  17.422 -0.2057 -0.2897  0.1439
21045W        W37893   6.145  16.595  12.240 -0.0212  0.0624  0.0461
21046W        W37894  16.802  14.378  14.302  0.0094 -0.2161 -0.0250
21047W        W37895   0.835   6.169  15.188 -0.3604 -0.0642  0.1775
21048W        W37896   4.254   7.016  12.656 -0.0413  0.1297 -0.2969
21049W        W37897  12.922  16.653   0.961  0.0664 -0.0507  0.1676
21050W        W37898  10.310   7.102  13.686 -0.2453 -0.1493  0.0961
21051W        W37899   6.729  10.862  12.952 -0.0422 -0.0372  0.1932
21052W        W37900  15.658  14.601  16.279  0.1031 -0.1306  0.0195
21053W        W37901  11.294   0.579   4.191 -0.1642  0.0473  0.0478
21054W        W37902  10.128   2.774   3.415  0.1950  0.1371  0.0132
21055W        W37903   8.059   4.361  14.858 -0.2742  0.0424  0.2297
21056W        W37904  14.727   9.755   1.810  0.0848  0.2298  0.0445
21057W        W37905   3.464  12.050   1.841  0.1995 -0.1655 -0.0698
21058W        W37906  14.089  13.429  15.535  0.0024  0.1860  0.0925
21059W        W37907   9.752   3.894  13.348 -0.1796  0.1386 -0.0216
21060W        W37908  14.718   2.959   1.154  0.1798 -0.0306  0.2077
21061W        W37909  15.229   2.861  13.456  0.1991 -0.3717 -0.1969
21062W        W37910  16.785  12.948  13.034 -0.0285  0.0492  0.1527
21063W        W37911  11.524   3.459  12.184 -0.1131 -0.1574 -0.0166
21064W        W37912  10.230  12.780   5.485  0.2209 -0.1066  0.0314
21065W        W37913  10.209   2.650  14.752  0.0402 -0.2892  0.0667
21066W        W37914  10.890  16.522  14.440  0.0306 -0.1154  0.1390
21067W        W37915  14.291   1.892   2.957 -0.0188  0.3022 -0.2821
21068W        W37916  10.932   2.362   3.808 -0.1030  0.0979  0.1783
21069W        W37917   0.884   7.660  14.049 -0.1224 -0.2635 -0.1239
21070W        W37918   8.107  13.037  17.711 -0.0614  0.1561 -0.2674
21071W        W37919   5.462  11.053  12.250 -0.1133  0.0115 -0.2250
21072W        W37920   1.312  13.878  15.934 -0.0716 -0.0521 -0.1593
21073W        W37921  14.823  10.221  15.443 -0.0996  0.0511 -0.2353
21074W        W37922  12.484  12.216  12.825  0.3226  0.0560 -0.3536
21075W        W37923   3.434   7.563   1.487 -0.0019  0.2684  0.1811
21076W        W37924   0.018   8.256  11.982 -0.0926 -0.1443 -0.0441
21077W        W37925   5.915   9.837   4.000  0.0376  0.0264  0.0445
21078W        W37926   5.695   2.083  15.551 -0.1624 -0.0462 -0.0465
21079W        W37927   3.289  10.351  12.260 -0.0197 -0.0363  0.0898
21080W        W37928   7.075  14.577   6.510  0.2385 -0.1190  0.0245
21081W        W37929   1.041   0.570  16.449  0.1263 -0.1253 -0.1588
21082W        W37930  12.739  10.184  14.335  0.0673  0.0008  0.0974
21083W        W37931  11.968   0.798   3.087 -0.2592 -0.2922 -0.0199
21084W        W37932   3.451   7.042  15.510 -0.2857  0.0072  0.2630
21085W        W37933   7.358  14.497  12.658 -0.2019 -0.1536 -0.2913
21086W        W37934   5.420   0.994  13.738 -0.4775  0.0327  0.1540
21087W        W37935  11.983  14.868   2.505  0.0528 -0.2442 -0.0190
21088W        W37936   8.981   3.278  16.167 -0.1526 -0.1863  0.1673
21089W        W37937   3.301   4.568   6.442  0.0568  0.1680  0.2682
21090W        W37938  12.974   5.225   4.391 -0.0735  0.2238  0.3162
21091W        W37939   5.393   8.801   0.435 -0.3234  0.0435  0.0353
21092W        W37940   7.196   2.385  17.677 -0.1451  0.1239 -0.0751
21093W        W37941  14.831   0.872  13.380  0.1431 -0.0372 -0.1496
21094W        W37942   5.801   9.622   2.493 -0.1793 -0.1109 -0.0406
21095W        W37943   0.674   2.070   1.593 -0.1476  0.0076  0.1958
21096W        W37944   1.837   8.212   1.753 -0.0396  0.1354 -0.2054
21097W        W37945   2.478   2.376   3.496  0.2480 -0.1825  0.2131
21098W        W37946   6.754   6.969  12.749  0.1958 -0.0138  0.4207
21099W        W37947   1.815   0.807  17.659 -0.3542 -0.0311 -0.1449
21100W        W37948   3.067  15.529   2.323  0.0238 -0.2048  0.0613
21101W        W37949  16.068   0.172  12.188 -0.0218 -0.0816 -0.0639
21102W        W37950   9.877  13.862  13.094  0.0642  0.0834  0.1209
21103W        W37951   7.440  11.549   1.525  0.2845  0.1269 -0.0791
21104W        W37952   5.770  10.342  13.566  0.4947 -0.4577 -0.2195
21105W        W37953   0.829  16.993   0.015  0.0114  0.0010  0.1960
21106W        W37954  10.619   0.305  14.843  0.2565  0.3128  0.0383
21107W        W37955   4.321  10.577  17.667  0.0347 -0.0222  0.0892
21108W        W37956  12.814   4.149  12.015 -0.1354  0.0129 -0.1653
21109W        W37957  10.023   3.508  16.555 -0.0210  0.2431  0.2391
21110W        W37958   8.001  15.487   5.506 -0.2994 -0.1697  0.1224
21111W        W37959  12.304  10.048   2.208  0.0743 -0.0625  0.0372
21112W        W37960   9.232  13.911   0.593 -0.1565 -0.0201  0.3063
21113W        W37961   4.569  13.102  15.800  0.1468 -0.1053  0.1220
21114W        W37962   7.456  10.397  17.336  0.1818 -0.1839 -0.2537
21115W        W37963   2.405   3.628   1.351 -0.0780 -0.0306  0.2449
21116W        W37964  14.006   8.676  17.070 -0.3180 -0.2771 -0.0174
21117W        W37965   9.001   3.236   0.107  0.0595  0.0954  0.1040
21118W        W37966   8.828   3.472  12.761 -0.1752 -0.0756  0.0581
21119W        W37967  12.773  10.670  17.314  0.0240  0.2344 -0.1070
21120W        W37968   4.528   0.286   1.215  0.0990 -0.0625 -0.1868
21121W        W37969   3.330  15.472   4.625  0.0903  0.0317 -0.1108
21122W        W37970  11.345  10.412  16.452 -0.1391  0.0734  0.1464
21123W        W37971  13.287   5.115  14.433 -0.3653 -0.1471 -0.4234
21124W        W37972   5.115   2.989   2.708 -0.1770 -0.0796  0.1030
21125W        W37973   6.113  15.655   1.501  0.0853 -0.1065 -0.1763
21126W        W37974  11.546   1.202   1.811  0.0371  0.0390  0.3109
21127W        W37975  15.536   0.863   2.500 -0.1917 -0.0546 -0.0688
21128W        W37976   5.321   3.518  12.783  0.0773 -0.0610 -0.2004
21129W        W37977   0.599  15.883  14.093 -0.1644 -0.1556 -0.1581
21130W        W37978   1.672   5.143  12.471 -0.0153  0.2113  0.0912
21131W        W37979   7.312  11.515  13.604 -0.0627  0.0614  0.0481
21132W        W37980  15.016   7.743   4.328  0.0224 -0.0242 -0.0765
21133W        W37981  11.875   0.663  17.331 -0.0581  0.0515 -0.0902
21134W        W37982  12.798  15.779   0.784 -0.4356  0.0034 -0.0906
21135W        W37983  11.455   3.838   0.378 -0.1994  0.2776  0.1210
21136W        W37984   3.139  10.563   4.168 -0.1616 -0.0597 -0.0494
21137W        W37985   4.651   0.657  16.314 -0.1335 -0.2508  0.0688
21138W        W37986   1.407   5.168   3.938  0.0902  0.0844  0.1126
21139W        W37987  16.534   8.562  14.254 -0.3640 -0.0866  0.1514
21140W        W37988   7.718   8.697   5.099 -0.0396 -0.0035 -0.1737
21141W        W37989   8.636   6.259  16.833  0.1476  0.1079  0.0683
21142W        W37990   7.358   6.690  17.301 -0.0549  0.2566  0.0699
21143W        W37991   1.009  15.165  12.936 -0.1916  0.3204 -0.3638
21144W        W37992   8.523   2.360   3.964  0.1044  0.3332  0.0982
21145W        W37993  12.973  11.984   6.143 -0.2458  0.2081  0.0703
21146W        W37994   0.799   0.101   3.706  0.1848  0.0913 -0.0730
21147W        W37995  14.647   1.467   0.809 -0.2783  0.0479 -0.2451
21148W        W37996  12.267   0.042   3.894 -0.0223  0.0076  0.0489
21149W        W37997  15.956   9.185  14.981 -0.1406  0.1515 -0.0544
21150W        W37998   3.293   3.457   3.483  0.2163 -0.0779 -0.2094
21151W        W37999  16.084   4.176   5.222 -0.0388 -0.1619 -0.0143
21152W        W38000   3.741   2.588  15.784 -0.1416  0.1342  0.3335
21153W        W38001  16.936   7.149  15.293 -0.1310  0.0344  0.0875
21154W        W38002  15.413   9.243  17.241  0.0952  0.0529 -0.0960
21155W        W38003   7.655   9.346  14.657  0.0271  0.0273 -0.1863
21156W        W38004  14.588   2.321  13.923  0.0406 -0.0205 -0.0552
21157W        W38005  15.674  16.951  15.805 -0.0963  0.1022 -0.1240
21158W        W38006   4.231  16.293   3.405 -0.0592 -0.1706  0.2505
21159W        W38007   4.345   8.058   0.048  0.2082  0.0117  0.0948
21160W        W38008  10.413  10.376   5.391 -0.0581  0.1016 -0.0558
21161W        W38009   8.580   7.373  14.464  0.0596  0.0027 -0.0926
21162W        W38010  11.962  10.923   5.869  0.0742 -0.1390 -0.2113
21163W        W38011   5.227   2.484  14.393  0.0396  0.1812 -0.0062
21164W        W38012   1.345  10.212  17.761  0.1200  0.2273  0.2815
21165W        W38013  10.631   9.257   1.882 -0.1227  0.0883 -0.0866
21166W        W38014  11.959  15.070  13.148  0.1136 -0.0435  0.1129
21167W        W38015   3.092   4.929   4.044  0.1496 -0.1006 -0.2933
21168W        W38016  16.925  10.524   2.107  0.2333  0.3835  0.2361
21169W        W38017   7.675   7.840   5.110 -0.1410  0.0326 -0.0551
21170W        W38018   9.232   5.241  14.027 -0.0870  0.0453 -0.1675
21171W        W38019  11.720  11.344   1.106  0.1073 -0.2467 -0.1377
21172W        W38020   0.328   2.882   3.272 -0.0901 -0.1197 -0.5105
21173W        W38021   3.871  13.965   5.445  0.1325  0.0493 -0.0282
21174W        W38022   7.194  10.118   3.350  0.2585 -0.1156 -0.3289
21175W        W38023   4.104  14.024   4.349  0.0414 -0.0251 -0.0728
21176W        W38024   6.821   5.175   1.339  0.1132  0.0780 -0.0486
21177W        W38025   9.513   0.220   5.217 -0.1206 -0.1715  0.1238
21178W        W38026  16.185   9.868  17.753 -0.0140  0.0566  0.1977
21179W        W38027   5.804  16.607  13.760 -0.2109  0.3316  0.1079
21180W        W38028  14.686   1.025   1.476 -0.2048 -0.0882 -0.0908
21181W        W38029   1.593  13.195  14.660 -0.1972  0.4016  0.1394
21182W        W38030   4.648  13.451   3.224  0.0731  0.0914 -0.3418
21183W        W38031   4.156  15.657   3.493  0.4800 -0.0512 -0.0522
21184W        W38032   5.272  11.455  15.094  0.0273  0.1703 -0.1963
21185W        W38033  12.958   5.240  17.692  0.1721 -0.1326 -0.2889
21186W        W38034   5.687  13.833  14.092  0.1570 -0.1365  0.3724
21187W        W38035   1.491  10.682   2.996  0.1725  0.0402  0.2610
21188W        W38036  16.397   4.791  12.154  0.1645  0.2925  0.0542
21189W        W38037  16.648   5.663   4.482 -0.0536 -0.1486  0.1144
21190W        W38038   3.304  11.608  11.961 -0.0991 -0.2030  0.0689
21191W        W38039  14.536   0.578   1.220  0.1423  0.1110  0.1608
21192W        W38040   7.899  14.317  16.715 -0.1039  0.1539 -0.0229
21193W        W38041  12.182   3.185   1.933  0.3888  0.2815 -0.2060
21194W        W38042   6.707   6.078  13.436 -0.0769  0.1947 -0.1157
21195W        W38043   8.385  14.891   5.478  0.1722 -0.3549  0.2308
21196W        W38044  16.892   6.935  13.173  0.2817 -0.0509  0.0015
21197W        W38045   3.026  15.460   1.382 -0.1783 -0.0715  0.1239
21198W        W38046   7.851   1.111  11.218 -0.0896  0.5263 -0.0156
21199W        W38047  12.421  10.281  16.437  0.0860 -0.0537 -0.1501
21200W        W38048   9.173   4.335   1.949  0.0345  0.1589 -0.0579
21201W        W38049  12.212   4.173   1.273 -0.0734  0.1654  0.0709
21202W        W38050  16.994   4.932  12.986 -0.1533 -0.1628  0.0165
21203W        W38051  14.342  10.585   4.260 -0.2148 -0.0269  0.3453
21204W        W38052  15.532  12.937   2.071  0.2539 -0.2295 -0.0827
21205W        W38053   2.811  14.927   3.865 -0.1234  0.0200 -0.0194
21206W        W38054   7.288  13.933  14.320 -0.0935  0.0904  0.4964
21207W        W38055  15.702   8.985   2.885 -0.1879  0.0657  0.0109
21208W        W38056   6.030   2.248   3.281  0.3757 -0.1063  0.0564
21209W        W38057   8.907  12.932  17.206 -0.0309  0.0588  0.2231
21210W        W38058   7.732   6.045  17.833 -0.0719 -0.2252  0.0076
21211W        W38059   5.853   6.894  15.038 -0.0948 -0.1680  0.0936
21212W        W38060  12.464   7.969  12.612 -0.1915 -0.0145 -0.1103
21213W        W38061   2.887   1.868   6.150  0.1659  0.1404  0.0828
21214W        W38062   4.065   2.293   2.141  0.0340 -0.0615  0.4407
21215W        W38063  10.374  13.877   2.704 -0.2052  0.2826  0.0579
21216W        W38064   0.077  12.588  17.091 -0.1349  0.0663 -0.0037
21217W        W38065   3.034   8.834   3.388 -0.0030  0.0271 -0.0902
21218W        W38066   8.812   6.379  15.215  0.0192 -0.1270  0.1135
21219W        W38067  10.487  10.963   3.104  0.0394 -0.3284 -0.3630
21220W        W38068   4.249  15.046   1.536 -0.0183  0.0301 -0.1108
21221W        W38069   8.540   3.634   3.622  0.0303  0.0588 -0.1106
21222W        W38070   8.541  16.317  12.938  0.3263  0.1620 -0.0506
21223W        W38071  15.345   5.557   1.602 -0.2873  0.1774 -0.1906
21224W        W38072  10.221   4.220  15.667 -0.0173  0.0655  0.1827
21225W        W38073  12.370  16.012   4.082  0.3297 -0.4612  0.0530
21226W        W38074  15.035   9.820  14.347 -0.4020 -0.0191 -0.4272
21227W        W38075  12.759   9.277  15.238  0.0347  0.3451  0.2289
21228W        W38076   1.549  14.375  16.606 -0.1147  0.1104 -0.0890
21229W        W38077  14.304  11.898  14.918 -0.2948  0.0213  0.3407
21230W        W38078   8.024   0.584  14.420 -0.0827 -0.1277 -0.1094
21231W        W38079   0.218  14.373   1.967 -0.0916  0.1516  0.3058
21232W        W38080   6.057   8.667  15.125  0.0088  0.0141  0.1866
21233W        W38081  14.175   9.039   1.759 -0.0974  0.0319 -0.1678
21234W        W38082   6.825   1.722   1.335  0.1873  0.1932  0.1789
21235W        W38083  15.647   1.661  14.135 -0.2629 -0.1142  0.1661
21236W        W38084  15.545   8.993  15.992 -0.0697 -0.0427  0.0719
21237W        W38085  10.640   1.881   0.878 -0.1247 -0.2552 -0.1596
21238W        W38086  11.708   9.978  17.674 -0.2293  0.1414 -0.1788
21239W        W38087  15.062   9.523   0.277 -0.1276  0.2595  0.0017
21240W        W38088   6.086  14.734  14.163  0.2752 -0.1687 -0.0437
21241W        W38089  11.218  16.798   1.924 -0.2634 -0.0893  0.2598
21242W        W38090   0.968  15.353  15.732  0.3646  0.2247 -0.2918
21243W        W38091  12.880  15.171   4.375  0.2657 -0.0854  0.3041
21244W        W38092   0.923  12.788   5.777 -0.0785  0.0537  0.2638
21245W        W38093   4.325  10.284  12.301  0.2088 -0.1321  0.2342
21246W        W38094   7.516   9.370   5.202 -0.0489  0.0088 -0.1449
21247W        W38095   5.072  13.975  17.439 -0.0747 -0.1473  0.0047
21248W        W38096  10.632   6.650   4.946 -0.2558  0.1744 -0.0305
21249W        W38097   7.781   9.098   0.953  0.0253  0.2188  0.0584
21250W        W38098   0.474   4.269  13.155 -0.0172  0.0319  0.0631
21251W        W38099   8.377  13.823   1.979 -0.0237 -0.1135  0.4936
21252W        W38100   1.662  13.028   4.848  0.1545  0.2333 -0.0289
21253W        W38101   1.893  15.580  16.055  0.0654  0.0663 -0.0687
21254W        W38102  16.574   1.521  12.776  0.1502 -0.2906  0.1002
21255W        W38103   4.733  14.812   0.838  0.0702 -0.3039 -0.0664
21256W        W38104   3.360   5.199   1.329 -0.1343 -0.2766 -0.1588
21257W        W38105   7.835   7.289   5.612 -0.0088  0.3794 -0.3641
21258W        W38106   8.780   0.994   3.892 -0.0168  0.0345 -0.1067
21259W        W38107   7.825   0.491  12.690 -0.2326 -0.0356 -0.1390
21260W        W38108   3.717   8.988  12.599 -0.0093  0.1069  0.3178
21261W        W38109  13.758   7.589   3.569  0.0070 -0.0926  0.1761
21262W        W38110   2.018  13.745   4.301 -0.4575  0.3875 -0.0509
21263W        W38111  10.331  14.213  14.553 -0.0744  0.0491 -0.0609
21264W        W38112   3.057  11.950   2.590 -0.1011 -0.1265 -0.2403
21265W        W38113  13.539   3.300   0.788  0.0805  0.0504  0.4143
21266W        W38114   4.976   2.054   2.681  0.0444  0.2297 -0.1578
21267W        W38115  16.443  14.646  14.038  0.1017  0.0684 -0.0971
21268W        W38116  12.469  14.222   0.648 -0.0461 -0.0642 -0.2907
21269W        W38117   5.594  15.134   3.498  0.1918 -0.0476 -0.1877
21270W        W38118   4.192   3.459  16.640  0.2825 -0.0806 -0.0639
21271W        W38119   6.423   0.575   4.112  0.1450 -0.1323 -0.1358
21272W        W38120  11.909   9.875   5.029  0.0832 -0.0015  0.1052
21273W        W38121  13.201   0.510  16.018 -0.0074  0.2297  0.0474
21274W        W38122  12.506   2.906  15.951  0.1882 -0.0177  0.4152
21275W        W38123   9.175  12.197   0.152  0.1428 -0.1155  0.1493
21276W        W38124  11.923   4.021  13.010  0.2152  0.3858  0.3068
21277W        W38125  10.797  15.960   5.041  0.0286  0.1029 -0.0189
21278W        W38126  16.392  12.950   1.342  0.0528  0.0241  0.1467
21279W        W38127  12.067   6.118   2.408  0.0495 -0.1173 -0.1927
21280W        W38128   2.920   7.540   0.823  0.1344 -0.1551 -0.2722
21281W        W38129   5.879   4.747   0.289 -0.1784  0.1543  0.0159
21282W        W38130  11.349  14.536   3.344  0.0614  0.1590 -0.1950
21283W        W38131   2.504  15.222   5.516 -0.1224  0.2249 -0.2662
21284W        W38132   9.575   8.207  16.979 -0.1696 -0.2390  0.1551
21285W        W38133   1.417  16.818  16.246 -0.1041  0.1299  0.2272
21286W        W38134   2.632   4.762  17.097  0.0451 -0.0127  0.1561
21287W        W38135   6.874   4.002   0.848 -0.1755 -0.1345 -0.1335
21288W        W38136   6.240   4.298  16.640  0.1849 -0.0295  0.0589
21289W        W38137   7.598  14.399   0.227  0.1359  0.0100  0.1163
21290W        W38138   3.561  12.129  15.984  0.1320  0.0165  0.3500
21291W        W38139   0.300  14.438  13.527  0.2758 -0.1453 -0.0158
21292W        W38140   5.588   2.275  14.122  0.2212 -0.1152 -0.1295
21293W        W38141  14.283  12.654   0.511  0.0434  0.1693  0.0667
21294W        W38142  12.493  16.820   4.250 -0.0926  0.0671 -0.0731
21295W        W38143  10.880   3.104  12.706  0.1606  0.1851 -0.1822
21296W        W38144  10.032  13.619  17.122  0.1393  0.0322  0.3184
21297W        W38145   7.183   2.621  15.453 -0.3325 -0.1553  0.2551
21298W        W38146   9.319  11.999  16.477 -0.2185  0.1445  0.0370
21299W        W38147   2.005   7.507   0.193  0.0346 -0.0203  0.1863
21300W        W38148   3.320  14.303  12.737 -0.1289  0.0675  0.4899
21301W        W38149  13.267   9.625   0.427  0.0814  0.1823  0.1180
21302W        W38150   6.036   7.045   3.737  0.0580  0.2300  0.1787
21303W        W38151  14.040   1.347   4.347  0.0586 -0.1111 -0.0039
21304W        W38152   8.862  11.548   4.122 -0.0644 -0.1114  0.0264
21305W        W38153  15.929   2.998   4.014 -0.0580 -0.1205 -0.2219
21306W        W38154  16.033   9.077   3.698 -0.0444  0.4434 -0.2230
21307W        W38155   0.110  16.401   4.582  0.0265 -0.2604  0.0748
21308W        W38156   8.198  14.393  15.769  0.1642  0.1210 -0.0261
21309W        W38157   0.856  15.276   1.063 -0.0904  0.1484 -0.0683
21310W        W38158   5.760   3.647  13.059  0.1153  0.2548  0.3291
21311W        W38159   8.401   8.048  17.827  0.0844  0.0908  0.2236
21312W        W38160  14.162  11.062  13.410 -0.0441 -0.0379 -0.0923
21313W        W38161   4.326   7.924   3.768  0.3066  0.2877  0.2704
21314W        W38162   9.535   7.465  14.569  0.1819  0.0793  0.3976
21315W        W38163  13.882  16.231   2.464  0.1667  0.0626  0.0828
21316W        W38164  16.090   1.801  13.036 -0.0532 -0.1571  0.0409
21317W        W38165  15.132   2.901  16.205  0.0795  0.0750  0.0452
21318W        W38166   3.835   1.424   3.062 -0.4041 -0.1985  0.3572
21319W        W38167   2.256   9.632   3.388  0.0887  0.0374  0.1747
21320W        W38168  12.798   2.615  15.471  0.0435 -0.3358 -0.0792
21321W        W38169  13.428   2.631   2.064 -0.1177  0.1178 -0.1835
21322W        W38170   9.660  14.123   3.477 -0.0987 -0.0006 -0.0390
21323W        W38171  13.479  12.298   1.065  0.1110  0.0084 -0.0711
21324W        W38172   1.297   6.381   2.149 -0.1461 -0.1658  0.0653
21325W        W38173   5.687   2.194  14.628  0.0197 -0.2823  0.4073
21326W        W38174  13.233   0.458  14.154 -0.1140 -0.1094 -0.0385
21327W        W38175   1.494  16.622   3.863 -0.2210  0.0829 -0.2124
21328W        W38176  13.737   0.454   4.192  0.2785 -0.3986  0.0238
21329W        W38177   8.009   6.652   3.183 -0.3450  0.4131 -0.2244
21330W        W38178   4.425   5.186  13.202 -0.0140 -0.2429  0.1452
21331W        W38179  12.071   6.719  12.477 -0.0209  0.0815  0.0392
21332W        W38180  14.209   0.967  15.082  0.0202  0.2506 -0.3528
21333W        W38181  13.512  12.760   4.834 -0.2518 -0.1024  0.2105
21334W        W38182   1.095   1.782   5.114  0.1297  0.1036 -0.2381
21335W        W38183   8.956  12.505  12.027  0.3276 -0.0258  0.1681
21336W        W38184  10.926  15.021  13.257  0.3080 -0.3760 -0.1103
21337W        W38185   7.513  14.968   0.541  0.0546 -0.2104  0.1029
21338W        W38186   9.085   7.100   3.207 -0.3064 -0.2587  0.2600
21339W        W38187  13.969   0.352  13.756 -0.2276 -0.1359 -0.0476
21340W        W38188   4.813  13.310   6.340 -0.0830 -0.1546 -0.2414
21341W        W38189   7.227   2.246   3.805 -0.0586  0.2028  0.2439
21342W        W38190   8.756   1.010  17.816  0.1717  0.0060  0.0175
21343W        W38191   3.310   2.047  14.403 -0.0707 -0.0669 -0.2601
21344W        W38192   7.057   8.570   0.658 -0.3854  0.0974  0.2321
21345W        W38193   4.587  16.851  16.495  0.1799 -0.1573  0.1612
21346W        W38194   4.635  11.314  14.277 -0.0284  0.1038 -0.1520
21347W        W38195  14.064   9.384  13.215  0.2344  0.0996  0.0541
21348W        W38196   4.474   1.514  17.715 -0.0743  0.1808 -0.0831
21349W        W38197  17.045   6.143  13.528  0.1166 -0.0982 -0.0983
21350W        W38198   9.152   4.783  11.961 -0.1245  0.0104 -0.2726
21351W        W38199   9.099  16.623  13.510  0.5701  0.2942 -0.1456
21352W        W38200  15.212   1.833  12.220 -0.0147 -0.2304  0.0716
21353W        W38201   6.134  12.921  15.604 -0.1699  0.1792 -0.2298
21354W        W38202   4.924   3.002  17.051 -0.1202 -0.0610 -0.0219
21355W        W38203   9.358  13.155  17.263  0.1957  0.0549  0.0180
21356W        W38204  13.382   9.273   1.610 -0.0918  0.2074 -0.0415
21357W        W38205   1.930  14.087  17.312 -0.0898  0.4586  0.2121
21358W        W38206  13.182  14.758   4.367 -0.1486  0.2107 -0.4336
21359W        W38207  14.352   4.796   1.536  0.2638 -0.1046 -0.1000
21360W        W38208  13.128  12.275   1.893 -0.3418  0.2117  0.0399
21361W        W38209   0.073  14.159  13.929 -0.2375  0.1768  0.0773
21362W        W38210   9.906   9.058  14.709  0.0040 -0.0080 -0.1069
21363W        W38211  11.126   8.750  14.391  0.0908 -0.2536 -0.2509
21364W        W38212   6.647   0.764   1.989 -0.1163  0.1221  0.0899
21365W        W38213   3.797   4.384  15.652  0.0065  0.2056 -0.0298
21366W        W38214  16.184   6.038  12.587 -0.2010  0.0078  0.0082
21367W        W38215  11.048   5.727  14.474 -0.2662  0.1205  0.0298
21368W        W38216   4.321  14.645   1.103 -0.0195  0.0550  0.2667
21369W        W38217  16.981   4.768   4.469 -0.0036  0.2021  0.2799
21370W        W38218  13.041   2.672   3.378 -0.1299  0.0943  0.1553
21371W        W38219   6.240   1.746  17.765  0.1353 -0.0775  0.2029
21372W        W38220  13.750   4.211  16.484  0.0482  0.0715  0.2796
21373W        W38221   4.126  13.729  15.070 -0.1271  0.1334  0.1074
21374W        W38222   6.256  13.658  13.440  0.0098 -0.0109  0.0059
21375W        W38223   5.257   1.023   4.862  0.2338 -0.0010 -0.1267
21376W        W38224   6.290   7.927  15.790  0.1031  0.0026  0.2349
21377W        W38225  12.146   4.187  14.985  0.0499 -0.0268 -0.0503
21378W        W38226  14.367   2.215   0.182  0.0172 -0.1858  0.2652
21379W        W38227   9.207   2.643  17.848 -0.1121 -0.3512 -0.4504
21380W        W38228   5.994   3.919  14.737 -0.1080  0.0886 -0.0335
21381W        W38229  15.319   8.672   5.704  0.3580 -0.0540  0.2547
21382W        W38230  10.807   7.287   2.933  0.4603 -0.5298 -0.2125
21383W        W38231  16.309   8.122   1.387 -0.0164 -0.2236 -0.0284
21384W        W38232  13.498  11.379   0.557 -0.2502  0.1556 -0.0916
21385W        W38233   9.284  11.450  17.492 -0.1470  0.0401 -0.0641
21386W        W38234  16.405   2.118  11.785  0.0111  0.0780 -0.1012
21387W        W38235  12.625  14.969   2.078  0.1914  0.3876  0.2808
21388W        W38236  11.467   6.261   0.534  0.2707 -0.1230 -0.2784
21389W        W38237  14.383   5.378  13.263  0.1124 -0.0367 -0.0097
21390W        W38238   8.334   5.070  14.174  0.0165 -0.1117  0.1657
21391W        W38239   2.686   9.808   3.209 -0.3721 -0.0714  0.0156
21392W        W38240   6.621  16.452  12.072 -0.2552  0.5336  0.0725
21393W        W38241   2.090   0.500   2.821 -0.0043  0.1038  0.1218
21394W        W38242   7.281   9.353   2.811 -0.2171  0.1552  0.0786
21395W        W38243   5.886   9.415  17.475 -0.2583 -0.0938 -0.1560
21396W        W38244  10.511   5.856  13.041 -0.0610 -0.2248 -0.1420
21397W        W38245   1.208  14.559  15.476  0.1066 -0.0166 -0.1499
21398W        W38246   4.871  14.798  14.996 -0.1289  0.3669 -0.3865
21399W        W38247   9.929  15.240   0.803  0.1236  0.2048  0.1434
21400W        W38248  11.155   8.438   1.541  0.1835 -0.1739  0.2430
21401W        W38249  15.468   1.667   2.438 -0.0870 -0.0221 -0.1399
21402W        W38250   6.513   4.428   4.513  0.0487 -0.3297  0.0441
21403W        W38251   8.726   3.515   2.558 -0.0089 -0.3234  0.2221
21404W        W38252  16.202  13.594   4.683  0.0353  0.2260 -0.0628
21405W        W38253   6.287   7.779  12.910  0.1254 -0.2780  0.0144
21406W        W38254  12.988  13.141   2.931 -0.1932  0.1132 -0.0232
21407W        W38255  15.269  11.863  17.002 -0.1090  0.1602  0.0872
21408W        W38256  11.336  13.773  14.335  0.2246  0.1793  0.2038
21409W        W38257  16.901   4.864   1.680  0.1091  0.1559  0.3052
21410W        W38258   6.626  13.505  12.737  0.0497 -0.1538  0.0043
21411W        W38259  12.654   3.719  15.498 -0.1705 -0.1196  0.2230
21412W        W38260   6.888  14.467  12.633  0.0041  0.1982  0.1405
21413W        W38261   5.440   6.775  12.641  0.1216 -0.0213  0.0593
21414W        W38262   6.195  13.366   1.263  0.0740 -0.0703 -0.3163
21415W        W38263  15.487  10.342  12.855 -0.0549  0.0641 -0.3024
21416W        W38264   3.983   3.960   4.535  0.2660 -0.1338 -0.3026
21417W        W38265   4.569   2.137  16.024  0.3588  0.2140  0.5483
21418W        W38266   2.903  12.356  12.471  0.0400 -0.1267  0.0532
21419W        W38267   0.010  11.990   2.733 -0.0466 -0.1285 -0.2901
21420W        W38268  10.449   2.806  11.800 -0.0134 -0.1534  0.0579
21421W        W38269  16.873   4.299  15.782 -0.1003 -0.1464  0.2325
21422W        W38270  12.635  16.983  14.999 -0.1031  0.2927  0.3318
21423W        W38271   0.369   6.232  14.303 -0.0254  0.3300  0.0494
21424W        W38272  11.888   0.656  13.023  0.1406 -0.1980  0.0618
21425W        W38273   8.690  10.143   3.831 -0.0706 -0.0434 -0.2139
21426W        W38274   4.181  11.675  12.120  0.2035 -0.3594  0.0389
21427W        W38275   9.580   6.971  12.821 -0.3445  0.0546  0.2998
21428W        W38276  11.268   8.004   1.323  0.1183 -0.1092 -0.1016
21429W        W38277   8.404   7.504   1.306  0.1938  0.0477  0.2564
21430W        W38278   5.316   1.022   5.752 -0.0694  0.0300  0.1078
21431W        W38279   6.254   6.707   0.381 -0.0501 -0.3112  0.0709
21432W        W38280   3.592  12.193   3.429  0.0275 -0.0465 -0.0755
21433W        W38281  14.915  12.668  11.567  0.0742  0.0836 -0.1311
21434W        W38282  15.461   6.234   2.247  0.0172 -0.0626 -0.2278
21435W        W38283  13.490  13.652  12.891 -0.0642  0.1177 -0.0646
21436W        W38284  10.182   7.679   0.763  0.1245  0.1918 -0.2330
21437W        W38285  15.021  16.979   3.655 -0.1039  0.2045  0.2043
21438W        W38286  16.879   5.056  16.090  0.0539 -0.2619 -0.1042
21439W        W38287  13.173  13.866  15.944 -0.1256 -0.3869 -0.0664
21440W        W38288  15.196   7.922   4.889 -0.2953  0.3114 -0.3435
21441W        W38289  12.034   6.984   5.259 -0.0179 -0.0625 -0.0356
21442W        W38290  13.511   0.928   0.392  0.0145 -0.1506 -0.0768
21443W        W38291   7.219  15.129   3.643 -0.1366 -0.0175  0.0268
21444W        W38292   2.229   0.847  16.729  0.2965 -0.0157 -0.1794
21445W        W38293   5.562   9.807  15.742  0.2598 -0.2358  0.0641
21446W        W38294  11.006   5.228   0.288  0.0391 -0.0142  0.0363
21447W        W38295  16.678   9.181   3.685  0.1013  0.4800 -0.1947
21448W        W38296   8.151   0.782  12.444 -0.0159  0.0274 -0.1865
21449W        W38297   2.225   5.425   5.017 -0.0243  0.3949  0.1020
21450W        W38298   4.610   7.887  13.704  0.0271  0.0936  0.3140
21451W        W38299   8.551   7.075   0.307  0.1487 -0.2162  0.0091
21452W        W38300   9.677   9.545   4.599 -0.0262 -0.2538 -0.0903
21453W        W38301   6.551   4.104   0.059  0.0200  0.1460  0.2065
21454W        W38302  15.675   2.547   0.540  0.2861 -0.1799  0.1278
21455W        W38303   7.687  12.241  16.109 -0.2036 -0.1989  0.0765
21456W        W38304  13.822  14.977   4.532 -0.0941 -0.1210  0.2759
21457W        W38305   5.441   3.020   1.159  0.1496  0.1550 -0.0151
21458W        W38306   5.831  10.602   2.382 -0.2078  0.0763 -0.0813
21459W        W38307   0.864   1.048  16.969 -0.0797 -0.1102 -0.2695
21460W        W38308   1.759   3.671   0.190 -0.2381 -0.0122 -0.2632
21461W        W38309   0.265  15.652  15.016 -0.1829 -0.1566  0.1431
21462W        W38310  13.073   6.447  15.510 -0.1963 -0.1737  0.0522
21463W        W38311  11.733   3.839  17.156  0.1076 -0.1061 -0.0869
21464W        W38312  13.188   1.399   0.532  0.0467  0.1295  0.1453
21465W        W38313  16.345  14.274   1.699  0.1452  0.1549  0.0941
21466W        W38314  12.652   9.030   3.432  0.0141 -0.1062 -0.0048
21467W        W38315  11.340   7.387   5.347 -0.0435  0.2042 -0.2441
21468W        W38316  15.310   6.469  16.861 -0.1263  0.1395 -0.1162
21469W        W38317  10.182   0.042   2.515 -0.0551  0.1636  0.1630
21470W        W38318  11.479   9.318  12.856 -0.0107  0.4066 -0.1388
21471W        W38319   9.980   3.968   0.255 -0.2001  0.0381 -0.0168
21472W        W38320   9.459   4.209   6.118 -0.0228 -0.2815  0.1178
21473W        W38321  10.661   3.123   0.886 -0.0227 -0.1125 -0.0996
21474W        W38322   6.169   9.099   4.913  0.0241 -0.0817  0.3460
21475W        W38323  13.470   1.325   1.284  0.0242  0.0432 -0.3666
21476W        W38324  13.781  16.691  13.124 -0.1026 -0.0333 -0.0855
21477W        W38325   7.154   4.662  12.739 -0.2023  0.0027 -0.0376
21478W        W38326   3.125   4.435   0.610 -0.2744 -0.2094 -0.1801
21479W        W38327  15.044  12.834  13.768  0.1965 -0.1829 -0.0812
21480W        W38328  10.760  13.507   3.059  0.5187  0.3341 -0.0626
21481W        W38329  12.455  12.254  13.887  0.3131  0.1067  0.0287
21482W        W38330  10.110   4.088   2.079  0.4253 -0.1606  0.0693
21483W        W38331  15.238  13.795   3.159  0.2438 -0.3219  0.0191
21484W        W38332   6.738  15.242   2.414 -0.1714  0.0827 -0.0775
21485W        W38333   1.455   0.041   2.424 -0.1782 -0.0474 -0.2402
21486W        W38334  16.728  15.107   2.843  0.2779  0.0801  0.0850
21487W        W38335  12.318   9.020   2.940  0.0762  0.1221 -0.1833
21488W        W38336   0.338  10.434  13.211  0.1164  0.3444 -0.0046
21489W        W38337  15.815   2.030  16.139  0.0429 -0.1189 -0.0594
21490W        W38338  13.242  11.801   0.368 -0.2116  0.0459  0.1180
21491W        W38339  11.289  14.395   6.840  0.0835  0.0441 -0.1274
21492W        W38340   2.687  11.491   1.260  0.1987  0.1965 -0.0805
21493W        W38341   9.459   0.026  13.557  0.1151 -0.1264 -0.2585
21494W        W38342  11.067  11.551   4.502 -0.1014  0.3161  0.1256
21495W        W38343   7.143  12.266   5.332  0.2414 -0.1500  0.2430
21496W        W38344   4.837  10.293  13.429  0.0775  0.3009  0.1109
21497W        W38345   8.675   8.756  15.054  0.1103 -0.2801 -0.2937
21498W        W38346   0.553  13.587   2.561 -0.2997  0.1159 -0.0884
21499W        W38347   1.306  15.370  14.303  0.3119  0.1258 -0.0435
21500W        W38348  14.849   7.089  17.689  0.5557 -0.1963  0.1553
21501W        W38349   4.773  12.823  13.064  0.1507  0.1407  0.0527
21502W        W38350   6.574   8.111  15.395 -0.0622 -0.0619  0.0384
21503W        W38351  15.646   1.745  15.242  0.1409 -0.1933 -0.0771
21504W        W38352   9.945  16.433  13.337 -0.0924 -0.2456  0.0966
21505W        W38353   7.644  14.257   3.418 -0.0167  0.1022  0.1165
21506W        W38354   1.604   8.824   3.413 -0.1491  0.1254  0.1375
21507W        W38355   9.078   5.053   4.081  0.2166  0.0984  0.2558
21508W        W38356   7.051  10.443   0.028  0.1680 -0.1140 -0.0783
21509W        W38357  12.970  12.539   0.925  0.2854 -0.0951 -0.2764
21510W        W38358   0.037   4.723  16.483  0.0779  0.1011 -0.3845
21511W        W38359   2.450  16.363  14.744 -0.1146  0.4090 -0.3278
21512W        W38360   4.181  13.689   5.139  0.1954 -0.0379 -0.0341
21513W        W38361  13.209   6.310  16.929 -0.2969  0.1099  0.1319
21514W        W38362  16.302   8.998   0.920 -0.0305  0.0537  0.0673
21515W        W38363  16.236   9.377  14.099  0.0754 -0.0452 -0.0447
21516W        W38364   7.597   6.257  15.267 -0.3365 -0.0822 -0.0168
21517W        W38365   4.513  14.280   1.369  0.2448 -0.1468  0.0612
21518W        W38366  15.468  16.966  17.090 -0.0410 -0.0186 -0.1358
21519W        W38367   1.076   3.312  13.675 -0.0158 -0.2566 -0.1413
21520W        W38368   9.247   7.139  13.223  0.0553  0.2581 -0.0509
21521W        W38369  12.099  13.053   3.360  0.0548 -0.0594 -0.1336
21522W        W38370  15.932   4.645  15.872  0.1133 -0.0303  0.1277
21523W        W38371   8.677   6.739  12.212  0.1247 -0.0313 -0.2502
21524W        W38372  11.238   9.596   4.827 -0.1929  0.4635 -0.1161
21525W        W38373  11.504   7.309  12.898 -0.2454  0.3993  0.1053
21526W        W38374  15.273   0.797  17.518 -0.0411 -0.0025  0.1903
21527W        W38375   3.905   6.841  17.403  0.1323  0.0741 -0.0291
21528W        W38376   2.859  14.741  13.775  0.1140 -0.1053 -0.1933
21529W        W38377   8.043  10.642  16.200 -0.3168 -0.1055 -0.1564
21530W        W38378   0.214   1.650  12.567  0.1482  0.0670 -0.1858
21531W        W38379  15.943   3.419  13.974  0.2029  0.0310  0.0425
21532W        W38380  16.584   3.209   4.895  0.1560  0.1522  0.0806
21533W        W38381  15.142  13.434  14.704 -0.1772 -0.0851  0.0189
21534W        W38382   5.385   0.666   2.751 -0.1123 -0.0284  0.1649
21535W        W38383   5.736   7.643  12.219  0.0164  0.0141 -0.1823
21536W        W38384  10.531   8.019  15.023  0.1328  0.2081 -0.2145
21537W        W38385   4.062  11.830  12.623  0.2517  0.0220  0.1846
21538W        W38386  14.923  11.899   1.546 -0.1337  0.1282 -0.1336
21539W        W38387   9.538   5.458  15.620  0.1262 -0.0421  0.1279
21540W        W38388   6.717   1.542   6.983  0.2400  0.4602 -0.0348
21541W        W38389   6.176   6.982  16.678 -0.2021  0.0309 -0.1466
21542W        W38390   5.436  14.903  11.667 -0.0960 -0.0151 -0.2734
21543W        W38391  14.474  10.154   1.671 -0.3431  0.1279 -0.0323
21544W        W38392   5.694   0.996  13.250  0.0143  0.1196  0.1768
21545W        W38393  13.597   3.311  13.835 -0.0562 -0.1101 -0.1736
21546W        W38394   2.011   2.494   0.707  0.0529 -0.1645  0.0184
21547W        W38395  15.938  16.455  14.491 -0.0280 -0.2382  0.0926
21548W        W38396   1.717   0.554   1.376 -0.1396 -0.4811  0.0291
21549W        W38397   8.599  15.547  16.859 -0.0210 -0.0719  0.0295
21550W        W38398   2.975   8.644   3.859 -0.1024  0.2808  0.0260
21551W        W38399   7.226   5.679  17.741  0.0327  0.2331  0.2311
21552W        W38400   3.815   6.703  16.325 -0.1466  0.0543 -0.3170
21553W        W38401  15.739   9.054  13.367  0.1413 -0.2515  0.4170
21554W        W38402   0.421   5.162   0.531  0.0432 -0.2331 -0.1762
21555W        W38403  13.043   2.367  17.467 -0.0573 -0.0504  0.1498
21556W        W38404   7.688   5.457  14.811 -0.2830  0.1211  0.1698
21557W        W38405   6.280   4.730   4.885  0.1982  0.1112 -0.3522
21558W        W38406   6.278   9.147   1.910  0.1435  0.3261 -0.0572
21559W        W38407   0.120   3.790  17.045 -0.0754 -0.2285 -0.1220
21560W        W38408   0.891  13.012  12.469 -0.0300 -0.0536 -0.1297
21561W        W38409   3.208   8.828   1.423  0.1321  0.0928  0.2720
21562W        W38410  14.244  14.591  13.286 -0.2580  0.0538  0.2073
21563W        W38411  15.253   1.767  15.584 -0.3466 -0.0757 -0.1401
21564W        W38412   6.627  15.995  12.933  0.0666  0.3914  0.0428
21565W        W38413   5.838  14.331  13.467  0.4765 -0.0027 -0.1290
21566W        W38414   7.965   3.180   1.449  0.0792  0.2239 -0.1953
21567W        W38415  15.892  16.246  16.594  0.0128 -0.1975  0.0501
21568W        W38416   6.898   1.994   1.790  0.0008  0.0149  0.0192
21569W        W38417   8.212  10.068  14.262  0.1864  0.0968  0.2419
21570W        W38418   0.992   3.771   3.147 -0.0477  0.1632 -0.0485
21571W        W38419   2.331   7.733  16.015 -0.1507  0.0673  0.1305
21572W        W38420   1.887  14.480   2.199 -0.1857 -0.2602 -0.1480
21573W        W38421   2.955  13.981  12.794 -0.0194 -0.1437  0.2857
21574W        W38422   1.704   2.147   4.151 -0.2383  0.2485  0.1182
21575W        W38423  15.840   5.721   3.693 -0.0456 -0.1340  0.1264
21576W        W38424   5.833  10.350   1.778 -0.1182  0.0381 -0.1639
21577W        W38425  13.218   6.355  15.965  0.0389  0.3946 -0.0911
21578W        W38426   1.428  14.487   0.689  0.0874 -0.3342  0.0204
21579W        W38427  16.464   6.666   4.499  0.0676 -0.1381  0.1254
21580W        W38428  12.584   8.794   5.841 -0.2278  0.2609 -0.1271
21581W        W38429  14.193  10.976   7.023 -0.0297 -0.0695  0.0157
21582W        W38430   1.821   6.854   5.521 -0.0608 -0.0184 -0.1820
21583W        W38431   4.284   0.783  16.644 -0.1495 -0.1480  0.0442
21584W        W38432   3.432   7.661   4.133  0.0324 -0.0310  0.2221
21585W        W38433   3.426   5.932   0.692 -0.0628  0.0259  0.0486
21586W        W38434   2.240   5.883   3.689  0.0850  0.1786  0.1407
21587W        W38435   7.556  11.995  13.568  0.1212 -0.0351 -0.3360
21588W        W38436  15.723   2.589  12.659  0.0046 -0.0650 -0.1162
21589W        W38437   2.995   1.667   4.951  0.0180  0.0555  0.0078
21590W        W38438   4.151   7.308  17.400 -0.0238 -0.3166  0.1939
21591W        W38439  15.595  15.331   0.342  0.2925  0.1057 -0.1680
21592W        W38440   5.926   3.115  15.350 -0.1894 -0.2306 -0.0398
21593W        W38441   6.217   4.332   0.515  0.1493  0.0561  0.1326
21594W        W38442   1.599   9.560  12.067  0.0297 -0.1543  0.2189
21595W        W38443   1.872  14.118  14.876  0.0464  0.2537  0.1863
21596W        W38444   3.973  11.982   5.001 -0.0202  0.1966  0.2952
21597W        W38445   1.982   7.267   3.925 -0.2377  0.1607  0.1274
21598W        W38446  13.451   3.898  12.585 -0.1988  0.0496  0.1083
21599W        W38447  11.795   0.921   0.851  0.0395 -0.2378 -0.2203
21600W        W38448  10.480  16.372  13.072  0.0843 -0.3615  0.1427
21601W        W38449   8.031   3.227   2.281 -0.0822  0.0264  0.1626
21602W        W38450  11.788   9.772  16.641  0.1814 -0.1458 -0.2540
21603W        W38451   9.247   3.248  14.709  0.0545 -0.0929  0.0017
21604W        W38452   7.244   7.725   4.911 -0.1436  0.1671 -0.0496
21605W        W38453   4.028  16.667  17.414 -0.1824  0.0816  0.1721
21606W        W38454  15.363   5.331   2.024 -0.1081  0.4801  0.1990
21607W        W38455   0.325   4.011   4.737 -0.1243 -0.1680 -0.1267
21608W        W38456  14.563   5.042  15.408 -0.3433 -0.0997 -0.3969
21609W        W38457  12.688   6.994   4.268 -0.3862  0.3549 -0.3869
21610W        W38458  16.620   5.424  14.718  0.0172 -0.1963 -0.1361
21611W        W38459  16.863   3.602   0.136 -0.2295 -0.0647  0.0417
21612W        W38460   7.437   8.057   4.369 -0.0164  0.0381 -0.1184
21613W        W38461   5.411   5.279  16.034  0.0667 -0.2386  0.0566
21614W        W38462  10.165   6.506  13.976  0.0094 -0.1151 -0.1639
21615W        W38463  14.714   2.091  13.488 -0.1971 -0.0476  0.0665
21616W        W38464  16.679   1.329  14.999  0.0882  0.1819 -0.1471
21617W        W38465  10.003   8.300  12.643 -0.1683  0.0302  0.0881
21618W        W38466  15.498  14.132  16.222 -0.2107 -0.0335 -0.2964
21619W        W38467   0.507   5.807  15.798 -0.0782 -0.2211  0.0098
21620W        W38468  12.125  12.352  16.209  0.1138 -0.0490  0.0697
21621W        W38469   7.557   3.048   3.956  0.1093 -0.3078 -0.2532
21622W        W38470   5.798  15.581  15.282  0.2013 -0.0589  0.3335
21623W        W38471  12.095   1.008  16.304 -0.4236 -0.0581 -0.0506
21624W        W38472   8.814  14.888   4.437 -0.2669 -0.3635 -0.0574
21625W        W38473  11.902   6.155  15.001  0.3432 -0.2197 -0.1053
21626W        W38474   9.943   7.796  13.368  0.0035  0.1802 -0.0291
21627W        W38475   7.785   7.792   5.600  0.0668 -0.1003  0.1601
21628W        W38476  11.323   9.038  15.825  0.1715  0.0948  0.0681
21629W        W38477  13.753   7.640   0.642 -0.1959  0.1649  0.1980
21630W        W38478  15.411   3.312  16.511 -0.2097 -0.0169  0.2561
21631W        W38479  15.727  12.777  17.097  0.0612 -0.1778  0.1486
21632W        W38480   3.435   4.537  13.294  0.1362  0.0629 -0.0671
21633W        W38481  11.318  12.394   4.868  0.0211 -0.2486  0.0224
21634W        W38482  10.139   0.099  15.733  0.2787  0.3636 -0.1526
21635W        W38483   8.593   1.747  12.374 -0.1193  0.2671 -0.0247
21636W        W38484   0.427   1.349   3.218 -0.0251 -0.1347  0.1112
21637W        W38485   9.417  10.602  15.252  0.0349 -0.1296 -0.0555
21638W        W38486   9.272   8.003  15.143 -0.2407 -0.0843  0.2918
21639W        W38487   1.101   3.502   4.422  0.1698  0.2692 -0.0806
21640W        W38488   9.078   6.663  12.581 -0.2865 -0.3323  0.2710
21641W        W38489   2.409  12.638  15.901  0.5245  0.1846  0.0418
21642W        W38490   1.244   0.794  15.457  0.0656  0.2295  0.2025
21643W        W38491  14.530   1.358   1.806  0.0067 -0.2228  0.0001
21644W        W38492  16.655   8.141  15.562  0.0633 -0.0340 -0.1361
21645W        W38493  13.473  13.191  13.176 -0.0818  0.0541 -0.1442
21646W        W38494  14.624   1.868  14.958 -0.0199 -0.1787 -0.3264
21647W        W38495  11.610  13.017  14.617 -0.1118  0.0567 -0.2089
21648W        W38496   6.994  12.269  12.983 -0.0603 -0.0001 -0.1708
21649W        W38497   5.295  13.266   4.710  0.2147  0.1269  0.0713
21650W        W38498   1.079   2.307  13.803  0.2807 -0.0680  0.0492
21651W        W38499   3.335   1.282  12.252  0.1376  0.2000 -0.2874
21652W        W38500  14.600   4.764  16.889  0.1962  0.0242 -0.0724
21653W        W38501  13.648  16.995  15.494 -0.1057 -0.1110 -0.1093
21654W        W38502  15.489   9.413   2.898  0.4053 -0.0741 -0.0486
21655W        W38503   6.655   7.991  16.511  0.1007 -0.2652 -0.2199
21656W        W38504  12.717  15.625  12.552 -0.1486  0.0979  0.2069
21657W        W38505  14.266   1.821  14.526 -0.0115 -0.3925 -0.0704
21658W        W38506   5.649  11.518  15.799 -0.0782  0.3540  0.0058
21659W        W38507   1.730  11.424  14.731 -0.0458 -0.1264 -0.0201
21660W        W38508  14.418   1.291  17.121  0.0050 -0.1893 -0.0357
21661W        W38509   5.261   8.079  13.826  0.1166  0.0461 -0.1503
21662W        W38510  11.582   1.261  15.131  0.1474 -0.0938 -0.2313
21663W        W38511  11.956   8.625   3.717  0.0816 -0.1417  0.1663
21664W        W38512   5.026  16.393  11.978 -0.1340  0.0819  0.1520
21665W        W38513  13.733  14.952   2.708 -0.1177 -0.1470  0.1462
21666W        W38514  16.351  16.806   0.683  0.0906  0.0857 -0.2324
21667W        W38515   2.318   3.358  12.599 -0.2398  0.0616  0.1096
21668W        W38516  11.320  15.229  12.535  0.0607 -0.0468 -0.1621
21669W        W38517   5.573   3.666   3.232 -0.0305 -0.1766 -0.1612
21670W        W38518  15.213   1.890   3.334 -0.1317  0.3540 -0.1424
21671W        W38519  15.256   4.474  13.998 -0.1377  0.0530 -0.1005
21672W        W38520  16.775   6.399  14.425 -0.2037  0.0108 -0.0024
21673W        W38521   4.975   1.009  15.690  0.0678  0.0020  0.1242
21674W        W38522  15.023  10.206  16.161 -0.0995  0.1776 -0.2361
21675W        W38523  16.759  14.513  14.851  0.1881  0.0351  0.1428
21676W        W38524   5.763   9.325   1.534 -0.3508  0.1791 -0.0067
21677W        W38525  15.398  16.197  12.274  0.0149 -0.0767  0.1406
21678W        W38526   4.641  14.230  17.852 -0.1070  0.1102 -0.1138
21679W        W38527   7.701   3.012   0.210 -0.2071 -0.0048  0.2430
21680W        W38528   5.954  16.606  12.771 -0.0332  0.0498  0.0505
21681W        W38529  13.480   8.794   1.455  0.3843  0.1390  0.2071
21682W        W38530  13.031  10.067   4.164 -0.2262 -0.0785  0.0385
21683W        W38531   9.696   2.020  14.897  0.0596  0.2205  0.0865
21684W        W38532  12.648   6.987   1.175 -0.0658  0.0821  0.0067
21685W        W38533  13.630   6.464   2.266 -0.0656  0.0597  0.0554
21686W        W38534  12.567  10.425   6.182  0.2412  0.1455  0.2325
21687W        W38535  10.020   3.122   2.253  0.0731 -0.0027 -0.0289
21688W        W38536   7.817   7.587  17.426  0.3748 -0.2487 -0.1346
21689W        W38537  13.810   6.875   2.486  0.0217 -0.1385  0.0373
21690W        W38538   9.347  14.218  17.684 -0.1426 -0.0892 -0.0845
21691W        W38539  13.912   9.121  17.378 -0.2505  0.2657  0.1495
21692W        W38540  14.884   6.092  16.968  0.0783 -0.3954 -0.1246
21693W        W38541  12.507  10.502   2.093 -0.0425  0.0133 -0.2083
21694W        W38542   0.479  10.822  13.480  0.0019  0.1674 -0.2000
21695W        W38543   2.965  14.661  12.058 -0.2097  0.2695 -0.0226
21696W        W38544   3.690   0.200   0.724  0.1965  0.0554 -0.4235
21697W        W38545   2.542   2.218  13.845  0.1550  0.0549 -0.3090
21698W        W38546  16.915  11.503  12.415 -0.0216 -0.2792 -0.1115
21699W        W38547   0.515  10.836  16.333  0.0893  0.3986  0.1309
21700W        W38548  15.099   1.490  15.984  0.0964 -0.1524 -0.2201
21701W        W38549  15.683  16.825  14.735 -0.2316 -0.0270 -0.1464
21702W        W38550  11.285   3.079   5.058  0.1108 -0.2583 -0.2382
21703W        W38551   4.789   2.732   1.843  0.1059 -0.1111 -0.0116
21704W        W38552   7.843   1.415  13.825  0.0484  0.1779 -0.0637
21705W        W38553  11.016   8.296  16.575  0.0886  0.1114  0.2092
21706W        W38554   2.188  10.785   4.181 -0.3827  0.0372 -0.4187
21707W        W38555   7.366  14.939  15.603 -0.0125 -0.1026 -0.0126
21708W        W38556  10.032   8.853   4.989 -0.1401  0.0867  0.2810
21709W        W38557   0.958  13.170  15.429  0.2197 -0.1186 -0.1751
21710W        W38558   1.662   9.520   4.069 -0.1531  0.0571 -0.3118
21711W        W38559   2.521  10.872   5.125 -0.0835  0.0303  0.1768
21712W        W38560   6.799  15.886  17.502  0.0031  0.3500  0.2683
21713W        W38561   4.499   2.213   2.713 -0.0830  0.0378  0.2610
21714W        W38562   8.127   7.591  16.974 -0.1039 -0.1302 -0.1915
21715W        W38563   3.104  12.417   5.469  0.0264 -0.2126  0.0470
21716W        W38564   2.334  11.566  17.275 -0.0141  0.4248  0.2268
21717W        W38565   0.072  11.775  16.554  0.0755 -0.1538  0.1378
21718W        W38566   9.639  13.496  17.535  0.1850 -0.0753  0.0400
21719W        W38567  13.677   2.542   2.481  0.1313  0.1033 -0.2623
21720W        W38568   3.679   0.729  14.446 -0.1692 -0.0739 -0.0568
21721W        W38569  16.842   9.942  12.605 -0.0691 -0.1281  0.0192
21722W        W38570   8.121   5.285   1.817  0.1081 -0.3110  0.0762
21723W        W38571   8.680   5.679   4.929  0.0107  0.2828  0.2533
21724W        W38572  10.520  10.448  15.070 -0.1803  0.2998 -0.0290
21725W        W38573   7.933   5.606   5.517  0.1219  0.1682  0.1769
21726W        W38574   0.986  16.636  16.474 -0.0792  0.4080  0.0457
21727W        W38575   5.154   0.264  12.322 -0.1200 -0.0448  0.1335
21728W        W38576   8.367   1.719   1.356  0.0205 -0.1531 -0.0610
21729W        W38577   3.654  14.429  14.734  0.0540  0.0032  0.0144
21730W        W38578   5.014   7.083  16.318  0.0169  0.0704  0.2077
21731W        W38579  11.578  16.080  16.818 -0.1647  0.1406 -0.2122
21732W        W38580  10.992  16.442  17.435  0.2445 -0.2263  0.0473
21733W        W38581   3.389  11.495   1.107 -0.4709 -0.1043  0.0056
21734W        W38582   3.000   7.034  15.247  0.1088 -0.2334 -0.0432
21735W        W38583  10.669  16.507   4.956 -0.1153 -0.0660 -0.0415
21736W        W38584   0.345   2.069   3.151 -0.0345  0.0260 -0.2857
21737W        W38585   1.645  15.143   5.265  0.2354  0.0473 -0.0254
21738W        W38586  11.750   3.105  12.935 -0.1128  0.0904  0.1259
21739W        W38587   3.722  15.042   4.597  0.3045 -0.2750 -0.1985
21740W        W38588   8.090  14.389   0.616  0.4554 -0.0506 -0.0809
21741W        W38589  14.772  15.079  12.913 -0.0307  0.1832  0.2794
21742W        W38590   2.259   6.144  17.636 -0.0009 -0.0333  0.0109
21743W        W38591  16.882  11.435   0.084  0.3871 -0.2812  0.1122
21744W        W38592   6.016   0.679   3.827  0.0178 -0.3260 -0.1996
21745W        W38593   0.053  15.647   1.647  0.0684  0.0179  0.3857
21746W        W38594   8.891  13.929   5.269 -0.3784 -0.0968  0.1819
21747W        W38595   4.837   4.614  14.351 -0.0472 -0.1810  0.1516
21748W        W38596   5.402   6.845  16.711 -0.0439  0.1117  0.2766
21749W        W38597  15.774   8.766   5.464 -0.0761 -0.2112  0.1725
21750W        W38598  15.562  12.085  16.167  0.2054  0.0151  0.0569
21751W        W38599   3.666  12.178   3.997  0.0420  0.0413 -0.0441
21752W        W38600  13.511  10.419   6.069  0.3179 -0.2464 -0.0124
21753W        W38601   4.594  10.262   2.432  0.0620  0.1726  0.0481
21754W        W38602   4.944   8.436  17.638 -0.1679  0.1931  0.0549
21755W        W38603   0.590   9.789   2.698 -0.2643 -0.1962 -0.2277
21756W        W38604   6.743  11.100   4.727 -0.0423 -0.0297  0.0369
21757W        W38605  15.533   7.341   5.774 -0.1381  0.3458  0.0303
21758W        W38606   9.400   0.171  11.506 -0.0133  0.2311 -0.2360
21759W        W38607   0.155  16.589  16.696  0.0423 -0.0462 -0.1208
21760W        W38608   9.100  11.179  16.245  0.1130 -0.1395 -0.0861
21761W        W38609  14.259  13.756  13.617 -0.1329  0.1127  0.1715
21762W        W38610  13.814   8.417   4.465  0.0534 -0.0555  0.1376
21763W        W38611  12.923   0.361   2.485 -0.1395 -0.0266 -0.0994
21764W        W38612   5.194  13.818  14.127 -0.0324 -0.1506  0.0834
21765W        W38613   9.990  10.447   1.629 -0.0731 -0.1652 -0.0315
21766W        W38614   9.839   0.657  14.986  0.4161  0.0170 -0.0127
21767W        W38615  10.389  10.077  12.551  0.5397 -0.2581 -0.1206
21768W        W38616   8.719  11.137  15.135  0.0276 -0.4542 -0.1048
21769W        W38617  14.965   2.014   0.262 -0.2798  0.1373 -0.1490
21770W        W38618   8.240   2.906   3.208 -0.0051  0.0456  0.0921
21771W        W38619   7.595   9.733   3.093  0.0098  0.0856 -0.1437
21772W        W38620   5.338  14.005  13.279  0.1952  0.1709 -0.0365
21773W        W38621   5.998  10.571  16.945  0.0562 -0.0209  0.3162
21774W        W38622   4.816   9.751   1.901  0.1197  0.1284 -0.1917
21775W        W38623   7.292  11.066  15.806  0.0588 -0.1130  0.1493
21776W        W38624   5.486   5.284  12.668 -0.2300  0.0153 -0.0503
21777W        W38625   3.968  15.215   3.849  0.1423 -0.3048 -0.2587
21778W        W38626  12.361  12.538   2.260 -0.1763 -0.0783  0.0515
21779W        W38627   7.104   4.668   2.856 -0.4781 -0.3763  0.0207
21780W        W38628  13.392   9.229  13.145 -0.0474 -0.5014 -0.1377
21781W        W38629   5.090   4.978   0.791 -0.0777  0.0086 -0.0860
21782W        W38630  14.518  15.509  12.926 -0.0888 -0.0042  0.1300
21783W        W38631   5.283  11.033   0.236  0.1240 -0.0105 -0.2545
21784W        W38632  10.002  10.350  16.120  0.1557 -0.0070  0.1255
21785W        W38633  14.864  16.476   5.251 -0.0992 -0.1254  0.0517
21786W        W38634   0.416   4.501   4.514 -0.1868  0.2675  0.3659
21787W        W38635  12.774   6.533  11.887 -0.0596  0.2243 -0.0603
21788W        W38636   1.135  12.159  16.287  0.3587  0.1400  0.2018
21789W        W38637   3.166   7.953   1.253 -0.1054  0.0121 -0.4271
21790W        W38638  15.388   5.911  17.021 -0.0510  0.0410 -0.0747
21791W        W38639   4.382  10.514   5.724  0.0991 -0.0961 -0.2561
21792W        W38640   9.498   8.368  16.447 -0.0057 -0.1874  0.0879
21793W        W38641   9.515   6.465  17.227  0.0536  0.0266 -0.2333
21794W        W38642  12.110   2.305   5.622 -0.2079  0.1174 -0.0409
21795W        W38643  16.361   5.840  16.369  0.2185  0.2720  0.0638
21796W        W38644   0.555  15.748   4.913 -0.3344 -0.3244 -0.1200
21797W        W38645  16.765  14.412   5.066  0.1218  0.1602 -0.0021
21798W        W38646  13.864   3.224   3.220 -0.1062 -0.2242 -0.1712
21799W        W38647   9.519   6.190   0.129 -0.0888 -0.2241 -0.3069
21800W        W38648   9.933   3.054   0.411 -0.1190  0.1973 -0.1588
21801W        W38649  16.947  11.560  11.644 -0.1624 -0.5429  0.2301
21802W        W38650   0.472   1.034   4.573  0.0618 -0.0405 -0.2592
21803W        W38651  12.909   4.959  13.157 -0.0372  0.1924 -0.1057
21804W        W38652  10.793   4.293  13.032 -0.2086 -0.0722  0.1318
21805W        W38653  10.591   2.086  14.281 -0.0328  0.1216 -0.0939
21806W        W38654  13.292   5.408  15.787 -0.3488  0.1734 -0.0915
21807W        W38655   7.410   2.170   5.356  0.1395  0.1325  0.0018
21808W        W38656  13.547   5.901   5.420  0.2540 -0.0870 -0.1644
21809W        W38657  11.989   8.985   2.074 -0.1613 -0.1148  0.1558
21810W        W38658   1.563   4.669  15.472 -0.1721  0.3130  0.2586
21811W        W38659  12.754   3.900   4.147  0.1753 -0.2096  0.0578
21812W        W38660  13.689  12.122  14.974 -0.1382 -0.0095 -0.6184
21813W        W38661   7.622   0.606  15.851 -0.0115 -0.0571 -0.0275
21814W        W38662   2.871   8.966  13.463 -0.2090  0.1558 -0.1090
21815W        W38663   3.110  13.774  15.767  0.0141  0.3654 -0.0085
21816W        W38664  11.511   6.653   4.977  0.1106  0.1861 -0.1365
21817W        W38665   1.228   1.639  12.702  0.1133 -0.3539  0.0916
21818W        W38666  15.125   6.540  13.542  0.0437  0.0681 -0.0868
21819W        W38667   6.521   4.817   3.045  0.2584  0.1420  0.0324
21820W        W38668  15.342   2.790  12.455 -0.0280 -0.2020  0.2285
21821W        W38669  10.211  11.176   0.748  0.1833 -0.1934  0.1865
21822W        W38670   0.041   0.172  14.141  0.2345 -0.0203  0.0882
21823W        W38671   8.405  13.325  13.669  0.1124 -0.0425  0.1021
21824W        W38672   0.581   8.146  15.559  0.0433 -0.1665  0.0120
21825W        W38673  10.804   1.106   2.420  0.2649 -0.1531 -0.0940
21826W        W38674   2.544  15.926   2.573  0.3200  0.2266  0.1175
21827W        W38675   6.228  10.736  17.325 -0.0133  0.2269 -0.0365
21828W        W38676  12.162   4.628   3.486  0.0564 -0.1564  0.0366
21829W        W38677  17.025   4.448   2.375 -0.2493  0.3598  0.0651
21830W        W38678   6.037   0.286   4.648  0.2149  0.0497  0.1792
21831W        W38679  13.987  13.263  16.572  0.0118  0.0955  0.1217
21832W        W38680   2.644   7.749  14.462  0.0244 -0.2559  0.0818
21833W        W38681  15.070  13.200   0.299  0.0450  0.3323  0.0307
21834W        W38682   0.400  16.690  11.793  0.3332 -0.1702 -0.2660
21835W        W38683  10.476   7.967   2.394  0.0962 -0.1636  0.0750
21836W        W38684  11.125  12.288  13.987 -0.0192  0.2600  0.2896
21837W        W38685   2.982  15.741   2.757  0.1077 -0.1275  0.1544
21838W        W38686  10.453  15.571   1.394  0.1364 -0.0699 -0.0960
21839W        W38687  14.700  13.180   5.631 -0.0921 -0.0889 -0.1054
21840W        W38688   6.115   0.978   3.431  0.0997  0.0301  0.1893
21841W        W38689   9.145  12.500   1.243 -0.1479 -0.1130 -0.0156
21842W        W38690   0.283   7.790  15.350  0.1114  0.4246 -0.0488
21843W        W38691   9.993  10.420   2.443 -0.0015 -0.2943 -0.1782
21844W        W38692   1.134  10.071  12.767 -0.2552 -0.5569  0.2004
21845W        W38693   1.468   0.148  12.668 -0.0671  0.0407  0.0243
21846W        W38694  12.511   9.601   3.452  0.0565 -0.2298  0.3877
21847W        W38695   4.863   6.107  15.975 -0.1314  0.0693  0.0116
21848W        W38696   6.414  15.977  14.871 -0.1101 -0.1373  0.0834
21849W        W38697  14.300  10.555  13.314 -0.0366 -0.3084 -0.3709
21850W        W38698  16.239   2.303   5.088 -0.0193  0.1706  0.0125
21851W        W38699   3.750  16.742   1.449 -0.3943 -0.1312  0.3235
21852W        W38700   4.702   3.127  13.413  0.0514 -0.3545  0.0781
21853W        W38701   4.851  14.967  16.503  0.0005  0.0521 -0.1082
21854W        W38702   0.129   0.438   2.844  0.3635 -0.1154 -0.1270
21855W        W38703   0.408   3.653  16.163 -0.1506  0.1282  0.0892
21856W        W38704  13.739   6.968  14.313  0.0048 -0.1098  0.4147
21857W        W38705   6.728  16.662   0.217  0.0558 -0.2591 -0.0170
21858W        W38706   5.552  16.839   5.952 -0.0120 -0.0127 -0.1530
21859W        W38707   3.392  16.763   1.904  0.0859  0.0922  0.0700
21860W        W38708   0.677  12.415  13.792  0.2703 -0.1227 -0.0884
21861W        W38709   7.264  10.407   2.100 -0.0335  0.1596  0.1397
21862W        W38710   0.783  12.465  12.412 -0.0298  0.3395  0.1115
21863W        W38711  12.106   2.824   4.728  0.2744  0.0123  0.0216
21864W        W38712   0.356  10.884  12.949  0.2037  0.3591 -0.0917
21865W        W38713   5.539   6.755  13.356  0.0960 -0.0597 -0.0674
21866W        W38714  10.836   0.559   0.436 -0.3314  0.4485  0.0804
21867W        W38715   2.574  15.046  14.051  0.0018  0.1160 -0.0232
21868W        W38716   1.478  12.023  17.095 -0.0333 -0.0016 -0.1330
21869W        W38717  13.876   8.613   1.735 -0.1296  0.1022  0.1195
21870W        W38718   4.303  16.233  11.925  0.0242 -0.0767  0.2960
21871W        W38719  13.701   7.947   1.101 -0.1953 -0.0311  0.2205
21872W        W38720  15.484   8.635  15.689 -0.0757  0.1224 -0.0476
21873W        W38721  12.521  11.507  15.684 -0.0479 -0.1091 -0.0649
21874W        W38722   1.713  15.285  16.873  0.0610  0.1735  0.0646
21875W        W38723   7.263   8.577   4.924 -0.1041  0.1514 -0.0962
21876W        W38724   9.695   9.559   5.612  0.0022 -0.0458 -0.1478
21877W        W38725   8.703   1.734   2.647  0.1165  0.0030 -0.0105
21878W        W38726  12.523  15.867  15.831 -0.2378  0.1212 -0.1151
21879W        W38727   6.635   1.473  11.612  0.3797  0.1385  0.0925
21880W        W38728  10.352   4.962   2.225  0.0832  0.0748  0.2034
21881W        W38729   7.482  13.189  17.049  0.1650 -0.0930 -0.0552
21882W        W38730   1.446   0.530  13.183 -0.1519  0.2288 -0.1333
21883W        W38731  11.339   6.953  16.890  0.0478 -0.0761  0.2764
21884W        W38732  13.719  13.927   1.849  0.1939 -0.0684  0.0019
21885W        W38733   9.616  12.889  15.567  0.2518  0.1462 -0.0768
21886W        W38734  12.744   4.984   4.880 -0.2125  0.0462  0.2867
21887W        W38735  10.308   2.556  12.239  0.1079  0.2361 -0.1783
21888W        W38736   3.037  11.588   5.620 -0.0455 -0.2466 -0.0121
21889W        W38737   7.747   5.114   2.653  0.1148  0.3854 -0.1871
21890W        W38738   4.387   2.957   4.124  0.1414  0.0101 -0.2306
21891W        W38739  13.366  10.865  14.757  0.0465  0.1749 -0.2013
21892W        W38740  12.120  12.580  17.097  0.0507  0.0498 -0.0436
21893W        W38741   8.346  15.567  14.809 -0.0491 -0.2125  0.2176
21894W        W38742   3.980   7.112   0.489 -0.1891 -0.0028 -0.3243
21895W        W38743   9.549  13.892   0.186 -0.1960 -0.2735  0.1179
21896W        W38744  11.305   5.464  16.157 -0.0370 -0.0298 -0.1418
21897W        W38745   4.136  14.252  15.044 -0.0685 -0.1079 -0.0883
21898W        W38746   2.079  12.406   0.475 -0.1858 -0.1974 -0.0691
21899W        W38747   2.893   3.389  15.561 -0.0190 -0.0149 -0.3298
21900W        W38748   0.668   7.479  15.336  0.0642  0.0710  0.0681
21901W        W38749  15.203  14.520  16.128  0.3314  0.1216 -0.1557
21902W        W38750  11.266  16.053  17.209  0.0348 -0.1748  0.2615
21903W        W38751  17.043  14.268   2.851  0.0937  0.0885  0.0676
21904W        W38752  16.158   1.016   0.007  0.1955  0.4047  0.2059
21905W        W38753   1.882   1.750  12.845  0.1337  0.0250  0.0252
21906W        W38754  11.714   9.915  15.365  0.2231 -0.4031  0.1181
21907W        W38755  15.054   0.681   1.427  0.0214 -0.0285  0.0540
21908W        W38756  12.032   9.911  13.721  0.1929 -0.0833 -0.0276
21909W        W38757  11.779   0.453   5.410 -0.2307  0.2463 -0.3115
21910W        W38758   3.086  11.538   3.233  0.2755  0.0092  0.1789
21911W        W38759  12.474  16.701  17.058 -0.0273 -0.1472  0.2005
21912W        W38760  13.364   7.799   2.765  0.0457 -0.4649  0.0473
21913W        W38761   3.236   2.693   0.076 -0.1497 -0.0943  0.0665
21914W        W38762   8.617  14.537   4.070  0.0069 -0.1410  0.1603
21915W        W38763  13.597  12.370  14.585 -0.0272 -0.2610  0.1133
21916W        W38764   0.734   5.654   2.130  0.0820 -0.1223  0.2059
21917W        W38765  14.818   4.459   0.261 -0.0140  0.1661 -0.1644
21918W        W38766   8.131   9.185  16.282 -0.1928  0.2807 -0.1300
21919W        W38767   0.446  11.926   2.219  0.1254 -0.1229 -0.1475
21920W        W38768  14.306   9.981  17.459 -0.0644  0.0859 -0.3725
21921W        W38769  10.193  16.742   6.376  0.0431 -0.1035  0.2845
21922W        W38770  11.563   6.993   2.559  0.1520  0.2895 -0.0427
21923W        W38771   9.637   1.134  11.136  0.2200 -0.1084  0.2105
21924W        W38772  12.889  12.814  17.328 -0.2610 -0.1248  0.0677
21925W        W38773   2.230   6.014  14.444 -0.1173 -0.0277 -0.1301
21926W        W38774  13.579   4.907  15.733  0.2600  0.3780 -0.0951
21927W        W38775  16.559   9.662  11.073  0.2288  0.0887 -0.0126
21928W        W38776  14.576   4.335  16.077  0.1602  0.1864  0.1916
21929W        W38777  11.381   5.356   5.205 -0.0231  0.2076 -0.3313
21930W        W38778  11.873   3.736  17.662 -0.0442  0.0009  0.1229
21931W        W38779   4.572   0.791  11.877  0.2777 -0.0341 -0.1774
21932W        W38780  12.854  15.367   3.539 -0.0817 -0.1071 -0.0968
21933W        W38781   5.367   0.342   1.260  0.0000 -0.2022 -0.2392
21934W        W38782  15.622   5.061  16.926 -0.0408  0.1334  0.2863
21935W        W38783   2.377   5.179  11.960 -0.0206 -0.1209  0.0846
21936W        W38784  14.118   7.834   5.650  0.0901 -0.1683 -0.0994
21937W        W38785   8.560  14.414  16.111  0.3691  0.0246 -0.3305
21938W        W38786  12.367   3.897  14.493  0.2897 -0.2316 -0.0249
21939W        W38787  10.163   8.824  12.597 -0.2456 -0.2804  0.0941
21940W        W38788  10.051  11.492  12.378 -0.1025  0.1317 -0.0277
21941W        W38789  10.737  13.439  13.631  0.0602 -0.1593  0.1152
21942W        W38790   6.827   9.976   0.005 -0.0052 -0.0874  0.1981
21943W        W38791  15.582   7.869  17.644 -0.3308 -0.0079 -0.3681
21944W        W38792  12.493  11.362  16.175  0.0421  0.1761 -0.1113
21945W        W38793  11.875   0.461   3.967 -0.0210 -0.0023  0.0263
21946W        W38794   0.835   7.173   2.165  0.0181 -0.1789 -0.3358
21947W        W38795   1.305  15.357  17.830  0.0292 -0.1127  0.0941
21948W        W38796  14.128  16.447   4.765 -0.0250  0.0881  0.1486
21949W        W38797   5.221   3.250  15.737  0.0612 -0.0152 -0.1849
21950W        W38798   5.339   4.813  15.814  0.0502 -0.4138 -0.1145
21951W        W38799  12.795  15.480  15.158  0.0285  0.1200  0.4389
21952W        W38800   6.698   7.415   0.884  0.0170  0.0306 -0.1660
21953W        W38801   7.030   4.764   1.522 -0.0123  0.3756  0.2596
21954W        W38802   6.173   1.094   4.771 -0.0709  0.0954 -0.0680
21955W        W38803  10.970  16.405   5.325  0.1977  0.2922 -0.0644
21956W        W38804   6.781   4.509   1.142  0.0743  0.3930 -0.0844
21957W        W38805  10.888   0.647  13.925 -0.3109  0.3490  0.1085
21958W        W38806   4.211  11.367  14.507  0.0599  0.3437 -0.1473
21959W        W38807   5.742  16.091   4.170 -0.2250  0.2450  0.2523
21960W        W38808  15.645  15.386  17.647 -0.1429 -0.1754  0.3523
21961W        W38809   2.313   9.074  13.176 -0.0841  0.0335  0.1324
21962W        W38810  10.465  13.113   5.806  0.0121  0.0230  0.1819
21963W        W38811   1.045  16.131  14.001  0.0077 -0.0484  0.1952
21964W        W38812   1.271   8.110   5.536 -0.3744 -0.2164  0.1717
21965W        W38813   9.080  16.010  14.257  0.0558 -0.1822 -0.3109
21966W        W38814  14.924   1.165  16.915  0.0596  0.3354 -0.0565
21967W        W38815  11.182  11.332   3.485 -0.2724 -0.2921  0.1150
21968W        W38816   8.547  14.303   3.279  0.1629  0.1312  0.1616
21969W        W38817   7.850  10.185   4.950  0.0251 -0.0035 -0.1245
21970W        W38818   0.559  12.544   0.805 -0.0211  0.1740  0.0283
21971W        W38819  11.783  11.558   4.740 -0.1175 -0.1996 -0.2539
21972W        W38820  14.816   9.895  15.074 -0.0762 -0.0922  0.0668
21973W        W38821   5.023   1.407   6.077  0.2824 -0.0410  0.0255
21974W        W38822   3.985   5.185   2.346 -0.1044 -0.1745 -0.1489
21975W        W38823   5.762   7.027   2.528 -0.1593 -0.1646 -0.0514
21976W        W38824   3.262   6.654  16.371  0.1948 -0.1425  0.1449
21977W        W38825   4.004   2.724  14.031 -0.0146 -0.0089 -0.2199
21978W        W38826   3.900  14.296  15.474  0.1059  0.2156  0.3014
21979W        W38827   3.982   9.842  15.716 -0.0561 -0.1130 -0.2885
21980W        W38828   7.446  15.523  14.846 -0.0456 -0.0281 -0.0227
21981W        W38829   6.683   9.216  14.474 -0.0923  0.2790  0.0730
21982W        W38830   4.471   4.558  14.028 -0.0707  0.0662  0.0481
21983W        W38831   1.645   1.728   4.498 -0.0670 -0.1873 -0.0746
21984W        W38832   6.885  16.992  13.731 -0.2382 -0.0235  0.2812
21985W        W38833  14.892  16.088   2.011 -0.2183  0.1051  0.1423
21986W        W38834   5.260  14.154   3.398 -0.1884 -0.1996  0.1020
21987W        W38835   7.846   8.884   3.663 -0.4255 -0.2518  0.0141
21988W        W38836  16.619   4.240   4.322 -0.1865  0.1078 -0.0660
21989W        W38837   5.651  13.029  15.634  0.0960 -0.0912  0.1774
21990W        W38838  13.049   4.465   0.206  0.2234 -0.0760  0.1584
21991W        W38839  10.360  13.852  13.232  0.0058  0.0437  0.1693
21992W        W38840  12.385  13.921   1.796 -0.0036 -0.0908 -0.0352
21993W        W38841  13.361   2.333   0.677  0.0278  0.1710 -0.0544
21994W        W38842  12.357  13.202  13.895 -0.3245 -0.3047  0.1776
21995W        W38843  14.203  12.771  14.998  0.2934 -0.0008  0.0922
21996W        W38844  13.408  12.772   0.604  0.3337 -0.0335 -0.0839
21997W        W38845   3.115  15.101  12.537 -0.0959  0.0988  0.0655
21998W        W38846   2.287   3.374   4.548 -0.2223 -0.3622  0.4087
21999W        W38847   5.193  14.669   4.778  0.1584 -0.1188  0.1765
22000W        W38848  13.028  11.402  15.917 -0.0526  0.0316 -0.1312
22001W        W38849  16.736  16.467  16.016  0.0596 -0.0569  0.0664
22002W        W38850   8.893   8.442  13.250 -0.2908  0.1874 -0.2255
22003W        W38851  12.485   4.854   1.890 -0.0818 -0.1813  0.1234
22004W        W38852   3.452  12.470   0.941  0.1164 -0.0786  0.0160
22005W        W38853  12.708  14.717  12.807  0.2440  0.0867 -0.1823
22006W        W38854  13.038  15.001  15.977 -0.2426  0.0977 -0.1430
22007W        W38855  13.189   8.328   4.132  0.1606 -0.2245 -0.1424
22008W        W38856  15.681  14.463   0.517  0.0088 -0.0669  0.1833
22009W        W38857   7.658  14.826  17.816 -0.0087  0.1169  0.2502
22010W        W38858  16.994   5.682   5.307  0.1813 -0.2045  0.0844
22011W        W38859   9.284   3.458   3.820  0.3258  0.0814 -0.1162
22012W        W38860   4.084   2.839  12.803  0.2015 -0.2212  0.1316
22013W        W38861  16.376   8.538  17.776 -0.1114 -0.2071 -0.0350
22014W        W38862   4.280   8.941   1.735 -0.4168 -0.1817 -0.0943
22015W        W38863   7.937   6.679  15.324  0.0628  0.1123  0.1561
22016W        W38864  16.415  14.729   5.955  0.4762  0.2830  0.3129
22017W        W38865  13.656   7.740   2.379  0.0246 -0.1484 -0.1251
22018W        W38866  14.173   7.398  12.929  0.2645 -0.0723 -0.0860
22019W        W38867   5.290   1.787  16.722  0.0546 -0.0151  0.3661
22020W        W38868  16.024  14.092   4.790 -0.1427  0.3992 -0.0118
22021W        W38869  13.383  10.103   4.994 -0.1634 -0.1852  0.1018
22022W        W38870   0.174  15.632  14.428 -0.0562 -0.0262 -0.1082
22023W        W38871   6.699  11.662  15.617 -0.1576 -0.0798  0.2780
22024W        W38872  14.119   4.549  16.899  0.1693 -0.0594 -0.0823
22025W        W38873  16.987   0.412  15.485 -0.0801 -0.3043 -0.0540
22026W        W38874   1.865  15.477  17.341  0.0702  0.1470 -0.1319
22027W        W38875   3.926   7.239  15.388  0.0704  0.2721 -0.1271
22028W        W38876   1.671   4.129   2.582 -0.0854 -0.0202  0.1625
22029W        W38877  12.451   1.504   4.264  0.0023 -0.2124  0.0838
22030W        W38878   4.441   7.485   3.571  0.2787  0.1087  0.2997
22031W        W38879  14.920   2.199  15.443 -0.4037 -0.0421 -0.0100
22032W        W38880  14.081  13.441  13.913 -0.0407 -0.0207  0.0782
22033W        W38881   8.209  13.058  15.775  0.0028  0.3154 -0.0104
22034W        W38882   4.578   7.612   5.787  0.6793  0.0122 -0.2716
22035W        W38883   9.166  10.716   5.145 -0.0819  0.1378 -0.0480
22036W        W38884  10.255  13.738   4.634  0.0448  0.0331  0.2771
22037W        W38885  15.813   8.360  14.954 -0.0045  0.4281 -0.1343
22038W        W38886  11.279  11.903  13.701 -0.0619  0.0677 -0.0895
22039W        W38887   2.544  14.867  17.500 -0.0258 -0.2104  0.0638
22040W        W38888   8.254   4.484  13.240  0.3820 -0.2228  0.0585
22041W        W38889   4.458   3.775   2.508 -0.0132 -0.2221 -0.1637
22042W        W38890   6.015  15.299   3.855  0.0892  0.0286 -0.1890
22043W        W38891  15.482   0.536  15.111 -0.2134  0.1650  0.2710
22044W        W38892   3.464   2.231  15.384 -0.1118 -0.0649  0.2018
22045W        W38893   9.575  16.828   3.045 -0.0009 -0.2069  0.1631
22046W        W38894  14.730   2.272   3.609  0.0307  0.2612 -0.2059
22047W        W38895  11.427  11.165   0.644  0.0873 -0.2193 -0.3239
22048W        W38896  13.582  10.920  13.844  0.2302  0.3038  0.2158
22049W        W38897  15.629   7.436   5.287  0.2306 -0.3117 -0.3458
22050W        W38898   2.531  12.754   0.266  0.2596  0.1549  0.0384
22051W        W38899   4.772   0.841   0.620  0.0030 -0.3479 -0.0985
22052W        W38900  11.625  11.251   3.883 -0.0548 -0.0914  0.2019
22053W        W38901  12.697  13.400   3.996 -0.2425 -0.1443 -0.0019
22054W        W38902   5.690  12.791   0.192  0.0922  0.0238 -0.0896
22055W        W38903  10.568  11.830   1.890 -0.0793  0.2440 -0.0014
22056W        W38904   4.975   0.114   1.460 -0.0421  0.0357  0.1716
22057W        W38905  14.847  16.744  14.762  0.1935 -0.0612 -0.0709
22058W        W38906   7.141   1.804  14.997 -0.1769  0.0460 -0.4243
22059W        W38907   9.278  11.195   0.676 -0.2019  0.0221 -0.2403
22060W        W38908  12.697   1.128  17.654 -0.0878  0.1833 -0.0736
22061W        W38909   5.679  15.994   1.710 -0.0089 -0.2647 -0.2764
22062W        W38910  14.494   5.308   1.533  0.0097  0.2022 -0.0149
22063W        W38911   8.325  16.488  11.164 -0.3164 -0.0030  0.1796
22064W        W38912   0.028   9.681   5.287 -0.3389  0.0228  0.0437
22065W        W38913   0.367   9.598  12.314  0.1160  0.1869  0.0671
22066W        W38914   3.012   6.779   2.249  0.0924 -0.1361 -0.4258
22067W        W38915   6.705   7.245   5.785  0.2813 -0.0444  0.3763
22068W        W38916   0.810   1.276   2.338 -0.1931 -0.0269 -0.0246
22069W        W38917   6.395  14.071   0.766 -0.0975 -0.2188 -0.2252
22070W        W38918  10.199   3.831  14.193 -0.1296 -0.1221  0.2547
22071W        W38919   3.152  15.638  13.827  0.1133  0.0438 -0.1075
22072W        W38920  13.395   2.307   3.529 -0.1209 -0.2294  0.1373
22073W        W38921   4.410   8.239  14.677 -0.5067  0.2335  0.1848
22074W        W38922   2.597  11.762  15.981  0.3041 -0.1355 -0.2374
22075W        W38923   4.424  15.550  14.622 -0.1123 -0.0783 -0.3436
22076W        W38924   5.761   2.138  12.473 -0.2603  0.0726 -0.0425
22077W        W38925   3.811  17.043  15.394 -0.0317 -0.0313 -0.2411
22078W        W38926  10.879  12.089  13.211 -0.0832  0.0206  0.0274
22079W        W38927   2.059   4.122  13.719 -0.1307 -0.1233  0.1573
22080W        W38928   3.552   5.907   1.621  0.1657  0.0203 -0.0375
22081W        W38929   4.513  13.996  13.733  0.2985  0.0134 -0.2273
22082W        W38930  10.220   3.589   4.046  0.2920  0.1634 -0.1142
22083W        W38931   3.601  13.479  13.473 -0.1846 -0.3673 -0.0143
22084W        W38932  15.106  16.469   4.806  0.2222 -0.2711  0.1611
22085W        W38933   8.312   1.950   5.221 -0.1379  0.0681 -0.1071
22086W        W38934   5.526  11.733  14.346 -0.0494 -0.1241  0.0052
22087W        W38935  12.101   8.867  14.057  0.1915  0.0388  0.0563
22088W        W38936  11.650  11.306  16.344 -0.0039  0.0255 -0.0041
22089W        W38937  12.760   9.093  16.216  0.3787  0.0952  0.0106
22090W        W38938   4.850  14.109   5.632  0.0482  0.0346 -0.0027
22091W        W38939   4.100   7.318   4.414  0.0322 -0.0410  0.1561
22092W        W38940   4.975   5.277  16.911  0.0951 -0.2396  0.1613
22093W        W38941   5.532  13.436  16.228  0.2009 -0.1685 -0.2031
22094W        W38942   7.501  11.646  13.079  0.0328 -0.1180 -0.0123
22095W        W38943  10.002  11.655  14.331  0.1989 -0.0078 -0.2889
22096W        W38944   4.704   3.573   3.411  0.0828  0.0449  0.1831
22097W        W38945   9.275  12.228  16.951  0.1843  0.0432  0.1321
22098W        W38946   9.794  10.843  12.918 -0.0694 -0.0834 -0.1783
22099W        W38947  13.925  10.216  14.722  0.1609 -0.1055  0.3620
22100W        W38948   9.174   4.409   4.788 -0.0422  0.2363  0.0943
22101W        W38949  15.345  12.619  16.220 -0.1630 -0.1986  0.1022
22102W        W38950   6.299  15.598  15.256  0.2287 -0.0867 -0.1490
22103W        W38951   5.317  10.620  15.817  0.2714  0.3186  0.4365
22104W        W38952   1.497   1.387  17.560 -0.0959 -0.1681 -0.2442
22105W        W38953   3.486   9.714   1.851 -0.2971  0.3507 -0.0996
22106W        W38954  10.796   3.079   3.166 -0.2439 -0.1033 -0.2540
22107W        W38955   8.993  12.598   5.178  0.0813  0.0518  0.1485
22108W        W38956   0.770  13.474  12.409  0.2208  0.0028  0.0556
22109W        W38957   6.892   0.732   4.120  0.2006 -0.2805 -0.0855
22110W        W38958   8.993  12.955   5.667  0.0326  0.1045 -0.1988
22111W        W38959  10.817  11.785   2.327  0.0691  0.2643  0.1468
22112W        W38960  13.874   9.071   2.830 -0.2841 -0.0397 -0.2805
22113W        W38961   0.859   2.513   1.499  0.0194 -0.0599  0.2405
22114W        W38962   2.043   1.120  13.417  0.0336 -0.0911  0.0457
22115W        W38963   9.050  15.675  12.868  0.0235 -0.1046  0.0647
22116W        W38964  15.677   5.973  12.805 -0.3168  0.1270  0.0644
22117W        W38965   3.261   9.405  17.155 -0.0638  0.0788 -0.1727
22118W        W38966   4.351   0.737   1.852 -0.0502 -0.0507 -0.1543
22119W        W38967  12.771  13.583  17.086 -0.0899 -0.1631 -0.1001
22120W        W38968   1.299   9.883   4.188 -0.0372  0.0421 -0.2693
22121W        W38969   2.721  12.185   4.613  0.1265 -0.2245 -0.1651
22122W        W38970   1.846   4.275   3.049  0.4632 -0.3455  0.2964
22123W        W38971   6.420  14.409  14.380 -0.2956 -0.1616 -0.3868
22124W        W38972   0.836  15.793   2.752 -0.0890  0.0957 -0.2719
22125W        W38973   5.983  12.133  14.569  0.0933  0.1493 -0.0363
22126W        W38974  13.134  13.240  17.529 -0.1261  0.2719 -0.1031
22127W        W38975  15.958   5.086  14.198 -0.0890  0.1187  0.2642
22128W        W38976  14.966   2.781   3.421 -0.0878 -0.2279 -0.1155
22129W        W38977  11.375  15.649  14.173 -0.1215 -0.1023 -0.1295
22130W        W38978  14.104   5.094  17.079 -0.2929  0.1710 -0.1900
22131W        W38979   2.981   4.209   3.201 -0.2078 -0.0648 -0.1244
22132W        W38980   3.720  15.835  14.422 -0.1554 -0.0796  0.1362
22133W        W38981   7.134   7.053  14.744 -0.0710  0.0791  0.1440
22134W        W38982   0.632   0.034  11.765  0.0608 -0.1900 -0.1200
22135W        W38983   0.310  13.832  14.267 -0.0676 -0.1177 -0.2198
22136W        W38984  10.126  16.684   5.083  0.1723 -0.1936 -0.0167
22137W        W38985   8.772   8.811  14.162  0.3485  0.1450  0.1794
22138W        W38986   3.714   9.166  17.024  0.2848  0.1050  0.0669
22139W        W38987  15.779   0.894   0.432  0.0079  0.2128 -0.1466
22140W        W38988   9.535   1.710   6.106 -0.2541  0.0838  0.2626
22141W        W38989   0.918   1.029  14.479 -0.2266 -0.2687  0.0976
22142W        W38990   6.962   5.123   0.028  0.3645  0.0410  0.0868
22143W        W38991   0.784   2.853  13.275 -0.1100  0.1898 -0.1018
22144W        W38992  16.591  11.920  17.834 -0.1192 -0.1081 -0.0097
22145W        W38993  11.011   0.666   3.666  0.0532  0.0818 -0.1491
22146W        W38994   5.419  13.080  13.596 -0.1849  0.2071  0.3185
22147W        W38995   7.149   9.060   0.046 -0.2975  0.1375 -0.2136
22148W        W38996   0.875   1.541   5.593 -0.0091  0.1337  0.2603
22149W        W38997   1.654   7.912  16.669  0.0615  0.3276  0.0816
22150W        W38998   6.047   7.632  13.347 -0.0447  0.1731  0.1416
22151W        W38999  11.448   8.062  17.293  0.0627  0.1409  0.0324
22152W        W39000   5.164   1.916   0.679  0.0310 -0.0483  0.0001
22153W        W39001   9.668   1.523   3.523  0.3547  0.0154 -0.0171
22154W        W39002  15.376   5.414  17.239 -0.3433 -0.3134 -0.0573
22155W        W39003   3.211   4.049  16.701 -0.0224 -0.0662  0.0171
22156W        W39004   8.261   3.232   3.624 -0.1697 -0.0630 -0.2368
22157W        W39005  13.079   9.579   1.282 -0.2670 -0.1098  0.1576
22158W        W39006   3.629   5.493  13.063 -0.0800 -0.3336 -0.4141
22159W        W39007   9.902  12.172   0.846 -0.0104 -0.1462  0.2432
22160W        W39008  12.289  16.663   1.719  0.1273  0.1501 -0.1267
22161W        W39009   6.105  16.724  15.168  0.1965  0.0833  0.3812
22162W        W39010   6.293  15.781   5.406  0.0561  0.2052  0.1451
22163W        W39011   8.821   6.436   1.969 -0.1147  0.2914 -0.0386
22164W        W39012  14.446  16.728   4.404  0.0363 -0.1469  0.0076
22165W        W39013   9.183  14.635   2.718  0.1311 -0.0435  0.2808
22166W        W39014  14.453  12.235   2.787  0.1269 -0.0011 -0.1732
22167W        W39015   4.664  11.191   1.731 -0.1840 -0.3486  0.1570
22168W        W39016   8.063  14.750   6.803 -0.1067  0.2740  0.0423
22169W        W39017   5.811   0.548   1.370  0.2400 -0.0457  0.1117
22170W        W39018   4.531   2.901   6.375 -0.0316 -0.2418  0.1404
22171W        W39019  12.384  15.134   0.215  0.5097  0.0190 -0.3309
22172W        W39020   5.871  13.274  16.497 -0.1372 -0.1296  0.0037
22173W        W39021   4.660   5.030  15.584 -0.1202 -0.0838  0.0331
22174W        W39022   8.892   8.666   6.715 -0.0070 -0.2244 -0.0901
22175W        W39023   1.721   5.428   1.274 -0.3573 -0.0604 -0.1662
22176W        W39024   7.904  12.975   3.640  0.2293 -0.1364  0.2606
22177W        W39025  16.553  10.879  15.879 -0.0353  0.5580 -0.0032
22178W        W39026   7.889  15.893   5.789 -0.1604 -0.3137 -0.2039
22179W        W39027   9.614   3.384  13.994 -0.0089  0.1315 -0.1816
22180W        W39028  12.271  16.702  13.156  0.1502 -0.1590  0.3439
22181W        W39029  12.193   0.900  13.350 -0.0142 -0.1055  0.1832
22182W        W39030   4.681   8.869  13.970  0.1872  0.0396 -0.2685
22183W        W39031   9.788  16.799  16.013 -0.3293  0.1803  0.1667
22184W        W39032  15.651   6.526  13.518  0.1305 -0.1317  0.2888
22185W        W39033   3.745   8.388   1.872 -0.0918  0.1277 -0.2422
22186W        W39034   7.816  13.183  13.341 -0.0182  0.0645 -0.1578
22187W        W39035   9.010  13.049   2.960 -0.1232 -0.2850  0.2158
22188W        W39036  10.478   8.222   3.215  0.0151 -0.1303  0.1577
22189W        W39037  11.968  16.424   2.234  0.1650  0.1997 -0.1169
22190W        W39038   6.799   3.871   2.571 -0.1351  0.0114  0.2190
22191W        W39039  15.558   1.894  16.701  0.1245 -0.1344 -0.0187
22192W        W39040  16.471  15.847   4.425  0.3183  0.2896 -0.2009
22193W        W39041   6.373   0.851   3.011 -0.0132  0.2279  0.0933
22194W        W39042   9.600  12.129  12.910  0.0182 -0.2308  0.0161
22195W        W39043   6.420  12.478   2.941 -0.1921  0.3448  0.1736
22196W        W39044   6.514  14.368   2.701 -0.1196 -0.0096 -0.0909
22197W        W39045   0.366   2.780  12.967 -0.0558 -0.1587 -0.0254
22198W        W39046   9.162  16.948  14.692 -0.1903  0.0895  0.2168
22199W        W39047  13.767  13.785   3.054  0.3002  0.1943 -0.1615
22200W        W39048  14.017   3.827   0.308  0.3123 -0.0152 -0.2605
22201W        W39049   3.879  16.293   0.826 -0.0773 -0.0255 -0.0312
22202W        W39050   2.796   0.403   2.086  0.0622 -0.0502  0.2634
22203W        W39051   0.884   9.953   4.481  0.0133  0.2814 -0.0979
22204W        W39052   5.518   6.207   2.002  0.0393  0.1943 -0.0183
22205W        W39053  16.312  11.503   3.588 -0.0683  0.1071 -0.3110
22206W        W39054  13.751  10.775   4.046 -0.0044 -0.1843 -0.0388
22207W        W39055   2.511   1.591   4.849 -0.1487  0.2182 -0.0061
22208W        W39056  10.643   7.676   0.604 -0.1461  0.2376 -0.0059
22209W        W39057   2.715   3.173   3.637 -0.1239  0.1163 -0.0107
22210W        W39058   5.855   0.802   1.928  0.1563  0.0065  0.0072
22211W        W39059  12.543  11.019  15.547  0.0501 -0.0265  0.0998
22212W        W39060   9.623   5.025  16.679  0.2665  0.0397 -0.2515
22213W        W39061   2.467  12.859   5.776 -0.1964  0.1163  0.2071
22214W        W39062  14.009  14.315  15.755  0.0309 -0.0273  0.0700
22215W        W39063   2.904   9.684  15.118  0.2346 -0.5394 -0.1315
22216W        W39064   4.256   3.385   0.794 -0.0971  0.0209  0.0950
22217W        W39065   2.125   9.447   4.354  0.2718  0.2500 -0.0511
22218W        W39066   6.791   8.080   2.546 -0.0556  0.2379 -0.0367
22219W        W39067  17.064   9.961  14.711  0.0477 -0.0648 -0.1885
22220W        W39068  11.911   0.284  13.867 -0.1919  0.1809  0.2117
22221W        W39069   4.572   9.980   2.860  0.2678 -0.1401 -0.2411
22222W        W39070  11.523  15.943   3.578  0.0790  0.0620 -0.1483
22223W        W39071   5.458  12.714  12.096  0.1074  0.0180 -0.0601
22224W        W39072   4.933  13.746   0.012 -0.2297 -0.2301  0.1168
22225W        W39073  10.177  16.948   0.443 -0.0152  0.3294 -0.0793
22226W        W39074   8.334  12.306   1.621  0.0618 -0.2833  0.0092
22227W        W39075   1.563   3.460  14.259  0.1870  0.3263 -0.4359
22228W        W39076  14.559  12.257  12.785  0.0139 -0.0982  0.0246
22229W        W39077   3.102   6.321  15.885  0.0211  0.0043 -0.2764
22230W        W39078  10.784   2.392   0.735 -0.0476 -0.1016 -0.2048
22231W        W39079  11.258  16.496  16.911 -0.0747 -0.2304 -0.1348
22232W        W39080   2.885   0.894  13.527  0.1418 -0.1906 -0.1296
22233W        W39081   2.465  14.002   4.365  0.0821  0.2105  0.1271
22234W        W39082  12.975   9.947  17.496 -0.0928 -0.1143  0.2355
22235W        W39083   0.780   8.221   5.719 -0.0897 -0.1797 -0.1121
22236W        W39084  14.929  13.760   2.350  0.1784  0.1612 -0.2333
22237W        W39085  13.600  16.845   1.976  0.0531  0.3165 -0.1579
22238W        W39086   4.698   3.505   2.176 -0.0043  0.2380  0.2767
22239W        W39087   9.608  12.102  14.895 -0.4341  0.2027 -0.0353
22240W        W39088  16.838   5.117   0.684 -0.0780 -0.0428 -0.2789
22241W        W39089   3.458   1.213  13.050 -0.1639 -0.0455 -0.1379
22242W        W39090   9.123  10.019  16.042 -0.0396  0.3654 -0.0652
22243W        W39091   0.839   2.846  17.760  0.2371  0.4691  0.1089
22244W        W39092   3.276   0.044  16.114  0.1409 -0.3245 -0.0788
22245W        W39093  17.007   3.885   4.413  0.0723  0.3605 -0.1303
22246W        W39094  10.980   0.440   1.601  0.1999  0.1349  0.2073
22247W        W39095  15.631   5.305   4.398 -0.0426 -0.1630 -0.0499
22248W        W39096   1.892  11.792   3.241 -0.0041  0.0468 -0.0756
22249W        W39097  15.568   7.026   0.822  0.2480  0.1522  0.1468
22250W        W39098   4.464  13.971  14.797 -0.2925  0.0573  0.0637
22251W        W39099  11.812   9.278  14.306 -0.1687 -0.0154 -0.1792
22252W        W39100  11.634  13.137  12.190  0.1565 -0.1180  0.0980
22253W        W39101   5.121   2.912   3.228  0.0517  0.0464 -0.0365
22254W        W39102   0.012   1.826   5.477  0.0963 -0.0813 -0.1119
22255W        W39103   4.393  13.596   4.333  0.2174  0.2892  0.1213
22256W        W39104   5.444  15.065  15.238 -0.1332  0.1047 -0.0980
22257W        W39105   0.794   0.803   0.959 -0.0847 -0.2898  0.1514
22258W        W39106   5.343   1.261  15.334  0.1207 -0.1708 -0.1391
22259W        W39107  14.098   7.746   1.359  0.0844 -0.1584  0.3522
22260W        W39108   6.344   0.585   5.106  0.1972  0.1306  0.0717
22261W        W39109  16.801   7.935  12.750  0.0421 -0.0332  0.2367
22262W        W39110  15.598  14.447  14.120 -0.0749  0.0364 -0.2315
22263W        W39111  16.392   0.692   1.064 -0.0492 -0.1850  0.3543
22264W        W39112   2.442   8.709  16.854 -0.0888  0.3453  0.0597
22265W        W39113  12.909   1.960  14.201 -0.0836 -0.3006  0.0612
22266W        W39114  13.669   8.305   3.994  0.1571  0.0170  0.0996
22267W        W39115   6.760   0.085  14.688 -0.1717 -0.1850  0.0571
22268W        W39116   9.024   6.719  13.125 -0.0275 -0.2447  0.0886
22269W        W39117  17.064  11.346  16.881 -0.0671 -0.0268 -0.1672
22270W        W39118  16.402   4.131  17.058 -0.1899  0.3572 -0.2711
22271W        W39119  11.189   9.141  15.168  0.3132  0.1722  0.1005
22272W        W39120  15.208   5.261  13.432  0.0415  0.0762  0.0533
22273W        W39121  10.898  11.449  16.892 -0.1568  0.1416 -0.0929
22274W        W39122  11.894  15.890  12.762  0.0522  0.1918 -0.1555
22275W        W39123   2.221  13.735   1.382 -0.2226 -0.0585 -0.0000
22276W        W39124  14.055  11.434  17.674 -0.2249  0.3344  0.1736
22277W        W39125   1.699  10.070  14.767  0.1149 -0.0827  0.2369
22278W        W39126   0.314  13.052   2.424 -0.1661  0.1623  0.0662
22279W        W39127   2.705  16.044  14.105 -0.0546  0.1032  0.3942
22280W        W39128   0.303  15.006  13.676 -0.1159 -0.3566 -0.0594
22281W        W39129   6.286   3.032  13.965 -0.1320  0.0366  0.1007
22282W        W39130   7.417   8.563  13.996  0.0938  0.5249 -0.1113
22283W        W39131   3.822   8.020   1.429 -0.1155  0.0503 -0.0150
22284W        W39132   2.234  12.638   2.033  0.0648  0.0467 -0.0545
22285W        W39133   8.488   4.202  14.150  0.0647  0.3535 -0.0223
22286W        W39134  10.593  16.490  15.392  0.1983 -0.0907  0.0645
22287W        W39135  11.622   4.667   5.186 -0.1241  0.0044  0.1698
22288W        W39136   5.786   0.860   5.801  0.0081  0.0111  0.0073
22289W        W39137   2.505   3.930   5.424  0.0609  0.0376  0.4173
22290W        W39138   4.011  14.629   0.352 -0.0721 -0.2401  0.1380
22291W        W39139  12.758   1.485  14.313 -0.0337 -0.1535 -0.3982
22292W        W39140   5.065  15.997   0.117 -0.1591  0.1948 -0.2538
22293W        W39141  10.935   4.518  13.483  0.0397 -0.0382 -0.0916
22294W        W39142   1.271   1.683   4.046  0.2782 -0.1131 -0.2563
22295W        W39143  15.890   3.843  12.878  0.0334  0.1831  0.0050
22296W        W39144   7.734   1.284  16.932 -0.0724 -0.2189 -0.0801
22297W        W39145   8.754  13.261   0.177 -0.0092 -0.0653  0.0460
22298W        W39146   7.008   6.189  14.760 -0.1792  0.0431  0.0609
22299W        W39147   6.604  11.310   2.084  0.0773 -0.1456 -0.1617
22300W        W39148   4.347   7.910   2.298 -0.2233  0.1408 -0.1112
22301W        W39149  11.057   7.326   2.468  0.0961 -0.0534 -0.0326
22302W        W39150   5.438   1.534  16.344 -0.0745 -0.0455  0.2027
22303W        W39151   3.415  12.095  16.974 -0.3499 -0.1061  0.0735
22304W        W39152   5.312   7.474   3.253 -0.1428 -0.0445 -0.0812
22305W        W39153   5.985   5.423  13.885  0.0182  0.1529  0.2360
22306W        W39154   6.762   1.197   0.647 -0.0080 -0.0184 -0.0217
22307W        W39155   2.247   9.398  15.232 -0.0276 -0.1600 -0.1239
22308W        W39156   6.979   6.112  15.873  0.0336  0.2017 -0.0793
22309W        W39157   2.492   4.462   1.972  0.2800 -0.3010 -0.1161
22310W        W39158   1.841  12.549   2.581 -0.0213  0.2215 -0.0772
22311W        W39159   9.895   8.568  16.799 -0.2007  0.1184  0.0129
22312W        W39160   3.336   3.764  13.501 -0.3449 -0.1538  0.0860
22313W        W39161   3.013   7.932   2.720 -0.2356  0.0843 -0.1688
22314W        W39162   9.422  16.044   1.628  0.1546  0.2137  0.1638
22315W        W39163   9.263  16.186  12.877 -0.0192  0.1061 -0.0855
22316W        W39164  12.080  11.558  16.467  0.4599  0.0080  0.1620
22317W        W39165   6.505   3.410   4.265 -0.2668 -0.1125  0.0673
22318W        W39166  16.801  16.979  15.895  0.0889 -0.1451 -0.0246
22319W        W39167   8.506  13.157   0.615 -0.0434  0.0599  0.0910
22320W        W39168   7.684   7.061   3.431 -0.1257 -0.0820 -0.1453
22321W        W39169   1.890   1.470   5.274  0.1203  0.0141  0.3587
22322W        W39170   2.962   5.640   6.462  0.0000 -0.1780  0.0720
22323W        W39171   2.854   6.288   3.840  0.0282 -0.0178 -0.0547
22324W        W39172  12.783   3.288   1.827  0.0168 -0.0687  0.4104
22325W        W39173   5.295   3.811   2.856 -0.0092  0.3149 -0.0109
22326W        W39174  15.933  15.666   2.004 -0.0221  0.1075 -0.1366
22327W        W39175   6.212  12.495  17.070  0.1227 -0.5524 -0.0157
22328W        W39176  16.680   2.110  13.082 -0.1828  0.1932  0.0112
22329W        W39177   2.020  10.499  14.622 -0.0308  0.0461  0.0145
22330W        W39178  14.630   2.340  16.052  0.0750  0.0117 -0.0490
22331W        W39179   9.844  14.433  17.294 -0.3661 -0.1663  0.2563
22332W        W39180   2.533  10.632  13.981  0.3624  0.0440 -0.2308
22333W        W39181   8.994  13.874  16.940  0.0109 -0.0563 -0.2259
22334W        W39182  14.905   3.284  17.237 -0.2447  0.1909  0.2449
22335W        W39183   0.551   2.143   2.570  0.2174  0.0458 -0.0136
22336W        W39184   6.682   6.904   1.055 -0.3667  0.2031  0.0280
22337W        W39185   4.556   3.064  12.491  0.0981  0.2508  0.1572
22338W        W39186   7.394  15.843  11.194  0.1341  0.2063  0.0176
22339W        W39187   6.698  15.186   3.489 -0.0142 -0.0602  0.1071
22340W        W39188   7.463   6.768   4.873  0.0669  0.2681 -0.1001
22341W        W39189   9.089   1.432   3.903  0.0305  0.0575 -0.0880
22342W        W39190  11.913   7.981   2.546  0.1229 -0.0354  0.0777
22343W        W39191   5.722   4.541   2.669  0.3679  0.1579  0.0338
22344W        W39192  13.042   1.403  16.209  0.0051  0.2493 -0.2777
22345W        W39193   9.678  11.056   4.535 -0.2901  0.1004  0.0065
22346W        W39194   0.907   9.060   3.922  0.0337  0.4464 -0.1377
22347W        W39195  16.802  12.950   2.526 -0.0418  0.1141 -0.2200
22348W        W39196  11.713  16.655  13.907  0.0973  0.2041  0.1385
22349W        W39197  11.844   6.684  12.040  0.1149  0.3386  0.0045
22350W        W39198   7.375  11.581  14.490 -0.1106 -0.0450 -0.1363
22351W        W39199   1.485   0.694  16.317 -0.1266 -0.1920 -0.0915
22352W        W39200   7.662   6.059   4.981 -0.0189 -0.0314 -0.0232
22353W        W39201  16.571   7.826   3.571 -0.0325 -0.1769  0.0554
22354W        W39202   8.759  16.510   3.395 -0.2586  0.2009  0.1171
22355W        W39203   3.653   8.677   5.395 -0.2488  0.1504 -0.1294
22356W        W39204   0.846   1.955   0.130  0.0298  0.2767 -0.1378
22357W        W39205  13.301  12.756   4.382  0.1364 -0.1208 -0.0916
22358W        W39206   5.017  14.469   1.435 -0.1053  0.2397  0.0281
22359W        W39207   5.231  14.409   0.759 -0.2299 -0.0273  0.2792
22360W        W39208   7.610  16.312   1.084 -0.2861 -0.1532 -0.3565
22361W        W39209   9.100   2.330   2.418 -0.4972  0.2109 -0.0150
22362W        W39210   8.973   1.401   4.775 -0.0404 -0.1110  0.1956
22363W        W39211   1.099  14.119   5.635  0.2322  0.0836 -0.1764
22364W        W39212  14.382   9.251   1.260  0.0262  0.0033  0.0445
22365W        W39213  13.648  12.364   1.739 -0.3045 -0.0379  0.1680
22366W        W39214  14.476   0.568  13.624  0.1104 -0.2300  0.1762
22367W        W39215   2.191   6.869   3.735 -0.0019  0.0685 -0.2821
22368W        W39216   7.446  16.869   3.637 -0.0314  0.0538  0.1829
22369W        W39217  15.677   0.535   2.910 -0.2056  0.1722 -0.2380
22370W        W39218   0.425  15.179  17.255  0.3299 -0.3386 -0.0189
22371W        W39219   6.482  12.513   2.455 -0.1674 -0.2318 -0.0819
22372W        W39220   5.603  12.471   1.090 -0.0130 -0.1830  0.1660
22373W        W39221  12.599   7.231  11.513 -0.2470 -0.0187  0.0741
22374W        W39222   6.728  15.202   0.081 -0.0977  0.2996 -0.1882
22375W        W39223   2.044  10.828   5.364 -0.2429 -0.1245  0.0360
22376W        W39224   3.539  12.865  12.606 -0.0808 -0.3111  0.1663
22377W        W39225  14.742   2.773  12.193 -0.2884 -0.0148  0.1588
22378W        W39226  11.322  11.953  15.289 -0.2884  0.1594 -0.1161
22379W        W39227  16.509  14.888  12.808 -0.2482 -0.2676  0.2752
22380W        W39228   1.313  13.577  14.349 -0.2093  0.3683 -0.0182
22381W        W39229   4.952   4.774   5.762  0.0088 -0.2018 -0.1052
22382W        W39230   9.366  13.820  14.378 -0.0427  0.0450 -0.4074
22383W        W39231   9.370  17.036   4.675  0.2023  0.2121  0.1101
22384W        W39232   8.972   0.461   2.353 -0.1065 -0.2819 -0.0893
22385W        W39233   2.242  12.890   2.466 -0.1212  0.0902 -0.2779
22386W        W39234  15.335  16.793   0.572 -0.2223  0.0884 -0.0355
22387W        W39235   4.417   1.824   1.792  0.2421 -0.2065  0.3217
22388W        W39236  13.154   5.910  15.705 -0.2121  0.0575  0.0512
22389W        W39237   4.589  12.060  17.460 -0.0677  0.0669 -0.1130
22390W        W39238   5.167   8.484  15.262 -0.1162 -0.2440  0.2819
22391W        W39239   0.723   1.808  12.651 -0.0462 -0.1777  0.2434
22392W        W39240   7.348   3.994  14.956  0.0817  0.0945 -0.3565
22393W        W39241  10.823  16.064  16.323  0.3686  0.0078  0.2400
22394W        W39242  10.262   7.230  15.447 -0.1709  0.0840  0.0085
22395W        W39243   4.007  12.550   4.550 -0.1098  0.0823  0.1098
22396W        W39244   2.054   2.747   3.786  0.0433  0.2164 -0.3101
22397W        W39245  12.183  14.659  14.043 -0.0613  0.3720  0.0344
22398W        W39246   2.543   1.594  12.012  0.0406 -0.0186 -0.0064
22399W        W39247  12.059  11.609  14.284  0.0853 -0.2217 -0.1680
22400W        W39248   6.720  12.443  16.131  0.1656  0.1811 -0.0698
22401W        W39249   9.649   2.224  13.263  0.2108  0.0113  0.0323
22402W        W39250   2.390   5.084  16.105  0.0452  0.0372  0.1808
22403W        W39251  14.192  13.995   5.699  0.1145 -0.2642 -0.2042
22404W        W39252   8.398  10.905   5.242  0.3050 -0.3952  0.1405
22405W        W39253  12.432   2.091   1.422  0.0347 -0.1246 -0.3523
22406W        W39254  15.118  10.898  14.989  0.0800 -0.3261  0.0039
22407W        W39255  15.516   9.508  14.275 -0.3398 -0.0367 -0.3320
22408W        W39256   6.377   4.198   2.325 -0.2925 -0.2194  0.0162
22409W        W39257   0.761  16.014  14.943 -0.0511  0.0654  0.0596
22410W        W39258   2.470  11.442   2.403  0.1423 -0.0746  0.0533
22411W        W39259   8.480   8.820  14.605  0.1810 -0.1961 -0.0663
22412W        W39260   1.070   3.960  17.485  0.1058 -0.0902 -0.0580
22413W        W39261   2.951  14.623  12.688 -0.2682 -0.3320 -0.0609
22414W        W39262  16.304   9.304  14.615 -0.0471  0.0543 -0.1903
22415W        W39263  12.840   8.184  16.126  0.0324  0.1971 -0.0788
22416W        W39264   6.363   4.574   5.309  0.0752  0.0468 -0.3589
22417W        W39265   3.509   9.320  17.528 -0.0345 -0.0340  0.1938
22418W        W39266  10.909  14.192   5.514 -0.3270 -0.0054 -0.1102
22419W        W39267  15.288   1.631   0.285 -0.0197  0.1662 -0.0447
22420W        W39268  15.768   7.423  16.698 -0.1320  0.1546  0.0869
22421W        W39269  13.000   6.050  13.395 -0.2500  0.2259 -0.0861
22422W        W39270   8.280   0.716   4.631  0.3271  0.1749 -0.0149
22423W        W39271   7.457   0.560  17.180  0.2153 -0.1358 -0.1356
22424W        W39272   9.458   4.766  12.415  0.1514 -0.0447  0.1172
22425W        W39273   0.785  14.740   1.141 -0.1491  0.3349  0.1778
22426W        W39274  14.728  11.349  15.792  0.0782 -0.1727  0.0325
22427W        W39275  11.451   6.757   4.174  0.0191 -0.2537  0.2320
22428W        W39276   2.503   8.042  15.476  0.1034  0.0326 -0.1350
22429W        W39277   6.422   8.714  17.165  0.0326  0.1082  0.0181
22430W        W39278   6.403   4.694  11.995 -0.0143  0.3128  0.2020
22431W        W39279   9.826  11.896  16.371 -0.3247  0.1927 -0.0953
22432W        W39280   9.351   4.814   1.930 -0.2207 -0.0186  0.1836
22433W        W39281   5.380   3.819   0.631  0.1424  0.1039 -0.0870
22434W        W39282  14.244   8.189  14.729  0.1364 -0.4018  0.2792
22435W        W39283   7.550  13.226   2.832 -0.2911 -0.3561 -0.2671
22436W        W39284  12.646   0.564  15.809 -0.1146  0.0805 -0.3113
22437W        W39285   2.297  15.456   2.375 -0.0161 -0.0544  0.2123
22438W        W39286   8.854  16.890   4.607  0.1772 -0.2109  0.1947
22439W        W39287  15.115  12.296  11.278  0.0688  0.0749 -0.1302
22440W        W39288  16.012   4.057  15.916  0.2744  0.0538  0.1580
22441W        W39289   0.372   3.203   0.530 -0.4129  0.1185 -0.0993
22442W        W39290   9.985   3.217   1.665  0.0246  0.1207 -0.0542
22443W        W39291   3.864   8.014  12.432 -0.0122 -0.1215  0.1727
22444W        W39292  13.780   0.740   4.937 -0.2514  0.3133 -0.0379
22445W        W39293   3.502   4.135  15.959  0.0339  0.0680  0.0136
22446W        W39294   0.369  10.505  17.290 -0.0127 -0.0159  0.1138
22447W        W39295   9.501  11.901   1.864 -0.0087  0.1997  0.0802
22448W        W39296  12.083  14.615   3.387 -0.1105 -0.0478 -0.1416
22449W        W39297   8.133   4.517  15.715  0.0947  0.0494  0.0097
22450W        W39298   7.040   6.026   2.124  0.0854  0.0038 -0.2182
22451W        W39299   6.146   4.815  13.556  0.1071  0.0234  0.1523
22452W        W39300  13.947  14.555   2.507  0.1900 -0.1231  0.1612
22453W        W39301   8.638  16.339  13.510 -0.0464  0.2962  0.0954
22454W        W39302   6.448   2.586  13.028 -0.3158  0.1126 -0.2063
22455W        W39303   8.786   5.030  13.892  0.0912 -0.1411  0.0175
22456W        W39304  14.587   1.316   3.554  0.0780 -0.4366 -0.1041
22457W        W39305   5.429  15.063  13.594 -0.0267 -0.2503 -0.0127
22458W        W39306  16.157  11.505   1.295  0.0602 -0.2270  0.0952
22459W        W39307  11.493   2.193  15.146 -0.0181 -0.4315  0.1244
22460W        W39308  11.349   6.038  17.517  0.0014 -0.1622  0.1082
22461W        W39309  16.155  16.537   1.032  0.0039  0.1440  0.0303
22462W        W39310   7.476   4.432  16.257  0.1534  0.2256  0.0192
22463W        W39311   8.050   7.291  15.287  0.0157  0.3940 -0.2759
22464W        W39312   9.981   2.883  15.255 -0.1712  0.1443 -0.2391
22465W        W39313  15.130   9.367  15.941 -0.0202 -0.1353  0.0464
22466W        W39314  14.143   6.447  13.437  0.0744 -0.2156 -0.0421
22467W        W39315   9.998   6.506  14.523 -0.2208 -0.1188 -0.0598
22468W        W39316   9.744   8.225   1.916 -0.0283  0.0516 -0.0356
22469W        W39317   0.236  12.273  12.198 -0.0406 -0.1032  0.1775
22470W        W39318  12.782   9.273   2.148 -0.2355 -0.3019  0.2044
22471W        W39319   1.342   1.540  16.659  0.1265 -0.2017 -0.4300
22472W        W39320  12.087   2.696   4.274  0.0162 -0.0508 -0.1627
22473W        W39321   7.388  14.409  17.583 -0.2158  0.3707 -0.1136
22474W        W39322   5.754  11.451  12.031 -0.2144  0.0481 -0.2029
22475W        W39323  11.156   3.028   2.218 -0.1326 -0.2805 -0.4557
22476W        W39324   2.643   5.059   4.847 -0.0944 -0.2213 -0.0563
22477W        W39325  10.056   9.266  15.232  0.1447 -0.0695 -0.1071
22478W        W39326   0.051  11.896  12.620  0.0566  0.0156 -0.1590
22479W        W39327   7.548  13.635  12.546 -0.1216 -0.0044  0.0681
22480W        W39328   2.944  14.875   2.671  0.0650  0.0151  0.2811
22481W        W39329  11.480  16.976  16.999  0.0796 -0.0620  0.0138
22482W        W39330   6.908   7.434  11.871 -0.1546  0.1645 -0.2375
22483W        W39331   7.269   7.499  15.055  0.0226 -0.1399  0.2765
22484W        W39332   3.128  10.049   3.262  0.1553 -0.0298  0.0074
22485W        W39333   1.748   7.886   1.445 -0.0781 -0.0771  0.1488
22486W        W39334  11.753  14.916   3.636 -0.0982 -0.1043  0.1147
22487W        W39335   3.991   9.884   2.996 -0.1182 -0.0580  0.1346
22488W        W39336   1.736  15.772   4.625  0.3070 -0.1918 -0.3611
22489W        W39337   2.124  15.435   1.292 -0.2323  0.0550  0.3196
22490W        W39338   1.804  15.751  13.831 -0.0314  0.3140 -0.0378
22491W        W39339   6.512   2.041  14.135  0.0196  0.1738  0.1310
22492W        W39340   8.780  15.240  13.093 -0.0179  0.2514 -0.0639
22493W        W39341  13.579  16.634   2.498 -0.1542  0.3358 -0.1844
22494W        W39342  13.489   5.457  14.044 -0.2961  0.1168 -0.3485
22495W        W39343  14.017   0.740   5.410  0.1418  0.0715 -0.2407
22496W        W39344   5.826   8.885   3.993 -0.0243  0.1274  0.0692
22497W        W39345   7.105  15.646  16.642  0.2370  0.3039 -0.1524
22498W        W39346  15.880   6.013  14.424  0.1893 -0.0568  0.2302
22499W        W39347   4.367  16.878  13.577  0.2345  0.3796 -0.2159
22500W        W39348  10.609   0.136   2.232  0.2022  0.0861 -0.2353
22501W        W39349  12.730  11.498   4.835 -0.0805 -0.0664 -0.1454
22502W        W39350   2.536  14.101   3.445  0.0355 -0.0473  0.2868
22503W        W39351  12.272  15.235   2.760 -0.0654  0.5139  0.1143
22504W        W39352   3.869   3.863   3.104 -0.1092  0.2242  0.0452
22505W        W39353   9.800  11.852  12.158  0.2217 -0.1113 -0.1975
22506W        W39354   5.819  16.960   2.036 -0.3854 -0.0774  0.2213
22507W        W39355  16.826   2.544  14.561  0.2611  0.0113  0.2286
22508W        W39356   6.070  13.272   3.570 -0.0296  0.1281 -0.2333
22509W        W39357   9.009  14.592  16.002 -0.3516  0.5314  0.0440
22510W        W39358  16.419   6.912  13.392 -0.2313  0.1557  0.1301
22511W        W39359   1.432  11.917   3.268  0.1501 -0.0668 -0.0700
22512W        W39360   6.729  15.952  16.035 -0.0209  0.0539 -0.1114
22513W        W39361  14.976   5.843   6.078  0.1137  0.0533 -0.0695
22514W        W39362  13.401   7.365   4.527 -0.0171  0.0233  0.0942
22515W        W39363  14.682   1.485   5.110 -0.0615  0.1746  0.2034
22516W        W39364   1.791   9.797   1.326 -0.0624 -0.1099 -0.0110
22517W        W39365   2.311   0.940  17.734 -0.3419  0.0751 -0.3093
22518W        W39366  16.992  14.649   4.191  0.0630 -0.1316  0.3201
22519W        W39367   3.439   7.505   3.523  0.1216 -0.0204 -0.1780
22520W        W39368  15.841  16.794   5.446 -0.0731 -0.1888  0.2734
22521W        W39369  12.229  11.785  12.723 -0.0269 -0.3339 -0.1006
22522W        W39370  11.327   9.089  16.405 -0.0609 -0.1133 -0.1098
22523W        W39371   5.299   0.615  12.812  0.1571  0.0348 -0.0356
22524W        W39372   4.873   0.533  13.268 -0.1414  0.0053  0.3777
22525W        W39373   6.418  14.041  12.179  0.2261  0.3645  0.1794
22526W        W39374  16.598  12.088   2.448  0.1790 -0.0943  0.0342
22527W        W39375   0.575   9.027  17.061 -0.0001  0.0075 -0.1345
22528W        W39376  10.603  15.836  12.989  0.0737 -0.0070 -0.1556
22529W        W39377   4.709  16.076  16.031 -0.2053  0.0030  0.1608
22530W        W39378   0.138   2.258  13.862  0.2227 -0.4330 -0.1977
22531W        W39379   7.012   0.017   1.654 -0.0068  0.2433 -0.0737
22532W        W39380  11.359   4.384   1.688 -0.1500  0.2826 -0.1587
22533W        W39381   8.597  10.650   3.847  0.3333 -0.2141 -0.0532
22534W        W39382  15.272   5.375   5.498  0.2311 -0.2645 -0.0898
22535W        W39383  13.312   7.980  15.193 -0.0586 -0.1763 -0.1226
22536W        W39384   5.732  15.983  15.602 -0.1782 -0.2351  0.3865
22537W        W39385  15.618   1.185  17.475  0.1460 -0.1250 -0.0255
22538W        W39386   4.592  16.642   0.376 -0.2959 -0.2365 -0.0775
22539W        W39387  13.640   5.609   3.039 -0.1371  0.1803 -0.3693
22540W        W39388  10.636  16.683   0.392 -0.1489  0.0252 -0.0937
22541W        W39389  15.030  12.763   5.571  0.2673 -0.3003 -0.0315
22542W        W39390   7.001   2.171   5.072 -0.1533  0.0895  0.0127
22543W        W39391   1.930   5.820  12.390 -0.1417 -0.2375 -0.1799
22544W        W39392   9.169  14.655   5.684 -0.0670  0.0948 -0.1208
22545W        W39393   6.250  10.088   3.089  0.2907 -0.1179 -0.0182
22546W        W39394   8.511   4.359  14.619  0.1762  0.0103  0.0483
22547W        W39395  15.440   6.084   4.458  0.0645  0.2077  0.1693
22548W        W39396   6.658   9.049  15.862  0.1609  0.0874  0.0563
22549W        W39397   8.685  11.011   4.338 -0.2003  0.3346 -0.2220
22550W        W39398  10.664   1.316  13.271 -0.0890  0.2100  0.0515
22551W        W39399   6.563   6.958   3.936  0.0603 -0.1690  0.3480
22552W        W39400   0.289   8.352  17.721 -0.0443 -0.2004 -0.2015
22553W        W39401  13.731  17.010   3.558  0.0955 -0.1311 -0.1871
22554W        W39402   3.203   5.521   6.066 -0.1624  0.4285 -0.2994
22555W        W39403  14.278  14.435   5.423 -0.1700  0.0773  0.0641
22556W        W39404   4.952   8.231   5.444  0.4513 -0.1984  0.0630
22557W        W39405  15.010   3.895  15.941 -0.4272  0.0397 -0.1802
22558W        W39406   4.625   9.220   2.557  0.0644  0.0407 -0.3782
22559W        W39407  15.824  11.389  16.262 -0.0463  0.0709  0.0422
22560W        W39408  12.042   1.684   2.793 -0.2220 -0.0412 -0.1523
22561W        W39409  11.410   3.572   1.433  0.0991 -0.1204  0.0168
22562W        W39410  16.019  16.643  13.983 -0.2793 -0.2679 -0.2773
22563W        W39411   5.673   6.053  15.554  0.0657 -0.0356  0.2686
22564W        W39412   9.081   7.464  14.334 -0.0665  0.0143  0.0715
22565W        W39413   7.033   6.964   4.046 -0.1423  0.1007 -0.2544
22566W        W39414   2.714  15.949  12.401 -0.2883 -0.2151 -0.2160
22567W        W39415   5.239  14.948  17.570  0.0746  0.0799 -0.0603
22568W        W39416  11.000  14.908   2.278  0.2076  0.0274  0.0250
22569W        W39417   7.843   5.417   0.680 -0.0045 -0.0536 -0.1956
22570W        W39418   5.324  13.722  15.820  0.1454 -0.2176  0.1979
22571W        W39419   1.136   8.406  15.220  0.1671  0.2646  0.1217
22572W        W39420   6.835  16.695  12.890  0.1880 -0.1743 -0.0712
22573W        W39421   8.174   2.582  15.578  0.0624  0.1432 -0.0575
22574W        W39422   2.672   7.619  12.891 -0.2011  0.0897  0.0975
22575W        W39423   9.529   7.553  15.188  0.0650  0.0353 -0.0906
22576W        W39424   1.814   5.621  13.242 -0.0029  0.0437  0.2860
22577W        W39425   4.556  10.106   4.236  0.0447 -0.2375 -0.2686
22578W        W39426   4.018  10.416  14.530  0.3220 -0.2810 -0.0046
22579W        W39427   8.843  12.292   4.770  0.1178  0.2304  0.1600
22580W        W39428   1.725  12.083   3.652 -0.3948  0.1467  0.1671
22581W        W39429  16.544   7.641  16.429  0.0545  0.0071  0.3676
22582W        W39430   3.667   4.337  12.759 -0.3687 -0.0131 -0.3321
22583W        W39431   8.287  14.427  12.401  0.1905  0.0078  0.1387
22584W        W39432  11.728   4.828   6.360 -0.2410  0.0753 -0.0920
22585W        W39433   5.003   5.263   2.238  0.1369 -0.2152  0.0524
22586W        W39434   2.817   5.650  16.239  0.3236  0.1696  0.0120
22587W        W39435  14.308  17.052  13.771 -0.2264 -0.1736 -0.0299
22588W        W39436   7.026   7.875  15.402 -0.1081 -0.0397  0.0932
22589W        W39437  11.043   2.649   5.179 -0.2214 -0.0309 -0.1855
22590W        W39438   5.101  16.464  17.303  0.0949  0.0531 -0.2042
22591W        W39439  11.083   6.895   2.809 -0.1561 -0.0935  0.0049
22592W        W39440   0.969   2.678   3.224  0.1270 -0.1189  0.1090
22593W        W39441  10.548  12.763  15.626  0.1792  0.1765 -0.2104
22594W        W39442   0.773  16.095  15.472  0.1916  0.1049  0.1184
22595W        W39443   0.353  15.528   3.430 -0.1521  0.1537  0.4529
22596W        W39444  13.441   4.502  17.728  0.0083  0.2330  0.0599
22597W        W39445  12.189   7.123  16.715 -0.0250  0.0758 -0.0085
22598W        W39446  12.577   4.780   2.760 -0.1688  0.0828  0.0765
22599W        W39447   9.053  15.752  12.079 -0.2067  0.0702 -0.1188
22600W        W39448   1.845   6.586  14.069  0.4149  0.5805  0.2487
22601W        W39449  12.427  16.062   3.545  0.3693 -0.1150 -0.1248
22602W        W39450  16.918  10.954   1.817 -0.1377 -0.1151  0.1742
22603W        W39451   0.089  15.826  13.853  0.3696 -0.2045  0.2657
22604W        W39452   5.729   7.788  11.668 -0.0185  0.0290 -0.0159
22605W        W39453   4.752   7.990   4.022 -0.1682  0.3114 -0.1161
22606W        W39454   2.186   7.155   2.465  0.1402 -0.0200  0.1122
22607W        W39455  11.918   5.889  13.160  0.0412 -0.0310 -0.1218
22608W        W39456   2.364  14.001  17.554 -0.0474  0.0877  0.2141
22609W        W39457  16.684   4.441   1.422  0.0469 -0.0571  0.1492
22610W        W39458  14.424  16.481  12.873  0.2127  0.1659 -0.0678
22611W        W39459   6.682  12.167  15.660 -0.2760  0.1931  0.2080
22612W        W39460  15.845   0.558  13.073 -0.0200  0.0597 -0.1291
22613W        W39461  10.894   5.591  15.613 -0.0956  0.0602  0.0697
22614W        W39462   7.476   4.957  15.421  0.0320  0.0860  0.0381
22615W        W39463  16.167  16.299  12.701  0.2957  0.5458 -0.2838
22616W        W39464  12.676   5.209  13.517  0.0985  0.1205  0.0790
22617W        W39465   9.028   1.986   0.739  0.0824  0.3529 -0.1422
22618W        W39466  15.822   9.480   5.541 -0.1126 -0.5185 -0.1674
22619W        W39467   1.945  13.767  13.193 -0.3202  0.3223 -0.2590
22620W        W39468  11.564  10.682   0.562 -0.1243  0.0410 -0.1878
22621W        W39469   2.378  10.541   3.017  0.1211  0.2465 -0.2081
22622W        W39470   9.060  10.441   5.882  0.0984  0.0682  0.1749
22623W        W39471   3.258   5.103   5.697  0.1722  0.1981  0.1531
22624W        W39472   5.825  13.328  13.390  0.0663  0.2600 -0.0899
22625W        W39473   5.219  15.963  14.628  0.1667 -0.0121  0.1501
22626W        W39474   4.699   8.744  17.251 -0.2140  0.2204 -0.1082
22627W        W39475   6.607  15.595  14.392 -0.1263  0.1412 -0.3933
22628W        W39476  15.820   2.174   1.386 -0.3626  0.0703 -0.0430
22629W        W39477  12.357  14.647  16.700  0.0799 -0.2849  0.1581
22630W        W39478   0.662  16.400   1.347  0.0284  0.1661  0.0231
22631W        W39479   8.836   7.084   4.159  0.0538  0.0419  0.2061
22632W        W39480  15.959   3.578   4.701 -0.3063 -0.2488 -0.0253
22633W        W39481  11.727   4.793  15.612 -0.0663  0.1167 -0.0308
22634W        W39482   6.575   1.653   5.780  0.1340  0.1525  0.3051
22635W        W39483   9.058   6.129   1.573  0.1224  0.0566  0.0083
22636W        W39484  11.591  14.487  12.196 -0.1761  0.1256 -0.2646
22637W        W39485  13.793   3.031   1.182  0.1198  0.1120  0.0825
22638W        W39486  11.616  12.601  12.352  0.1722  0.0932 -0.2843
22639W        W39487  12.725   7.691   2.588  0.5335  0.0425  0.1928
22640W        W39488  12.830   3.461  13.214  0.1961 -0.1709 -0.0426
22641W        W39489   0.261   4.452  13.827  0.0323  0.1832  0.2739
22642W        W39490  12.947  14.227  17.125  0.2183  0.1069 -0.1733
22643W        W39491  12.167  16.486  13.643  0.1971  0.0189 -0.1442
22644W        W39492   5.519   7.362  15.521  0.0313  0.2140  0.2107
22645W        W39493   1.689  14.763  15.110 -0.1568 -0.2298 -0.1247
22646W        W39494  11.568   1.266  11.094  0.2581  0.1939  0.1228
22647W        W39495   2.202  14.017   3.932 -0.1101  0.0416 -0.0539
22648W        W39496   6.831  14.717   4.860 -0.2616 -0.1402 -0.2277
22649W        W39497  11.422   1.998   1.324  0.0141 -0.0634 -0.0026
22650W        W39498   3.142   6.666   2.850 -0.3508  0.2004 -0.3483
22651W        W39499  12.359   3.840   2.454  0.1144 -0.2851  0.0372
22652W        W39500   4.929   9.851  17.287  0.0693 -0.2193  0.1628
22653W        W39501   1.660   0.842   3.356  0.0154 -0.1960  0.3548
22654W        W39502  13.814  15.536   4.721  0.2059 -0.0903  0.1306
22655W        W39503  12.489  13.718   4.975 -0.0028 -0.1958 -0.1508
22656W        W39504  15.623   9.750   4.124 -0.0355  0.2680 -0.0398
22657W        W39505   0.452   1.378  14.567  0.0146 -0.3697  0.0975
22658W        W39506  14.691  13.261  13.678  0.0498  0.0783 -0.0204
22659W        W39507  14.881   8.710   5.339 -0.3304 -0.2129 -0.1956
22660W        W39508   2.689  13.977  13.247 -0.1315  0.2321  0.0688
22661W        W39509  13.870   1.738  13.432 -0.0682  0.0838  0.2786
22662W        W39510  10.566   9.478   4.894 -0.1724 -0.0268  0.0022
22663W        W39511  16.908   2.599  17.783 -0.0673  0.2133 -0.0960
22664W        W39512   4.766  14.338   3.309  0.1147  0.0280  0.1813
22665W        W39513   6.727   4.232  13.914  0.2458  0.1656 -0.1352
22666W        W39514  11.852  13.041  15.950  0.4100  0.0759  0.1108
22667W        W39515   2.987   8.652  14.826 -0.2123  0.0897  0.0559
22668W        W39516  10.090   8.438  15.866 -0.1665  0.3005  0.0199
22669W        W39517   7.910   8.256  16.465 -0.0843 -0.0616 -0.1442
22670W        W39518  15.499   4.945   0.835  0.0119  0.2358  0.1086
22671W        W39519   9.158   7.255   2.635 -0.0368  0.2933  0.0490
22672W        W39520  10.973   7.104  14.232  0.0207  0.2943  0.3173
22673W        W39521  15.500  16.696   3.994  0.1156  0.0613  0.0243
22674W        W39522   8.547   4.658  12.220  0.2312 -0.2142  0.1329
22675W        W39523  14.496   9.138   4.598 -0.2921  0.1986  0.3806
22676W        W39524   2.540  13.319   2.416  0.0290 -0.1132 -0.1372
22677W        W39525   5.781   2.294  13.604  0.1015  0.2623  0.3134
22678W        W39526   5.962  14.359  14.593 -0.1607  0.1743  0.0363
22679W        W39527   6.776   4.589   0.051  0.0483  0.0544 -0.0839
22680W        W39528   1.046   4.201   5.291 -0.1293  0.2168 -0.0578
22681W        W39529  11.176   5.616  17.745  0.1957  0.1622 -0.4023
22682W        W39530   7.861  11.072  17.652 -0.1341  0.1996  0.0588
22683W        W39531   2.168   1.509   4.409 -0.2528 -0.0354 -0.1248
22684W        W39532   9.627   6.270  15.046 -0.1306  0.1043 -0.0849
22685W        W39533  16.092   1.417   0.474  0.1485  0.1263  0.2847
22686W        W39534   9.109  11.164   2.820  0.2731 -0.0327 -0.0215
22687W        W39535  15.552  15.332   5.604 -0.3713 -0.0209 -0.1753
22688W        W39536   4.662   6.882   3.190  0.2256  0.0773  0.1816
22689W        W39537   4.995  16.189  14.164 -0.0262  0.1550 -0.0427
22690W        W39538   8.788  15.830   5.791  0.1375 -0.1620  0.0260
22691W        W39539   7.743   9.896  17.798  0.1661  0.1994 -0.0621
22692W        W39540   5.352  16.512   0.850 -0.1359 -0.2760 -0.2245
22693W        W39541   6.947   0.515   1.707  0.2899 -0.1555  0.2019
22694W        W39542  10.628   2.486   4.900 -0.1640  0.0992 -0.0213
22695W        W39543  14.553   3.627   2.264 -0.2526  0.2028 -0.0482
22696W        W39544   3.873   0.882   3.562 -0.0781  0.0897  0.2615
22697W        W39545   4.920   9.993   1.493  0.0658  0.1113  0.2156
22698W        W39546   4.442   4.574   3.189 -0.1765 -0.0125  0.0867
22699W        W39547   2.834   7.150  14.729  0.1023  0.0700  0.0914
22700W        W39548  10.806  15.719   2.836  0.0186  0.4550 -0.1288
22701W        W39549   8.746   5.407   4.108 -0.1382  0.0848 -0.1400
22702W        W39550   8.800   3.578   1.771 -0.2114 -0.1262 -0.1914
22703W        W39551  11.389  12.855   2.482 -0.2391 -0.0385 -0.0234
22704W        W39552  15.731  11.317   1.669 -0.0341 -0.1668  0.0078
22705W        W39553  11.180   3.437   0.120 -0.0302  0.0264  0.2697
22706W        W39554   8.136   3.716   5.582 -0.0282  0.1645 -0.0576
22707W        W39555  11.031  12.876   1.161  0.0203 -0.0511 -0.2245
22708W        W39556   1.053  16.833   2.478 -0.2436  0.1456 -0.0079
22709W        W39557  10.865  14.560   5.903 -0.1918  0.1301  0.0126
22710W        W39558  11.105   2.946  17.616  0.1621  0.0461 -0.0840
22711W        W39559   8.455   5.248   5.027  0.0170  0.0719 -0.2386
22712W        W39560  15.176  10.779  16.383  0.3506 -0.1616  0.1452
22713W        W39561   8.690   9.737  13.348 -0.2219  0.2920 -0.2206
22714W        W39562  11.785   9.238  16.700  0.2819  0.4616  0.1843
22715W        W39563  11.311   2.098  17.496  0.0006 -0.0431  0.1159
22716W        W39564  10.928  16.733   0.878 -0.1609 -0.1375 -0.2541
22717W        W39565  13.309  15.793  12.818 -0.0802 -0.1695  0.0302
22718W        W39566   6.769   9.408   1.646  0.0974 -0.3244 -0.0779
22719W        W39567   7.198  15.762  15.239  0.2794  0.1532 -0.0957
22720W        W39568  10.138   4.539   1.931  0.0772  0.4500 -0.2924
22721W        W39569   3.550   2.542  13.985  0.1975 -0.1554 -0.0454
22722W        W39570   1.697   0.879  14.768 -0.1024  0.3576 -0.0536
22723W        W39571   2.453   9.054  14.868  0.0279  0.1265 -0.1325
22724W        W39572   3.980   5.561   3.311 -0.1972  0.0919  0.2847
22725W        W39573  15.173   7.359   0.944  0.0929  0.1216  0.5223
22726W        W39574   9.204  14.647  15.412  0.0606 -0.1269  0.0340
22727W        W39575  11.255  14.701  14.017  0.1081 -0.2890  0.2841
22728W        W39576   9.113  17.001   3.272  0.1724  0.0291  0.0234
22729W        W39577   1.837   1.332   2.424  0.4048  0.0383  0.0256
22730W        W39578   1.195   6.387   5.784 -0.1572 -0.0772  0.0534
22731W        W39579   8.456  16.100  17.454 -0.2803  0.1117 -0.1099
22732W        W39580  12.770  13.616   4.488 -0.3017  0.3993  0.1025
22733W        W39581   2.581   2.107  17.243 -0.1368  0.0485 -0.1185
22734W        W39582  13.441   5.906   0.379 -0.0158 -0.2317  0.4791
22735W        W39583   0.059   9.893   3.342  0.0816 -0.1893 -0.0504
22736W        W39584  14.219  16.345   3.681  0.1055 -0.3662 -0.0902
22737W        W39585   2.698   8.572  17.836  0.0147  0.2943  0.2574
22738W        W39586  15.545   6.372  13.034 -0.1710 -0.2392  0.1602
22739W        W39587  13.257  16.255  16.220  0.0540 -0.1010  0.1775
22740W        W39588   2.992  10.043   6.775  0.0958 -0.0406 -0.0011
22741W        W39589   7.847  11.030  16.627  0.1061  0.0223 -0.0749
22742W        W39590   2.225  11.272   4.978  0.0377  0.0188 -0.1209
22743W        W39591  13.225   6.945  13.532 -0.2351 -0.0716  0.3026
22744W        W39592  10.909   0.106   1.144  0.2323  0.1162  0.0557
22745W        W39593   2.518   4.188  14.958 -0.0134 -0.1603  0.2316
22746W        W39594   5.231   2.708  15.774  0.0650 -0.0326  0.1222
22747W        W39595   5.773  14.826  13.334 -0.2972 -0.1447 -0.0034
22748W        W39596  15.362  12.648  12.955 -0.1174  0.2951  0.0664
22749W        W39597  12.565   9.795  14.076 -0.0856 -0.0763 -0.0967
22750W        W39598   2.563   6.472   2.396  0.2443 -0.2652  0.2332
22751W        W39599  12.889  13.115  15.458 -0.1181  0.1297  0.1622
22752W        W39600   1.785  15.248   4.702 -0.0489  0.0087 -0.1417
22753W        W39601   3.380   1.788  12.275 -0.0475  0.4039  0.0674
22754W        W39602   4.336  12.792  16.984  0.1043 -0.1957  0.1677
22755W        W39603   5.478  14.150  14.368 -0.2326  0.1612  0.0012
22756W        W39604   6.193  14.684  13.635  0.0974 -0.1502  0.1609
22757W        W39605   1.531   2.816  16.286  0.0155  0.0823 -0.0712
22758W        W39606   2.185   6.274  13.977 -0.1449  0.0585  0.0615
22759W        W39607  10.772   6.604   2.009 -0.0685 -0.0679  0.3343
22760W        W39608   1.609   6.534   1.305  0.0395  0.0912 -0.0561
22761W        W39609  14.342   6.369   5.477 -0.0184 -0.1110  0.1715
22762W        W39610  11.508  14.189  13.753 -0.1559 -0.0200  0.0795
22763W        W39611   2.283   0.861   5.425 -0.4791  0.1153  0.1570
22764W        W39612   3.709  10.328   0.615 -0.0963  0.2910  0.0374
22765W        W39613  11.985   2.406   3.810  0.0601  0.1054 -0.3836
22766W        W39614  13.275   5.750   3.431  0.0796 -0.2085 -0.0843
22767W        W39615   2.161   2.507  17.736  0.0984  0.3407  0.4244
22768W        W39616   3.654   6.303  13.140 -0.0527  0.2100  0.0181
22769W        W39617   6.531  10.165  12.047 -0.0122 -0.2260 -0.1429
22770W        W39618   4.225   1.064   0.569  0.4317 -0.0293  0.1090
22771W        W39619   2.338   1.214   6.683  0.1802 -0.0663 -0.1146
22772W        W39620   2.913   7.600   0.336 -0.2093 -0.0027 -0.2340
22773W        W39621  15.440  12.403   4.259 -0.2744  0.3609  0.1564
22774W        W39622  11.779  13.840  13.467  0.0522  0.0264  0.0502
22775W        W39623   3.995  13.177  12.375  0.3893 -0.0459 -0.0979
22776W        W39624   3.324  15.932   3.438 -0.3574  0.1137  0.1738
22777W        W39625   1.765   5.824  14.248 -0.1493 -0.2986  0.0195
22778W        W39626  10.159  11.741  15.836  0.0883 -0.0717 -0.2136
22779W        W39627  11.779  13.321   0.124  0.1396  0.2713  0.2360
22780W        W39628   8.663   9.297  16.332 -0.3539  0.1925  0.0536
22781W        W39629  16.786   1.971   1.169 -0.1550 -0.1628 -0.1787
22782W        W39630  15.438   8.770  13.732  0.1532  0.3303  0.0942
22783W        W39631  16.819   8.631   3.250  0.1926 -0.0966 -0.1169
22784W        W39632  15.374   5.591  12.425 -0.1657  0.2242  0.1576
22785W        W39633   8.647  12.301  15.886 -0.1592 -0.3107 -0.1173
22786W        W39634   0.121  15.329   2.198 -0.0172  0.0790  0.0566
22787W        W39635   9.260  12.271  12.354 -0.4726  0.3144 -0.1220
22788W        W39636   3.185   5.925  16.143 -0.1389 -0.0560 -0.0189
22789W        W39637   5.030  16.245  15.008  0.2499  0.2244  0.0523
22790W        W39638   3.286  10.140   2.074 -0.0950 -0.0334 -0.2739
22791W        W39639   5.477   0.567  13.482  0.0521 -0.1762 -0.0568
22792W        W39640  16.484   0.817   3.226  0.2700  0.0322  0.0794
22793W        W39641   4.445  11.585  15.425 -0.2743 -0.0005 -0.0983
22794W        W39642  12.725   9.058  17.155 -0.0642  0.1822 -0.0160
22795W        W39643  10.145  16.161   5.594 -0.0753  0.2261 -0.0708
22796W        W39644  15.759   8.583  17.151  0.3714 -0.0711  0.2137
22797W        W39645  16.562  10.264   5.541 -0.2502 -0.1795  0.1277
22798W        W39646  12.994  12.057   2.904  0.2885 -0.4280 -0.1741
22799W        W39647   4.569  14.116  13.119 -0.2491 -0.0672  0.0679
22800W        W39648   5.006  12.224  14.774  0.2306  0.1643  0.4146
22801W        W39649  13.491   7.288  15.673  0.0178  0.1081 -0.1940
22802W        W39650   4.527  16.085  14.995  0.4408 -0.2775 -0.4329
22803W        W39651   7.411  12.193  17.381  0.0308 -0.5654 -0.0742
22804W        W39652   4.028  11.942  14.003  0.1197  0.0198 -0.1246
22805W        W39653   7.792   3.389  16.063  0.0741  0.0205 -0.1899
22806W        W39654   2.054   1.100   0.765 -0.0193 -0.2755 -0.0649
22807W        W39655  10.509   9.090   0.598  0.3054 -0.0458 -0.1792
22808W        W39656  12.334   9.111   2.430  0.2708 -0.1517  0.3156
22809W        W39657   1.301  13.421  16.940 -0.1263 -0.2260  0.1111
22810W        W39658   6.359   2.356   0.186 -0.3125  0.1812 -0.0885
22811W        W39659   7.316   7.897   5.564 -0.1495 -0.1576  0.0315
22812W        W39660   0.338   1.094  13.792  0.0072 -0.0480  0.0510
22813W        W39661  16.809   2.642  17.258 -0.0808  0.2302 -0.1791
22814W        W39662   5.140   3.582   0.231  0.0265  0.0258  0.0698
22815W        W39663   3.815   8.143   5.500 -0.1663 -0.1526 -0.0237
22816W        W39664  12.341  12.379  11.865 -0.2317 -0.2918  0.0670
22817W        W39665  14.485   6.942  17.229 -0.1272 -0.1654  0.1461
22818W        W39666  11.679  15.926  14.480  0.0607 -0.0587 -0.2233
22819W        W39667   0.168   9.138  15.807 -0.2073 -0.0267  0.0429
22820W        W39668   6.028   7.113  15.432  0.1158 -0.0817 -0.1251
22821W        W39669   3.269   5.428  14.617 -0.0247  0.0202 -0.0172
22822W        W39670   0.137  14.253  15.652 -0.1002  0.1161  0.0237
22823W        W39671   1.405   7.055   1.367  0.1943 -0.1108 -0.2772
22824W        W39672   0.193   0.647   0.829  0.0854 -0.0237 -0.0443
22825W        W39673  13.708  13.055  15.643 -0.3272 -0.0070 -0.4461
22826W        W39674   6.754   7.500   3.100  0.1708 -0.0208 -0.0745
22827W        W39675  12.395   5.990   3.396  0.0656  0.0484 -0.0595
22828W        W39676  16.959   2.832   4.006  0.1038  0.2958 -0.3236
22829W        W39677   5.384   4.678  14.197 -0.3267 -0.0576  0.0831
22830W        W39678   1.148  10.555   3.362  0.1122 -0.1108 -0.1693
22831W        W39679   3.429  14.134  15.568  0.0778  0.2152  0.0705
22832W        W39680   3.380   4.815  14.636  0.1118 -0.2199  0.1878
22833W        W39681   5.682   0.411   3.575  0.1839  0.3277 -0.2622
22834W        W39682  13.454   7.666  12.313  0.1901 -0.0418  0.0195
22835W        W39683   1.400   9.348   0.372 -0.1195 -0.0542  0.1272
22836W        W39684   3.791   9.677  14.224 -0.0233  0.1234 -0.0288
22837W        W39685   2.200  10.926  16.530 -0.1063  0.1963  0.0161
22838W        W39686   4.401   3.911  12.467  0.1171 -0.1866  0.0465
22839W        W39687   4.543   6.297   5.888 -0.1162 -0.2149 -0.0729
22840W        W39688   2.016   2.103  13.749  0.1327  0.1286  0.3441
22841W        W39689   6.365   3.974   5.363  0.1230  0.3084 -0.0419
22842W        W39690   7.897   1.316   2.302 -0.2180 -0.1267 -0.1701
22843W        W39691  16.016   7.269  17.188 -0.0028  0.0525  0.1577
22844W        W39692   1.087   2.657   3.719  0.1586  0.2092  0.1096
22845W        W39693  12.609   7.449   2.134 -0.0759 -0.3493  0.0053
22846W        W39694   1.567  10.055  12.488 -0.0850  0.0288 -0.0526
22847W        W39695  14.000  14.610  17.729 -0.0539 -0.4045 -0.1657
22848W        W39696  16.426  14.774   5.186 -0.3376  0.1607 -0.0973
22849W        W39697  10.280   8.874   4.256  0.2058 -0.2865 -0.0094
22850W        W39698   2.129   0.959   4.638 -0.0417  0.2252  0.1382
22851W        W39699   8.316   7.336   4.190 -0.0404 -0.1225  0.0574
22852W        W39700  16.150  14.286   2.951 -0.0563  0.0132  0.0814
22853W        W39701   2.813   7.315  16.993  0.1391 -0.0787  0.0223
22854W        W39702  12.007  11.079   0.371 -0.1771  0.2668 -0.2954
22855W        W39703  10.665  14.417  16.901 -0.5212  0.3234 -0.2185
22856W        W39704   9.750   2.136   0.662  0.2158 -0.0430  0.0825
22857W        W39705  13.507   0.493   0.655  0.0500  0.0561  0.1567
22858W        W39706  14.602   8.112   0.822  0.0043  0.0544 -0.0740
22859W        W39707  13.692  13.331  12.018  0.1003 -0.0091 -0.1432
22860W        W39708   6.776   9.931   0.919  0.0596  0.3952  0.1806
22861W        W39709  13.927   7.000  13.822  0.0432 -0.1660 -0.1621
22862W        W39710   3.976  11.101   3.151  0.2191  0.3025  0.1719
22863W        W39711  13.225   6.942  15.000  0.0604 -0.0816 -0.1478
22864W        W39712   1.634   3.049   1.417 -0.2351  0.3182 -0.0518
22865W        W39713   1.247  15.666   4.663  0.0042  0.1293  0.3137
22866W        W39714  15.060   4.943   3.270 -0.1206 -0.1726 -0.0642
22867W        W39715   4.713   8.920   4.941 -0.0777  0.1315 -0.2714
22868W        W39716  13.154  11.328   4.358 -0.2399  0.0145 -0.0020
22869W        W39717  15.676   5.416   0.877 -0.0634  0.1649 -0.1751
22870W        W39718   2.524  10.620  15.454  0.0383  0.1981  0.0120
22871W        W39719   4.852  15.245  14.526  0.0782  0.2165  0.0305
22872W        W39720   7.968   0.811   5.018 -0.3000  0.1979  0.2398
22873W        W39721  14.166  10.831   3.715 -0.1009 -0.4959 -0.1661
22874W        W39722   3.474  12.319   2.480 -0.2460  0.0599  0.0140
22875W        W39723   8.854   5.986  13.923 -0.0757 -0.1884 -0.0535
22876W        W39724  13.108  11.649   1.179  0.2870 -0.0161  0.0842
22877W        W39725   8.454   5.547  16.283  0.1339  0.1198  0.1336
22878W        W39726   4.013  11.001  16.695 -0.1500  0.1466  0.2257
22879W        W39727   6.507  12.078   3.204 -0.0757  0.0645 -0.3092
22880W        W39728   4.195   1.622  13.298  0.1500  0.4043  0.0349
22881W        W39729   8.104   9.884   5.948  0.5218  0.1373  0.1172
22882W        W39730  13.196  11.833  17.669 -0.3650 -0.0083  0.1537
22883W        W39731  10.478   9.024  16.523 -0.0881 -0.1692 -0.2218
22884W        W39732   8.575  10.993   0.255 -0.2926  0.2076 -0.0423
22885W        W39733   1.273   5.102  13.657  0.1524 -0.0454  0.0886
22886W        W39734   8.845  12.135  16.412  0.2233 -0.0737  0.1496
22887W        W39735  15.658   1.763  11.847  0.1552  0.1624 -0.0563
22888W        W39736   2.918  10.742  15.877 -0.0478  0.3320 -0.0095
22889W        W39737  16.709  15.236   5.112  0.1615 -0.1964 -0.0365
22890W        W39738  16.165   2.961   5.600 -0.1820  0.2682  0.1159
22891W        W39739   1.691  10.233   2.272 -0.2087 -0.2125  0.0339
22892W        W39740  14.365   3.958  16.353  0.0433  0.1623 -0.2526
22893W        W39741  13.654   0.832   2.722  0.0472  0.4650 -0.1702
22894W        W39742   7.072  12.639  13.914 -0.2013  0.0527 -0.1908
22895W        W39743   6.640   7.321   2.207  0.2072  0.0732 -0.0579
22896W        W39744   2.750  16.830  14.799  0.0633  0.1604 -0.0448
22897W        W39745  11.906   0.585  14.496  0.1557  0.2605 -0.0044
22898W        W39746   8.908   8.920   1.040  0.1718 -0.0060 -0.0132
22899W        W39747   0.269   5.105   1.560  0.1905 -0.5091  0.0825
22900W        W39748  10.989   3.994  13.490  0.2446  0.0343  0.1145
22901W        W39749  12.338  15.042   4.372 -0.0561 -0.1422 -0.1507
22902W        W39750   1.202  14.927  15.921 -0.0976 -0.0024  0.0962
22903W        W39751   5.949   4.318   1.154 -0.1309  0.1907 -0.1850
22904W        W39752   8.004   2.758   4.821  0.1055  0.1422 -0.1219
22905W        W39753  17.043   0.952  12.245 -0.0812 -0.2380 -0.3102
22906W        W39754   1.953  14.873  12.760  0.1347  0.1990 -0.0078
22907W        W39755   6.663   6.881   3.429 -0.2132  0.2663  0.2746
22908W        W39756   0.243   0.819  12.873 -0.2529  0.1980 -0.2916
22909W        W39757  14.662   1.963  16.382 -0.1400  0.0183  0.1177
22910W        W39758   1.640  15.641   1.095 -0.2343  0.1165 -0.1057
22911W        W39759   3.727   3.310   4.483  0.2298 -0.3021 -0.2255
22912W        W39760   2.090   8.077   5.042  0.0141  0.0431 -0.0780
22913W        W39761  13.661  15.573  15.161  0.2282 -0.1253  0.2871
22914W        W39762  13.382  11.963  13.302 -0.0518  0.1234  0.0809
22915W        W39763   0.178  15.215   2.755  0.1689 -0.1197  0.0106
22916W        W39764  10.890   9.881  16.075 -0.1960 -0.1821 -0.0631
22917W        W39765   0.142   9.044   3.129 -0.1832 -0.1347 -0.1687
22918W        W39766   4.267   9.722  17.361 -0.2038  0.0212  0.2101
22919W        W39767   0.958  13.480  12.936  0.1480 -0.0948 -0.1138
22920W        W39768   0.983  16.627   4.754 -0.2738 -0.4168  0.0418
22921W        W39769   7.708   3.012   3.238  0.2685  0.1178 -0.2220
22922W        W39770  15.831   3.587  17.432  0.3482 -0.0459 -0.1602
22923W        W39771   6.306  11.738  14.718  0.3547 -0.3366  0.1651
22924W        W39772  11.152   8.029   4.349  0.0380  0.0438 -0.0521
22925W        W39773   0.909  16.279  16.059 -0.1175 -0.1804  0.1996
22926W        W39774  14.882   9.105   1.014 -0.1011  0.0810 -0.0665
22927W        W39775   5.568  15.111   1.402 -0.4769 -0.1511 -0.3286
22928W        W39776  14.131   0.378   0.994 -0.2041  0.0112  0.1991
22929W        W39777  13.753   8.180   5.966 -0.1865  0.1319  0.0458
22930W        W39778  16.984   3.063  13.051  0.1488  0.4456 -0.1218
22931W        W39779  13.608   0.294  11.892 -0.0002 -0.2513 -0.1692
22932W        W39780   6.478   0.681  13.827 -0.3732  0.0097 -0.1820
22933W        W39781  10.782  13.566   0.485  0.2420 -0.0097 -0.1303
22934W        W39782   4.781   4.698  13.547 -0.2845 -0.1917  0.3516
22935W        W39783   9.071   5.681  14.278 -0.0239 -0.0329  0.1024
22936W        W39784  14.450   5.540  17.292  0.1859  0.0980  0.1014
22937W        W39785   8.906   3.578  16.706  0.1716 -0.0950 -0.2985
22938W        W39786   0.019   8.518   6.286  0.2759 -0.4158  0.2952
22939W        W39787  12.183  11.128   2.086 -0.1550 -0.0502 -0.1299
22940W        W39788  12.774   8.243  14.054 -0.0505 -0.0578  0.0908
22941W        W39789  14.918   0.228  17.821  0.2187  0.0111  0.0621
22942W        W39790   6.433   1.611  12.851  0.3940  0.1966  0.3660
22943W        W39791  12.111   1.230   2.434  0.0760  0.0133 -0.0259
22944W        W39792  12.687   0.180  14.564 -0.1254 -0.0630 -0.2558
22945W        W39793   2.787   8.347  16.934  0.0294  0.0125  0.0637
22946W        W39794  10.789   4.597  17.383 -0.0747  0.1341 -0.3189
22947W        W39795   6.784  13.905   2.782 -0.3703 -0.0433 -0.2009
22948W        W39796  14.610  14.000  14.175  0.3629  0.3000  0.0806
22949W        W39797  11.471   5.812   5.752 -0.0220  0.0769  0.2092
22950W        W39798  14.343   1.842   1.678  0.0844 -0.1291  0.2256
22951W        W39799  14.150   4.825   3.096 -0.1039 -0.0633  0.0319
22952W        W39800  16.719  11.112  12.713 -0.2596 -0.1505  0.1246
22953W        W39801   6.929  12.666  12.601  0.0368  0.0580 -0.0663
22954W        W39802  13.380   6.720  14.518  0.0649 -0.2052 -0.1773
22955W        W39803  13.897   2.105   3.914  0.0300  0.0352 -0.0676
22956W        W39804  13.406  14.081   5.015  0.0660 -0.1918  0.1212
22957W        W39805   0.570   2.128  13.642 -0.0809  0.1890  0.0803
22958W        W39806   8.453   0.756   5.064  0.1361  0.2002 -0.1493
22959W        W39807  15.441   1.394   1.118 -0.0654 -0.0153  0.0622
22960W        W39808   6.373   3.392   1.196 -0.2466  0.2650  0.0949
22961W        W39809  11.505  16.364  12.362 -0.1241 -0.1337 -0.1235
22962W        W39810  13.724   9.434  14.245 -0.1237 -0.0928  0.2208
22963W        W39811  15.018   2.568   3.881 -0.3711 -0.0998 -0.2321
22964W        W39812   2.240  14.464   0.872 -0.3489  0.4053 -0.2122
22965W        W39813  16.949  15.418  15.311  0.0172 -0.2330  0.5128
22966W        W39814   3.908   7.834   5.030 -0.1922 -0.1135 -0.1335
22967W        W39815   4.024   4.284  16.069  0.0266 -0.0717 -0.2081
22968W        W39816   4.927  13.399   5.091 -0.1357  0.0274  0.3121
22969W        W39817   2.430   7.511  17.287  0.0008 -0.2715  0.4301
22970W        W39818   7.679  15.410  13.394  0.0391  0.2760  0.0950
22971W        W39819   5.094   7.026   2.947  0.0234 -0.1796 -0.0623
22972W        W39820   2.424  14.089  14.631 -0.0851 -0.1848 -0.0482
22973W        W39821  11.442   3.752  13.294  0.1402  0.1823  0.4354
22974W        W39822   8.624   7.267   3.282 -0.0936  0.0220  0.1805
22975W        W39823  13.388  15.077  13.516  0.1340 -0.1296  0.1988
22976W        W39824   5.811  12.694   3.554 -0.2378  0.0857 -0.2677
22977W        W39825  14.884   0.836   4.208 -0.2858 -0.0103  0.0435
22978W        W39826   1.625   3.233   0.374 -0.0957 -0.3584 -0.1387
22979W        W39827  16.109   5.818  16.808 -0.0248  0.2122  0.2949
22980W        W39828   9.266   1.155  14.004 -0.1346 -0.0877 -0.1865
22981W        W39829   7.458   2.800  12.535  0.0676 -0.0784 -0.0249
22982W        W39830  14.324  10.443  11.748  0.0194 -0.0295 -0.0304
22983W        W39831  13.255  16.184   5.085 -0.1825 -0.2210 -0.1356
22984W        W39832  16.760  14.273  17.575 -0.0355  0.1814 -0.1116
22985W        W39833  15.457   9.324  16.314  0.1967 -0.1744  0.1888
22986W        W39834   0.505  14.646   0.786 -0.0191  0.1431  0.1510
22987W        W39835  10.869   3.254  16.384  0.0763 -0.4105  0.2957
22988W        W39836  14.530  10.817   2.453  0.0074  0.2402 -0.5383
22989W        W39837   4.403   4.005  14.359 -0.0432  0.0005 -0.3155
22990W        W39838   5.847   2.437  12.084  0.0651  0.2817 -0.0412
22991W        W39839  13.283  10.199  16.426  0.0572 -0.0722  0.3398
22992W        W39840  15.688   4.020   2.134  0.1155 -0.3049  0.1000
22993W        W39841   6.464   7.727   4.390  0.2733  0.1559 -0.1193
22994W        W39842   8.895  11.903   3.196  0.1058  0.1742  0.0794
22995W        W39843   2.720  10.059  14.799  0.0150 -0.1281 -0.0300
22996W        W39844   2.435  14.505   4.241  0.0727  0.2665  0.2654
22997W        W39845   4.864  16.499   0.751 -0.2590  0.1750  0.2408
22998W        W39846   0.626   1.561   2.750  0.0597 -0.1054  0.2177
22999W        W39847   1.411  13.592  16.474  0.1106 -0.0619 -0.4752
23000W        W39848   8.722  10.109  16.930 -0.0158  0.5576 -0.0639
23001W        W39849   8.793   1.923   4.652  0.0773 -0.0405  0.1951
23002W        W39850   1.630   3.730  16.907 -0.0444  0.0015  0.2221
23003W        W39851   0.916  11.725   4.638 -0.2226 -0.1169 -0.2301
23004W        W39852   0.461   9.437   5.412  0.2236 -0.1443  0.0199
23005W        W39853   5.154  13.309  17.075 -0.1996 -0.1935  0.2902
23006W        W39854  15.689   7.396   1.231  0.2649  0.1219  0.1724
23007W        W39855  14.327  12.450  14.112 -0.1391  0.0227 -0.1466
23008W        W39856  10.436  13.597   3.762  0.1927 -0.0866  0.0923
23009W        W39857  12.887   3.836  12.390 -0.0251 -0.1791  0.0153
23010W        W39858  16.806   3.655  15.636  0.1460 -0.1111  0.0360
23011W        W39859   1.510  15.748   3.710 -0.0934  0.0953  0.0400
23012W        W39860  13.883   6.889  15.576 -0.0731  0.3750  0.3101
23013W        W39861   5.180  10.208  17.003  0.3225  0.1980 -0.1607
23014W        W39862  14.935  15.957   0.973 -0.2367 -0.1691 -0.0772
23015W        W39863   1.164   1.671   4.608  0.1007 -0.0188  0.2203
23016W        W39864   9.671  10.815   2.342 -0.0396 -0.2054 -0.1845
23017W        W39865   9.047  16.253  16.019 -0.2643 -0.1900 -0.2578
23018W        W39866   7.402   5.081   6.490  0.1385  0.1842 -0.0517
23019W        W39867  13.568  12.714  13.342  0.2164  0.1168  0.0312
23020W        W39868   2.629   9.361   3.585  0.1684 -0.0987  0.2410
23021W        W39869   0.676   4.544  14.224 -0.0610 -0.0254  0.0578
23022W        W39870   9.637  14.286  12.958 -0.4386 -0.1055 -0.3983
23023W        W39871  14.552   2.462   1.442 -0.2469  0.0089  0.2066
23024W        W39872   8.682   5.190   5.458  0.2192 -0.1591 -0.4860
23025W        W39873   2.561   4.628   6.054  0.1503 -0.2036 -0.2030
23026W        W39874  11.943   2.951   2.624 -0.2834  0.2089 -0.0339
23027W        W39875   3.117  14.510   2.968  0.3016  0.0171  0.1323
23028W        W39876   8.882   9.316  12.929  0.0847 -0.4453  0.2656
23029W        W39877   6.757  11.112   1.575  0.3886 -0.1122  0.3113
23030W        W39878   6.242  14.985   4.318 -0.2441 -0.1738  0.2673
23031W        W39879   5.788   6.253   1.064  0.0574  0.0708  0.1454
23032W        W39880  14.930   8.919  17.010  0.0692 -0.1542 -0.0954
23033W        W39881  14.516  10.939  13.732  0.0102  0.1900  0.2127
23034W        W39882   7.026   1.282   3.217 -0.2794 -0.0350  0.1285
23035W        W39883   4.584   0.753   4.365  0.3187  0.0903 -0.0035
23036W        W39884  15.475   0.285  17.667 -0.0797  0.1229 -0.0878
23037W        W39885   8.818   1.140  14.847 -0.2023  0.0714  0.0715
23038W        W39886  10.502  15.856   5.420  0.2460  0.3439  0.3710
23039W        W39887  13.735   7.506   5.297 -0.3239 -0.1983  0.2631
23040W        W39888   5.919  10.835   3.689 -0.2748  0.1053  0.0595
23041W        W39889   3.280   5.841  11.971  0.2150  0.4643  0.1725
23042W        W39890   5.064   7.258  17.326  0.0548 -0.0099  0.0498
23043W        W39891   0.155   9.246   1.778 -0.0654 -0.0834  0.2140
23044W        W39892   1.262   9.572   5.454 -0.0832  0.1953  0.1935
23045W        W39893  10.952   9.370  15.613  0.0309  0.2014 -0.0142
23046W        W39894   4.802   5.099  16.459 -0.0241  0.0707  0.1109
23047W        W39895  12.202   5.439  13.857 -0.1876  0.1282 -0.1743
23048W        W39896  12.797   0.124  17.706 -0.0816 -0.0108 -0.1413
23049W        W39897  11.384  13.838   5.006 -0.1288  0.3230 -0.0388
23050W        W39898  10.090  14.089  16.271  0.0551 -0.1509  0.0074
23051W        W39899  15.696  15.803  13.784 -0.3015 -0.2046 -0.4199
23052W        W39900  11.603  10.964   0.151 -0.2103 -0.0613 -0.0551
23053W        W39901   4.804  11.444  13.713  0.0105 -0.1182 -0.4207
23054W        W39902  10.646  11.289  17.306  0.2632  0.0594 -0.0157
23055W        W39903   5.087   7.186  14.110  0.2119  0.1535 -0.0532
23056W        W39904   7.941  12.825   2.749 -0.1059  0.1026 -0.0124
23057W        W39905   3.678   2.663  17.615 -0.0872  0.2855  0.3302
23058W        W39906   8.464   6.421   1.049  0.5448 -0.2198  0.0942
23059W        W39907  10.462  12.555  17.805  0.0199 -0.0821 -0.5382
23060W        W39908  16.410  12.627   3.515  0.2100  0.1674  0.0307
23061W        W39909  13.128  15.297   0.858 -0.1704  0.0348  0.1030
23062W        W39910   9.080   7.752  11.453  0.0490 -0.2791 -0.0479
23063W        W39911  16.187   9.726   1.560  0.0381  0.0677 -0.2014
23064W        W39912   7.432   6.495  12.878  0.0203  0.1552 -0.3347
23065W        W39913   4.169   3.316   3.613 -0.0983  0.0215  0.0744
23066W        W39914  16.022  15.084   2.013 -0.0272  0.0551 -0.2146
23067W        W39915  15.791  14.980  12.467  0.1570 -0.1430  0.0804
23068W        W39916  16.623  10.709  14.845  0.0496 -0.1681  0.0926
23069W        W39917  16.239  14.951  15.445 -0.0712 -0.0868 -0.1358
23070W        W39918   7.536   7.645   2.117  0.2630  0.0141  0.0688
23071W        W39919  16.217   1.090  16.376 -0.1487 -0.1513  0.0720
23072W        W39920   0.638  11.320   5.617 -0.0674  0.2880 -0.0046
23073W        W39921   7.298   9.837  13.115  0.4114 -0.1883 -0.2211
23074W        W39922  15.067  13.018   1.737  0.0117  0.0729  0.2082
23075W        W39923  16.432  10.249  16.880 -0.2086  0.1644  0.1032
23076W        W39924   7.191   8.982   5.391 -0.0664  0.0482  0.1131
23077W        W39925  12.935   3.279  14.059 -0.0305 -0.3424  0.2006
23078W        W39926   2.085  11.876  15.332  0.1095  0.1388  0.2187
23079W        W39927   8.858   1.947  14.327 -0.0961 -0.1455  0.2527
23080W        W39928   8.868  16.939  12.272  0.0094  0.1037  0.0352
23081W        W39929  14.500  16.688   0.460  0.2225 -0.0026  0.1558
23082W        W39930  16.912   5.928   1.523 -0.2082  0.0434 -0.0373
23083W        W39931   7.610  11.522   0.122  0.1262 -0.2047 -0.0911
23084W        W39932   7.321   0.401   0.773 -0.2527  0.1085 -0.1262
23085W        W39933   4.010   4.754  13.889  0.0794 -0.1057 -0.0439
23086W        W39934   9.508   5.421  12.971  0.0366 -0.1283  0.1607
23087W        W39935   8.996  13.581   3.131 -0.5013  0.0607  0.1641
23088W        W39936   0.865   8.451   2.257  0.0791  0.1999  0.1057
23089W        W39937  11.501   4.084   2.208  0.0132  0.0021 -0.1808
23090W        W39938  15.586   5.774   2.370  0.2079 -0.0475 -0.0471
23091W        W39939   4.440   8.207   2.687  0.0856 -0.0169  0.0273
23092W        W39940   9.679   2.254  15.878 -0.0571 -0.0943  0.0513
23093W        W39941   0.225  15.825  12.022 -0.1819  0.1324 -0.1261
23094W        W39942   8.952  10.406   2.927  0.0594 -0.0600  0.0750
23095W        W39943  12.574   7.380   4.672  0.2754  0.0299  0.1601
23096W        W39944  15.579   8.114  14.517 -0.1921 -0.0542 -0.1051
23097W        W39945  12.296  13.836   2.674  0.0197 -0.1469  0.0152
23098W        W39946  14.057  12.034  16.169  0.1335  0.1254  0.1238
23099W        W39947   9.263  14.297  17.129 -0.2858  0.0927 -0.0752
23100W        W39948  14.770   3.194  16.686 -0.1809  0.2587  0.0814
23101W        W39949   8.843  11.061   1.219 -0.2642 -0.2217  0.1823
23102W        W39950  11.615   6.476  12.416  0.4796  0.2599  0.0515
23103W        W39951   9.000   8.633   0.160 -0.0142 -0.2147  0.0037
23104W        W39952   6.921  16.093  16.475 -0.1185  0.0462  0.0961
23105W        W39953   8.397  11.264   0.702  0.0451 -0.0405 -0.0213
23106W        W39954   5.525  11.874   5.309 -0.0332 -0.1857  0.0737
23107W        W39955  12.439   3.874   5.507  0.0265 -0.1196 -0.2493
23108W        W39956   5.345   6.780   0.883  0.0980  0.0742  0.0190
23109W        W39957  12.974   6.114  13.905  0.1265  0.0930  0.0367
23110W        W39958  15.741  14.426   3.320  0.2004 -0.0989  0.1988
23111W        W39959  11.093   6.426  17.359 -0.2253 -0.0966  0.1106
23112W        W39960   4.650   4.423  15.681 -0.1386 -0.0914  0.0803
23113W        W39961   1.258  16.119   1.186  0.1132 -0.2863 -0.4120
23114W        W39962  11.800   8.478   1.398  0.0946  0.0325  0.0798
23115W        W39963  12.885   6.076   4.142 -0.1231 -0.2191 -0.1698
23116W        W39964   1.421  11.626   4.614 -0.0341 -0.3588  0.0902
23117W        W39965  12.651   1.947  14.609  0.1311  0.0865  0.1287
23118W        W39966  11.733   0.862  14.917  0.0483  0.0685  0.0526
23119W        W39967  15.957   0.730   5.870 -0.1012  0.2299  0.2138
23120W        W39968   2.109  10.275   5.221  0.1369 -0.4042  0.0168
23121W        W39969   6.096   4.237  16.163 -0.0951 -0.1066 -0.1472
23122W        W39970   3.987  11.863  14.528  0.1254  0.0563 -0.1867
23123W        W39971   8.061   4.431  17.031 -0.0418  0.2664 -0.1168
23124W        W39972  14.911  12.602   3.659  0.0373  0.0614 -0.1988
23125W        W39973   2.233   2.444   4.744  0.2625  0.0120 -0.0803
23126W        W39974  11.979   4.892  12.803 -0.1101 -0.0070  0.2423
23127W        W39975   8.384   0.334  12.538  0.0835  0.0333  0.0425
23128W        W39976   7.212   3.661   1.243  0.2486 -0.2009  0.1310
23129W        W39977   3.361  16.109   0.751  0.2514 -0.0232  0.1243
23130W        W39978   6.264   2.213  17.031  0.1289 -0.1820 -0.4127
23131W        W39979  14.190  11.804   0.224 -0.2177 -0.0646  0.2383
23132W        W39980   1.594   5.885  13.675  0.1305  0.0488 -0.2584
23133W        W39981   8.667   5.611   3.635 -0.0556 -0.1054 -0.0985
23134W        W39982  16.179   8.633   4.086 -0.2729 -0.0927 -0.0424
23135W        W39983   3.697  10.215  14.203 -0.0720  0.3282  0.0326
23136W        W39984   1.160   4.974  15.712 -0.3111  0.1006  0.1235
23137W        W39985   2.140   5.677   1.080  0.0199  0.2580 -0.1464
23138W        W39986  10.610  12.389   4.620 -0.2062 -0.0796 -0.0788
23139W        W39987   1.284   2.389   2.005 -0.1682 -0.2563  0.2223
23140W        W39988  16.666  11.638  16.494 -0.1811  0.1877  0.0273
23141W        W39989   7.903  16.339   3.061 -0.0605 -0.2700  0.2262
23142W        W39990   2.673   7.808   3.561  0.1411 -0.1422 -0.1542
23143W        W39991   2.389   4.715   0.427  0.0720 -0.3357 -0.0285
23144W        W39992  11.341  10.691  11.402 -0.2206 -0.2764  0.0624
23145W        W39993   2.818  13.559  12.970  0.1573 -0.1338  0.0488
23146W        W39994   2.114   3.492  15.068  0.1686  0.0171  0.2245
23147W        W39995  12.817  14.298   0.307  0.0401  0.0886 -0.0632
23148W        W39996   3.885  14.507   5.418 -0.1542 -0.2440 -0.2305
23149W        W39997   3.615   5.687   2.921  0.2124 -0.0321  0.1720
23150W        W39998   1.261   4.545  13.464  0.1191 -0.0671  0.2852
23151W        W39999  16.342  14.112   5.154 -0.1410  0.1012  0.0630
23152W        W40000   7.515  14.435  17.083  0.2168  0.1515  0.1283
23153W        W40001   6.698   3.570   2.175  0.0566 -0.1386 -0.0813
23154W        W40002   8.626  12.895  13.548 -0.2248  0.0508 -0.1459
23155W        W40003   9.708  14.422   3.974  0.2849 -0.1460  0.1080
23156W        W40004   4.524   0.267   2.546  0.1917 -0.0341  0.0775
23157W        W40005   9.493  11.164  15.229  0.1532  0.1699  0.2425
23158W        W40006   2.794  15.494  17.627  0.2730  0.2473  0.2443
23159W        W40007   6.059  13.810  15.267  0.2586 -0.1368 -0.3557
23160W        W40008   3.399   9.219   1.658 -0.4855  0.3424  0.2548
23161W        W40009   8.682  11.567  13.848  0.2671  0.0560  0.1994
23162W        W40010   5.014  11.889  17.039 -0.2154 -0.0398 -0.0598
23163W        W40011  12.925   8.730   3.990  0.0363  0.1570  0.1568
23164W        W40012  15.277   4.446   0.064 -0.2063  0.0172  0.3617
23165W        W40013  12.473  16.359   4.428  0.1394  0.0840 -0.2677
23166W        W40014   6.658   7.713  16.058 -0.2365  0.1234  0.1495
23167W        W40015  15.745  10.037   5.451 -0.0351  0.0049 -0.0129
23168W        W40016   6.627  11.937  13.717 -0.0179  0.1055 -0.1759
23169W        W40017   3.180  10.403   0.329 -0.1459 -0.1635 -0.0234
23170W        W40018  14.768  14.502   0.978 -0.0939  0.0421  0.0414
23171W        W40019   6.160   0.728  17.006  0.2539 -0.1510 -0.0849
23172W        W40020   9.061  15.690  16.178  0.3615  0.0101 -0.1068
23173W        W40021  14.732  12.524   3.106  0.1643 -0.0613 -0.0619
23174W        W40022  15.507  16.553  16.816  0.1571  0.1415 -0.0486
23175W        W40023   0.440   4.031   4.230 -0.3370 -0.0236 -0.1696
23176W        W40024   9.406  13.720  15.668  0.1702  0.1136  0.0183
23177W        W40025  15.385  14.802   0.184  0.1271 -0.0773 -0.3395
23178W        W40026   4.834   3.176   6.721  0.3118 -0.0520  0.5354
23179W        W40027  12.214  10.979  17.569 -0.0784 -0.1874  0.2010
23180W        W40028   7.983   9.779  15.969  0.4138  0.2926  0.2021
23181W        W40029   2.557   4.022   2.312 -0.2380 -0.0650 -0.1001
23182W        W40030   0.062   3.527   2.137 -0.0683 -0.1943  0.0229
23183W        W40031   9.752  10.522   4.613  0.2316 -0.0507 -0.2450
23184W        W40032  16.126  10.887   2.163  0.0711  0.1591 -0.0001
23185W        W40033   2.598   3.698  15.109 -0.4579 -0.0390  0.4183
23186W        W40034  12.220   1.231   2.921 -0.1252  0.5376 -0.2128
23187W        W40035   6.524   3.767   5.837  0.0873 -0.3038  0.0995
23188W        W40036  11.260  12.107  12.810 -0.0037  0.3072  0.0640
23189W        W40037  12.277   4.910   3.094 -0.0169 -0.3069  0.1768
23190W        W40038   8.160   6.157   2.918  0.0757 -0.0404  0.1363
23191W        W40039  13.256  12.770  12.901 -0.1350  0.2136 -0.1060
23192W        W40040   0.211   4.741   0.866  0.2207  0.1108  0.0146
23193W        W40041   3.936  13.017   2.890 -0.1636  0.2855 -0.3203
23194W        W40042   3.371   7.188  13.044 -0.0024  0.0255 -0.0183
23195W        W40043  10.840   5.102  17.168 -0.1688  0.1345  0.0834
23196W        W40044  16.741  10.334  16.402  0.1523  0.0534 -0.4646
23197W        W40045   9.047   3.661  15.049  0.3059  0.1049 -0.1237
23198W        W40046  10.536   4.685  16.444 -0.1463  0.0836 -0.0546
23199W        W40047   2.793   7.300  17.558 -0.2279 -0.3261 -0.0860
23200W        W40048  15.881   0.702  16.215 -0.1503  0.1208  0.0732
23201W        W40049   0.047   8.054  13.626  0.2516 -0.1494 -0.1838
23202W        W40050  11.435  10.410  15.633 -0.3756  0.3218  0.0481
23203W        W40051   5.143   6.319  14.046  0.0865  0.0842  0.0685
23204W        W40052   7.880  12.854   1.295 -0.0026  0.1031  0.0536
23205W        W40053  16.610   4.538  12.831 -0.0468  0.0543  0.0453
23206W        W40054  13.990   1.317  14.833  0.2364 -0.0215 -0.1375
23207W        W40055  16.006   7.444  14.924 -0.0232  0.2324 -0.0061
23208W        W40056   0.223   0.122   0.939 -0.3453 -0.0314  0.1392
23209W        W40057  11.534   6.428  14.735 -0.0948  0.2855  0.2658
23210W        W40058  15.745   3.605  12.405 -0.1804 -0.2018  0.2501
23211W        W40059   9.112   5.017  16.885 -0.0733  0.0819  0.1077
23212W        W40060   1.792   3.936   3.885  0.1478 -0.0358 -0.0592
23213W        W40061  13.828   4.624  12.355 -0.1821 -0.0511 -0.0250
23214W        W40062  11.545  13.588   2.586 -0.1356  0.1036 -0.2454
23215W        W40063  13.875  14.947   2.150 -0.2464 -0.0713  0.0269
23216W        W40064   5.764   2.868  14.933  0.0481 -0.0687 -0.0810
23217W        W40065   3.551   1.115   2.050 -0.2825 -0.0322  0.0418
23218W        W40066   7.099   6.093  12.941  0.0740 -0.1982 -0.3153
23219W        W40067  11.974  16.189   5.341 -0.2724 -0.3062 -0.0050
23220W        W40068   7.562  14.081  12.882 -0.2861  0.1508 -0.0398
23221W        W40069  14.055   1.416  16.666  0.0326  0.2818 -0.2082
23222W        W40070   6.317   2.832   1.800  0.5432 -0.1134  0.1706
23223W        W40071   9.949   7.272   4.183  0.2556 -0.1254  0.0723
23224W        W40072  14.710   5.128   2.965  0.3606 -0.0983 -0.0222
23225W        W40073  16.531   0.451  13.428  0.0871 -0.0161  0.2481
23226W        W40074  15.419  13.563  12.474 -0.1086  0.0005 -0.0870
23227W        W40075   5.534   4.979   2.440 -0.1295 -0.1188 -0.2449
23228W        W40076   1.182   8.308   0.735 -0.1104 -0.1284 -0.0262
23229W        W40077   2.258  11.173  12.901 -0.0370 -0.2648  0.0190
23230W        W40078   9.458   4.774  15.952 -0.0398  0.0176  0.1447
23231W        W40079  14.178   1.332  14.273 -0.0551  0.0033  0.2794
23232W        W40080  12.158   3.360   2.417 -0.0613 -0.1710 -0.0644
23233W        W40081   4.143  16.052   2.045 -0.1464  0.2361 -0.1118
23234W        W40082   9.561   3.770  16.801 -0.1462 -0.0024 -0.1136
23235W        W40083   0.756  14.132  16.783 -0.1528  0.1221 -0.1414
23236W        W40084   7.146  12.810   3.451 -0.1695  0.0007  0.2492
23237W        W40085   7.599   0.099   5.520 -0.1561 -0.2552  0.3112
23238W        W40086   3.953   2.489  16.795 -0.0963 -0.1908  0.0269
23239W        W40087   7.117   0.914  13.672  0.3040  0.1084 -0.0386
23240W        W40088  14.534   1.958   0.568  0.2312  0.2935  0.1314
23241W        W40089   4.732   2.047  13.456  0.0883  0.1365  0.2589
23242W        W40090   2.448   3.147   5.358  0.0602 -0.3725 -0.0151
23243W        W40091  15.509   7.854   3.963 -0.1388  0.2981 -0.2619
23244W        W40092  12.829  14.190   1.910 -0.2510  0.1406  0.3190
23245W        W40093  10.974  11.784   3.302 -0.2335 -0.2979 -0.4655
23246W        W40094   5.454   1.205   0.058 -0.3026 -0.2304  0.3620
23247W        W40095  11.682  16.618   1.863 -0.0829  0.0319  0.0312
23248W        W40096  11.475   7.164   0.876 -0.1294 -0.0924  0.1789
23249W        W40097   4.815   4.936   4.456 -0.0277 -0.2433 -0.1036
23250W        W40098  11.316   9.200  14.139 -0.0786  0.0855 -0.0962
23251W        W40099   3.683   7.955  13.054 -0.1507  0.1418  0.0774
23252W        W40100  12.902   6.514  14.564 -0.0753  0.1563 -0.1293
23253W        W40101  13.916   1.252  12.564 -0.0853 -0.1164  0.1675
23254W        W40102   5.275  10.610   4.314  0.2140 -0.2162  0.3829
23255W        W40103  16.355  16.935  13.789 -0.0392 -0.2379 -0.0896
23256W        W40104   5.117   7.273  13.511  0.0847 -0.2291 -0.0684
23257W        W40105   9.224  14.398   1.875  0.3793  0.1586  0.2569
23258W        W40106   9.970   5.900  13.806  0.2585 -0.0834 -0.1320
23259W        W40107   6.072  11.209  17.496 -0.0878  0.2945 -0.3510
23260W        W40108   2.885  12.346   0.213  0.3117  0.0325  0.1568
23261W        W40109  15.258   9.734   2.552  0.0871 -0.0260 -0.1862
23262W        W40110  14.147  10.840  15.999 -0.0504 -0.1680 -0.0524
23263W        W40111   0.934   5.496  14.362 -0.1255 -0.1297  0.0169
23264W        W40112  11.880   7.518   3.934 -0.3286 -0.0973 -0.2513
23265W        W40113   0.018  13.734   2.894 -0.0663  0.1374  0.2896
23266W        W40114   8.021   7.755  13.827 -0.0273 -0.3143  0.1786
23267W        W40115  14.776   5.689   1.506 -0.1024 -0.1015 -0.1076
23268W        W40116   5.705   4.519  15.564 -0.1122 -0.2245 -0.0960
23269W        W40117  12.558   1.213  17.144  0.1695  0.0904  0.1779
23270W        W40118  10.752   5.624  16.209  0.0887 -0.1284  0.3817
23271W        W40119   3.427   8.453  15.057 -0.2738  0.1834  0.1015
23272W        W40120   5.049   7.549  13.027 -0.4152  0.3073  0.1263
23273W        W40121  13.177  16.611   4.714 -0.0290 -0.0711  0.0142
23274W        W40122   8.371   1.599  14.034 -0.0993 -0.1546  0.1676
23275W        W40123  15.663  14.373  12.033 -0.0462 -0.1635 -0.1432
23276W        W40124   1.299   1.354  14.644 -0.0447  0.3965  0.1268
23277W        W40125   5.640   4.851   4.348  0.0831 -0.0403 -0.0720
23278W        W40126   1.261   8.338  14.363  0.2142 -0.0294 -0.0559
23279W        W40127   2.816   9.094  12.953  0.1532 -0.1184  0.1214
23280W        W40128  13.471   4.897  13.973 -0.0208 -0.1449  0.0002
23281W        W40129   9.615   1.859   2.410  0.0199  0.1628  0.1907
23282W        W40130   3.715   5.501  13.570  0.0624 -0.1570 -0.4615
23283W        W40131  11.620   4.543   3.586  0.0643  0.2059 -0.2718
23284W        W40132   8.020  11.179   5.059 -0.0640  0.1122  0.2644
23285W        W40133   9.947  12.420  13.276  0.2551 -0.0652 -0.0068
23286W        W40134  11.228   4.310  13.851 -0.0867 -0.1507 -0.0652
23287W        W40135   9.653   0.414   1.511 -0.3501  0.1870  0.0708
23288W        W40136  14.733   8.121  16.771 -0.3683 -0.1751  0.2724
23289W        W40137   5.086   4.487  16.353  0.1510  0.0144  0.1488
23290W        W40138   1.728  16.002  15.910 -0.3470 -0.1318 -0.1704
23291W        W40139  15.997   6.710   2.726  0.0207 -0.0632 -0.1074
23292W        W40140   3.195  13.419   5.300 -0.0643 -0.1857  0.0546
23293W        W40141  13.186  11.943   2.316 -0.1551  0.3582 -0.0616
23294W        W40142   0.263  13.400  12.284  0.2697 -0.1462  0.0497
23295W        W40143   7.254  12.445   4.099 -0.0635  0.1488 -0.0179
23296W        W40144  10.051   2.418  15.544  0.4363 -0.1266 -0.1775
23297W        W40145  10.022  16.074  15.952  0.0326  0.2366  0.2256
23298W        W40146   1.115  10.086   5.956 -0.1650  0.1465 -0.0439
23299W        W40147  14.736   1.779   3.874  0.0588 -0.1412 -0.0467
23300W        W40148   6.049   8.406  14.024  0.0451 -0.1619  0.0586
23301W        W40149   4.120   4.155   2.138 -0.2099  0.2252 -0.0874
23302W        W40150  16.854   4.116  12.631 -0.0712  0.1537 -0.0956
23303W        W40151  10.970   3.249   5.842 -0.1729 -0.0479  0.0562
23304W        W40152  11.849   3.829   1.148  0.0565  0.1264  0.0174
23305W        W40153  11.583  15.942  13.171  0.2328  0.0347  0.0510
23306W        W40154   4.275  13.630  13.409  0.3645 -0.0771  0.2725
23307W        W40155  10.502  14.026   1.906  0.0150 -0.1377 -0.0191
23308W        W40156   0.377   3.781   1.280 -0.2211  0.0826 -0.2060
23309W        W40157   3.643   1.647  14.381  0.0206  0.0749  0.0415
23310W        W40158   4.588   3.520   0.270 -0.2913  0.2431  0.3869
23311W        W40159  16.605  13.834  11.894  0.0196  0.3178 -0.1805
23312W        W40160  15.244   1.152   0.587 -0.0963  0.0245 -0.0391
23313W        W40161   1.557  14.813   4.659 -0.1171  0.1849  0.2982
23314W        W40162   9.015   3.905   1.118  0.2037  0.2514  0.0675
23315W        W40163   2.802   7.565   5.479 -0.1453  0.0588 -0.0443
23316W        W40164  11.238  16.172   5.732  0.0480 -0.0982  0.2656
23317W        W40165   7.881  13.538   4.346  0.3386 -0.1087 -0.0186
23318W        W40166  13.384  11.478  12.491 -0.0290  0.0809  0.3413
23319W        W40167   8.519  10.904   5.771 -0.1093 -0.1325  0.1488
23320W        W40168   1.723  13.128   1.166 -0.2178  0.1012  0.1483
23321W        W40169  15.548   3.835   0.919 -0.1962 -0.5082 -0.0319
23322W        W40170   3.169   6.554  15.341 -0.4118 -0.3881  0.2373
23323W        W40171   2.716   5.183   1.599 -0.0837  0.0213  0.0488
23324W        W40172   0.629  14.797  14.220 -0.1007 -0.1974 -0.3091
23325W        W40173   0.187  16.336  17.602 -0.0968 -0.2135  0.1548
23326W        W40174   2.817   8.020  13.256 -0.3832 -0.1530 -0.1826
23327W        W40175  16.324   2.183   4.536  0.1141 -0.1342  0.0802
23328W        W40176   7.905  13.946   5.506 -0.2568 -0.2460  0.0953
23329W        W40177  17.018  15.281   1.216  0.0045 -0.1983 -0.1968
23330W        W40178  14.016   8.551   0.300  0.0937  0.2377  0.0326
23331W        W40179   1.287  14.867  17.599 -0.0346  0.0503 -0.0631
23332W        W40180   6.024   0.196  15.147  0.1220  0.0462  0.4533
23333W        W40181  14.038   4.748   4.244  0.0236  0.1576  0.0342
23334W        W40182   7.384   5.097   1.559 -0.1557  0.3666 -0.3094
23335W        W40183  13.336   8.635   6.930  0.0448  0.0823  0.1886
23336W        W40184   5.766   8.956  14.687 -0.1324  0.0503 -0.1227
23337W        W40185   8.302  16.916  12.852 -0.1578  0.0189  0.3427
23338W        W40186   3.049   1.972   4.464  0.0418 -0.0809  0.1007
23339W        W40187  11.962  16.217   3.775  0.2155  0.0361  0.1497
23340W        W40188   5.959  15.087   2.260  0.0940 -0.0322 -0.1016
23341W        W40189   2.942   9.402   1.703  0.1715 -0.3624 -0.0013
23342W        W40190  11.626  13.811   0.159  0.2436  0.1038 -0.0113
23343W        W40191  16.655  11.680   0.528 -0.0345 -0.0724 -0.1560
23344W        W40192  10.541  10.227  14.162 -0.0229  0.1695 -0.0517
23345W        W40193  15.785   0.377   5.199  0.2982 -0.3502  0.0394
23346W        W40194  15.518   8.552   3.073 -0.1311  0.0278  0.0989
23347W        W40195  10.986   6.273  14.642  0.2069  0.1378 -0.1782
23348W        W40196   3.848   4.579   1.870  0.0667 -0.2452  0.1455
23349W        W40197  16.887  16.808   4.653 -0.0368 -0.2056 -0.0503
23350W        W40198   5.977   3.173   4.614 -0.0248  0.1682 -0.0772
23351W        W40199  13.987   5.624   4.554  0.1935 -0.0873  0.0156
23352W        W40200  15.569   6.042  16.534  0.1560  0.1671  0.2198
23353W        W40201  14.599   6.898  16.038 -0.0888 -0.2462 -0.0142
23354W        W40202  11.017   5.942  15.984 -0.0208  0.3420  0.2026
23355W        W40203   4.967  11.234  12.416  0.1323 -0.1139  0.0220
23356W        W40204   6.535   9.943  16.273 -0.3245 -0.0434  0.0675
23357W        W40205   3.027  10.265   5.669 -0.2057  0.0163  0.1496
23358W        W40206  13.293   2.339   1.205 -0.2776 -0.1238 -0.4547
23359W        W40207  12.070   9.995  13.075 -0.0890 -0.1570  0.1733
23360W        W40208  11.347   5.607   4.792  0.1983 -0.0829 -0.1391
23361W        W40209   5.788  16.158   5.836 -0.1535  0.0424 -0.1649
23362W        W40210  12.732   1.456  14.820 -0.1541 -0.0155  0.2568
23363W        W40211   7.371   5.731  15.362  0.2079  0.0234  0.0704
23364W        W40212   2.731   3.955  13.106  0.0668 -0.1949  0.2397
23365W        W40213   5.302  11.699   2.962 -0.1969  0.1067 -0.1987
23366W        W40214  15.222  12.236  16.562 -0.1448 -0.0268 -0.2314
23367W        W40215   4.119  15.462   2.993  0.0289 -0.1561  0.1581
23368W        W40216  11.359  10.999   3.084 -0.3113  0.1092  0.1714
23369W        W40217  13.469  12.962   3.134 -0.1836  0.0280 -0.0345
23370W        W40218   1.984  16.588   3.698 -0.2269  0.3309 -0.0070
23371W        W40219   6.913   4.091  16.511  0.1408  0.0928 -0.3354
23372W        W40220  16.422   5.405  13.062  0.1899 -0.1173  0.0407
23373W        W40221   1.809  14.654   5.566 -0.2979 -0.3175 -0.2348
23374W        W40222  13.531   4.687   5.074 -0.2285  0.0509 -0.1682
23375W        W40223   9.608   2.685  15.577 -0.2154 -0.0257  0.1002
23376W        W40224  16.891   3.090   1.144 -0.3541 -0.3276 -0.5871
23377W        W40225  16.006   6.292   1.264 -0.1567 -0.1821 -0.1061
23378W        W40226   7.866  13.975   0.705  0.0478  0.2794 -0.4253
23379W        W40227   6.718   5.660   1.758 -0.0830 -0.2389 -0.2315
23380W        W40228   4.378   7.077   0.933  0.1600 -0.3658  0.0108
23381W        W40229  13.722   1.774  16.645  0.0688 -0.0924  0.3234
23382W        W40230   0.553  13.681  17.072  0.2330  0.2203 -0.3231
23383W        W40231  16.197   7.204  16.361  0.3218 -0.1630 -0.0108
23384W        W40232   1.198  13.994  16.623 -0.0036  0.0991 -0.0827
23385W        W40233  10.048   9.346   5.367 -0.0713 -0.1291 -0.1899
23386W        W40234   8.428   0.423   3.032  0.1139 -0.0822 -0.2035
23387W        W40235   1.443   1.583   0.698 -0.4263  0.0384 -0.0516
23388W        W40236   1.528   8.444   0.390 -0.1472  0.0521  0.2817
23389W        W40237   0.943   4.594  14.658 -0.0321  0.2520  0.1572
23390W        W40238   9.762   6.937  14.513 -0.2571  0.0055  0.1656
23391W        W40239   7.309   9.618   1.704 -0.0927 -0.0340 -0.1596
23392W        W40240   2.169  13.843  11.634 -0.0835  0.0062  0.0390
23393W        W40241   3.564   7.383   1.943 -0.2022  0.1231 -0.0903
23394W        W40242   4.648   5.036   3.989 -0.0587 -0.1283 -0.0504
23395W        W40243  15.663  13.125   1.575  0.1037 -0.2419 -0.4696
23396W        W40244   2.624   0.141   1.418  0.0863 -0.0383 -0.4015
23397W        W40245   1.303  15.294   3.877 -0.0773  0.1715 -0.0090
23398W        W40246   0.695  10.591  15.431 -0.1251  0.1874 -0.0829
23399W        W40247   7.683  10.630   2.772 -0.0200 -0.0844 -0.1941
23400W        W40248   1.263   3.115  17.551 -0.2303  0.0069 -0.2033
23401W        W40249   7.727  13.572   2.332 -0.1085 -0.2178 -0.0313
23402W        W40250  16.859   0.210   2.021 -0.1164 -0.0949 -0.3238
23403W        W40251   2.981   3.938  17.398 -0.1734  0.1885  0.1672
23404W        W40252   3.034  15.347   1.862 -0.3454  0.1069 -0.0074
23405W        W40253  15.521   7.510  13.771 -0.0752  0.0196  0.2316
23406W        W40254  10.579   2.582  13.588 -0.1763  0.0199 -0.2095
23407W        W40255   6.314  16.125  12.179 -0.1172 -0.4042  0.0897
23408W        W40256   8.064  13.861  15.209  0.0722 -0.0999  0.0332
23409W        W40257   7.443   3.191  13.395 -0.2131 -0.2988  0.4136
23410W        W40258   3.982   9.608   3.770 -0.0259 -0.0578  0.3070
23411W        W40259   3.419   3.894   3.223  0.1399  0.4327  0.1983
23412W        W40260  14.077  13.157  17.424 -0.2626  0.1175  0.1790
23413W        W40261  13.733   2.469  14.879  0.1156  0.0410  0.0657
23414W        W40262   5.468  15.923  15.085  0.0118 -0.1379 -0.1658
23415W        W40263   9.570   8.921   2.210 -0.2326  0.2016 -0.1173
23416W        W40264  16.262   0.734  14.454  0.1423 -0.1851 -0.2455
23417W        W40265  16.543   3.397  14.832 -0.0809 -0.0999 -0.0309
23418W        W40266  11.489  12.420   5.642  0.0109  0.0602 -0.0160
23419W        W40267  10.545   5.955  15.841 -0.1673  0.2873  0.0015
23420W        W40268   0.980   1.707   0.821 -0.1733 -0.1710 -0.0471
23421W        W40269  15.210   6.765  14.007  0.0084 -0.0066  0.0524
23422W        W40270  10.865  11.137  14.373 -0.0718  0.1504 -0.2115
23423W        W40271   1.519   8.972  16.872  0.1230 -0.1690  0.0468
23424W        W40272   7.399   6.839  14.355  0.1597 -0.2045 -0.3751
23425W        W40273  14.925   7.288  16.426  0.2328  0.0332  0.1917
23426W        W40274   2.622  10.837  12.699 -0.1099 -0.1540 -0.2689
23427W        W40275   4.403   4.969  13.718  0.2449 -0.2756 -0.0232
23428W        W40276  10.053  12.318   4.725 -0.0083  0.0641 -0.2481
23429W        W40277   1.504  13.232   0.296  0.1140 -0.1942 -0.0838
23430W        W40278  16.231   2.446   0.347  0.0942 -0.0278  0.2431
23431W        W40279   2.598   1.616  17.392 -0.0561  0.1980 -0.0489
23432W        W40280  10.581   9.260   4.387 -0.2450  0.2740  0.1487
23433W        W40281  14.505  16.535  15.114  0.0478 -0.0607 -0.2382
23434W        W40282   8.620   5.640  13.195 -0.0347  0.0785  0.0154
23435W        W40283  13.127   8.992   0.485 -0.0788  0.1205  0.0432
23436W        W40284  10.398   8.331  17.769 -0.2176  0.0788 -0.0043
23437W        W40285  16.029   6.839   0.836 -0.0911  0.0600 -0.0533
23438W        W40286  11.883  15.095   4.660 -0.1366 -0.4136 -0.2706
23439W        W40287   0.129   6.067   1.160  0.0919  0.0004  0.0618
23440W        W40288   5.656   4.934   1.618  0.0126 -0.1478  0.2658
23441W        W40289   8.195   4.681   0.511  0.0019  0.0249  0.0381
23442W        W40290  16.431  10.527  13.689  0.2094  0.1871 -0.1739
23443W        W40291   5.580   3.762  15.084 -0.0494 -0.3495  0.3557
23444W        W40292  12.269   9.686  16.758 -0.1625 -0.0886 -0.2237
23445W        W40293   7.887   9.575  15.490  0.0762 -0.1981  0.0725
23446W        W40294   5.235   5.846  16.291  0.1802 -0.0128  0.1165
23447W        W40295   5.985   9.060   2.365 -0.0388  0.2171  0.0589
23448W        W40296  10.953   0.432  13.391  0.1998  0.0870  0.4230
23449W        W40297  12.190   1.937  17.311 -0.1279 -0.0609  0.0961
23450W        W40298  14.887   9.545   4.439  0.1286 -0.1948  0.1150
23451W        W40299   0.791  16.959  12.173 -0.3304  0.1110 -0.2720
23452W        W40300   3.741  11.077  16.094  0.1152  0.0601  0.1489
23453W        W40301  14.195   3.583  13.210  0.4677  0.2077 -0.0942
23454W        W40302   1.396   9.834  15.249 -0.2054  0.1554  0.0839
23455W        W40303   4.543   4.425  12.549  0.1853  0.1236 -0.1898
23456W        W40304  12.967   9.929  13.359  0.5236 -0.3500  0.0166
23457W        W40305   8.009  12.920  12.910  0.0733 -0.2817 -0.1049
23458W        W40306  16.624  13.564   0.217 -0.2882  0.0379 -0.1102
23459W        W40307  16.375  10.714  16.682 -0.0378 -0.1982  0.0467
23460W        W40308  16.184  15.574  16.957 -0.1295 -0.0532 -0.2519
23461W        W40309   2.969   3.524   3.931  0.1554  0.0767 -0.0551
23462W        W40310   0.026  15.721   2.558  0.1338 -0.0091  0.2576
23463W        W40311   0.974  13.540   1.426  0.1410  0.1594  0.1056
23464W        W40312   7.000   1.369  14.093 -0.1295  0.1474  0.3427
23465W        W40313  10.871   5.150  17.663 -0.1243  0.0422 -0.2450
23466W        W40314  15.784   8.499   4.499 -0.1614  0.0852 -0.0263
23467W        W40315   6.003  11.507   5.237  0.2203 -0.1650 -0.0928
23468W        W40316   6.733  16.378   4.050  0.2748 -0.0644 -0.0776
23469W        W40317   6.029  10.511  13.974  0.0249  0.1308 -0.1212
23470W        W40318   7.062   6.247  12.421 -0.0515  0.1959  0.0955
23471W        W40319   5.858   4.617   0.768  0.0829 -0.1897 -0.2040
23472W        W40320  13.951   8.593   3.550 -0.1340 -0.0583 -0.1035
23473W        W40321   6.985   5.431   0.386 -0.1495 -0.0675 -0.0562
23474W        W40322   3.500  14.348   3.266 -0.0730 -0.2845 -0.0893
23475W        W40323   2.986   9.637  12.239 -0.0331 -0.1510  0.0203
23476W        W40324   9.024   8.301   2.901  0.0334  0.0951  0.0471
23477W        W40325  13.193  11.697  16.629 -0.2564  0.3494 -0.4771
23478W        W40326  11.391   0.959  13.849  0.2406 -0.1341 -0.0587
23479W        W40327   6.186  14.841  14.644  0.0666  0.0549 -0.0190
23480W        W40328  15.901   4.711  15.248 -0.0473  0.0373 -0.1481
23481W        W40329   5.565  13.606  11.997 -0.0404  0.3131 -0.3297
23482W        W40330  15.335   2.925  14.722 -0.4126 -0.2321 -0.1952
23483W        W40331   8.956   7.139   0.002  0.2843  0.3463  0.0381
23484W        W40332   4.355   0.701   3.455  0.1188  0.2447 -0.0543
23485W        W40333   7.756   6.984   5.207  0.2743  0.0431  0.1398
23486W        W40334  11.905  14.885   1.015 -0.3598  0.2051  0.2208
23487W        W40335  13.142  10.499  15.936 -0.1018  0.2671 -0.0922
23488W        W40336   2.977   1.515  15.996  0.1410 -0.0132  0.2382
23489W        W40337   0.969  15.519   2.358  0.2433 -0.0661 -0.1232
23490W        W40338  14.169   8.335  12.466 -0.0097  0.0447 -0.0759
23491W        W40339  14.446  16.395  12.359  0.0404  0.3138  0.0370
23492W        W40340   4.453   8.988   0.337 -0.0321 -0.2508 -0.1238
23493W        W40341   0.249   4.363   5.129 -0.1341  0.3387 -0.2463
23494W        W40342  15.327   7.137   0.124  0.3263 -0.0289  0.0733
23495W        W40343   3.085   4.192   0.067  0.3425  0.1808 -0.1409
23496W        W40344  12.055   4.159  17.432  0.0213  0.0882 -0.1245
23497W        W40345   2.353   4.390  16.843  0.0635 -0.1425  0.1796
23498W        W40346   7.617  14.739  16.681  0.1951  0.0368 -0.0072
23499W        W40347  14.944   1.213   5.958  0.0671 -0.1947 -0.2875
23500W        W40348  10.442  12.033  13.516 -0.0273  0.0008 -0.1509
23501W        W40349  14.200  11.895   1.154 -0.0901 -0.0307  0.0144
23502W        W40350   1.930   3.460  15.867  0.3173  0.0338  0.1804
23503W        W40351   7.103   4.626  15.635 -0.1766 -0.1699  0.0606
23504W        W40352   5.451   8.844   1.476  0.0828 -0.0893  0.1961
23505W        W40353  11.342  12.985  17.756 -0.2006  0.0289 -0.1518
23506W        W40354   7.879   9.398   3.404  0.0934  0.1063 -0.0097
23507W        W40355   9.545   5.791  14.967 -0.0738 -0.1180  0.4155
23508W        W40356   4.159   9.454   3.307 -0.0357 -0.1449 -0.1383
23509W        W40357  16.746  14.134  15.782 -0.3756 -0.1997  0.1272
23510W        W40358  10.765  13.110   1.646  0.3143 -0.0786 -0.0608
23511W        W40359  14.682   4.435  17.262 -0.6210  0.1639  0.0749
23512W        W40360   0.232  12.614  14.625  0.2554  0.1572 -0.1049
23513W        W40361  11.970  14.555  15.774 -0.1324 -0.2646 -0.0295
23514W        W40362  11.069  16.661   3.578 -0.3189  0.1542  0.3000
23515W        W40363   8.081  10.060   4.538 -0.1338  0.2488 -0.0354
23516W        W40364   9.070   7.099  17.069  0.2094  0.1903  0.0837
23517W        W40365  11.174   3.250   4.576 -0.0395  0.3412 -0.3869
23518W        W40366   5.697   1.040   3.657  0.3178 -0.0196 -0.0024
23519W        W40367  10.200  14.371   0.867  0.0158 -0.0522  0.0020
23520W        W40368   4.189   5.722  14.928  0.1544 -0.1142  0.1425
23521W        W40369   6.110  15.821   3.916  0.0381 -0.0891  0.1874
23522W        W40370   6.897   1.542   2.277  0.0927  0.1223 -0.0014
23523W        W40371  10.732   1.580  16.331 -0.0774 -0.0019  0.0339
23524W        W40372   6.035   5.970  14.572 -0.1171  0.2870 -0.1112
23525W        W40373  11.513  13.110  16.787 -0.2319 -0.0021 -0.0730
23526W        W40374   2.414   9.817  14.365 -0.1771 -0.2561  0.0170
23527W        W40375   4.690  12.076   4.355 -0.1317  0.1579  0.1554
23528W        W40376   5.890   6.589  15.542  0.2392 -0.2341  0.1613
23529W        W40377  14.596   0.605   1.707 -0.0855  0.0751  0.3802
23530W        W40378  14.363   2.595   3.620  0.3608 -0.0740 -0.2133
23531W        W40379   6.216   0.216   6.052  0.0890 -0.0374 -0.1101
23532W        W40380  12.080   7.067   0.827  0.0508  0.0805  0.0386
23533W        W40381  11.360   0.256   2.455  0.0567 -0.0979 -0.3856
23534W        W40382   1.397  11.398  12.573 -0.1175  0.1385  0.0135
23535W        W40383  13.072  17.039  12.579  0.1056 -0.0286  0.0038
23536W        W40384  16.828   5.277   4.071  0.0552  0.2213  0.1644
23537W        W40385   8.164   5.332   2.851 -0.0329 -0.0408  0.0918
23538W        W40386  10.602   5.723   5.360 -0.1440 -0.0561 -0.0637
23539W        W40387   8.731  13.032   2.506  0.2720  0.1064 -0.1538
23540W        W40388   3.967  16.030  15.964 -0.0225 -0.2493  0.2022
23541W        W40389   3.609  13.126   5.441  0.1732 -0.0813 -0.2128
23542W        W40390   1.895   2.348   2.893  0.0999 -0.0856  0.1608
23543W        W40391   2.075   6.413   5.387  0.1212  0.0514  0.0367
23544W        W40392   0.754  12.665  14.735  0.0739  0.2321  0.0301
23545W        W40393   1.534  13.585   0.697  0.1750  0.0515 -0.0315
23546W        W40394   7.272   4.136   1.367 -0.2401  0.0542 -0.0846
23547W        W40395  15.421   0.396  12.849  0.0335 -0.2328  0.0846
23548W        W40396   4.220   7.115   3.944 -0.1291 -0.0882  0.0560
23549W        W40397   1.057   2.486  16.937  0.3106 -0.1143  0.1428
23550W        W40398  15.602   4.524   2.297 -0.1641  0.0416  0.2036
23551W        W40399   8.913   9.554  17.130  0.0107 -0.0154  0.1362
23552W        W40400  13.118   2.269   2.089  0.1056  0.1654 -0.0487
23553W        W40401   6.026  16.810   4.159 -0.3898  0.1262 -0.1182
23554W        W40402   1.773  13.091  12.453  0.0513  0.0035 -0.0724
23555W        W40403  12.530  11.892  14.221 -0.0896 -0.1740 -0.2567
23556W        W40404   9.810   3.983   3.351 -0.1382 -0.0384 -0.1811
23557W        W40405   3.702   9.811   5.349 -0.2607 -0.1752 -0.0463
23558W        W40406   5.678   7.779   3.331  0.1629  0.0312  0.3492
23559W        W40407   8.872  14.435  14.102 -0.1715 -0.1477 -0.0657
23560W        W40408  15.665  11.995  17.816 -0.0421  0.2115 -0.0643
23561W        W40409   3.575  15.165  13.297 -0.0938  0.1989 -0.0886
23562W        W40410   2.559   8.095   0.936 -0.0267 -0.1149  0.2011
23563W        W40411   4.620   0.630  17.317 -0.1242 -0.0523  0.1556
23564W        W40412  13.269  13.663  16.616 -0.0984  0.2135  0.0090
23565W        W40413   5.753   9.303  13.463 -0.0474 -0.1316  0.0601
23566W        W40414  10.876  10.284   5.145  0.0148 -0.0102  0.1025
23567W        W40415   1.404  16.876   5.097 -0.2263  0.1007 -0.3271
23568W        W40416   0.511   8.678   3.957 -0.1804  0.1768  0.1250
23569W        W40417   3.687  10.716  13.734 -0.0480 -0.0043  0.3657
23570W        W40418  14.632   0.567  14.482  0.0327 -0.0911 -0.1212
23571W        W40419  14.025   3.083  15.505 -0.0066  0.0299 -0.0355
23572W        W40420  16.752   2.267   2.321 -0.1110 -0.3418 -0.0055
23573W        W40421   2.855   5.089  16.367  0.3035  0.0705  0.0697
23574W        W40422   9.911  10.248  16.626  0.2880 -0.0399  0.0305
23575W        W40423   7.721  14.026   4.259  0.1962  0.0101  0.1840
23576W        W40424   3.902  11.724   3.977 -0.1431 -0.2461 -0.2071
23577W        W40425   5.318   0.158   2.674 -0.0791  0.0553 -0.0338
23578W        W40426   0.538   6.002   3.416 -0.1473 -0.0150  0.0028
23579W        W40427   9.225   8.495  16.832 -0.0758 -0.2065 -0.1408
23580W        W40428   6.848   6.558  16.136 -0.2275  0.1668  0.1805
23581W        W40429   2.402  15.355  15.786 -0.3274  0.1135 -0.0045
23582W        W40430  16.302  11.693  16.179  0.2411 -0.0590 -0.0342
23583W        W40431  16.825   4.273  15.146  0.3445 -0.2362 -0.0747
23584W        W40432   6.584   8.559  15.184  0.1244 -0.1703 -0.1417
23585W        W40433  12.576   4.324   2.122  0.1897  0.1755 -0.2118
23586W        W40434  16.780   2.320   4.277  0.0547 -0.0126  0.0228
23587W        W40435  14.839  15.125   4.460 -0.2309  0.2163  0.0650
23588W        W40436   8.914   6.367   3.507  0.3494 -0.1573  0.2539
23589W        W40437  16.993   4.333   4.697  0.4248  0.0359 -0.0291
23590W        W40438   1.527   1.632  12.165  0.2383 -0.2696 -0.1368
23591W        W40439   1.803  15.150  14.662  0.1377  0.2604  0.2355
23592W        W40440  10.064  12.659   3.675  0.2673 -0.0491  0.0429
23593W        W40441   0.972   8.368   1.804  0.0882  0.2813 -0.4751
23594W        W40442  13.187  14.359   4.119 -0.1215 -0.0798 -0.1128
23595W        W40443   5.777   1.990   1.791  0.1303  0.0741  0.2260
23596W        W40444   7.888   5.646   4.616 -0.1181  0.0749  0.4309
23597W        W40445  16.592  12.611   3.999  0.1494  0.0538 -0.0531
23598W        W40446   2.431   3.331  14.229  0.1193 -0.1032 -0.0939
23599W        W40447  13.832  15.440   5.214  0.0255  0.2390  0.1938
23600W        W40448   7.866   4.708   1.681 -0.3018  0.1373 -0.0257
23601W        W40449  13.245   5.222   2.187 -0.0408 -0.1363 -0.2343
23602W        W40450   5.101  13.682  15.043  0.2264  0.1185  0.1013
23603W        W40451  13.526  13.387   5.794  0.1969  0.0557 -0.2172
23604W        W40452   1.572  13.986  13.415  0.0007 -0.1984 -0.0761
23605W        W40453  14.756  14.477  13.680  0.0265 -0.0293  0.1727
23606W        W40454  11.360   1.304  15.564 -0.1116  0.4195 -0.0384
23607W        W40455   5.003   8.629   1.250 -0.1510 -0.0158  0.1306
23608W        W40456   2.632   0.588   0.021  0.1623  0.2192 -0.1852
23609W        W40457  12.221   4.526  15.493 -0.0352 -0.1686  0.0827
23610W        W40458   2.484   3.550   3.862  0.1334  0.0362 -0.2271
23611W        W40459   8.249  10.771   2.248 -0.0906 -0.1418  0.3992
23612W        W40460   7.276  10.205  16.520 -0.1676  0.2132  0.1583
23613W        W40461  12.594  10.526  16.856 -0.2497 -0.1597 -0.0006
23614W        W40462  14.854   2.599  16.841  0.1530  0.3115  0.0542
23615W        W40463   8.391  13.860  13.456 -0.1522  0.2502  0.0315
23616W        W40464   1.061  14.463  14.629 -0.1629 -0.0501  0.0096
23617W        W40465   9.966  14.644  13.246  0.0746 -0.0680 -0.3611
23618W        W40466   1.608   8.723  14.765 -0.0170  0.0446  0.0731
23619W        W40467   7.666   1.590   1.788  0.2116 -0.0307 -0.1289
23620W        W40468   6.204  13.902   2.115  0.2572 -0.1532 -0.0703
23621W        W40469   9.991  12.670   2.068 -0.0627  0.3022  0.1767
23622W        W40470   8.349  13.357  16.869  0.1525 -0.1173  0.1625
23623W        W40471   8.829   3.198   3.772  0.0778  0.1373 -0.2354
23624W        W40472  10.785  10.418   0.397 -0.0337 -0.0818 -0.0651
23625W        W40473  12.185  16.776  14.508  0.0978  0.2107  0.2285
23626W        W40474  12.575   7.859   1.350 -0.2692  0.1184 -0.2249
23627W        W40475   1.248   0.130  14.862 -0.2920  0.1168 -0.1349
23628W        W40476   0.490   7.631  16.963 -0.1840 -0.1039  0.1515
23629W        W40477   3.361  11.216   5.462 -0.0406  0.0211 -0.1068
23630W        W40478   3.580  10.707  16.491  0.2037 -0.0905  0.1835
23631W        W40479   1.933  16.526  14.694 -0.0239  0.2626 -0.1200
23632W        W40480   8.926   6.714   4.509 -0.3887 -0.2117 -0.0301
23633W        W40481   5.862  16.965  17.388  0.0802 -0.0525  0.1775
23634W        W40482   3.977  15.545   5.395  0.0864 -0.0387  0.4431
23635W        W40483  15.767   5.763   4.696  0.0180 -0.2009 -0.2054
23636W        W40484   9.718  14.823  15.497 -0.0733  0.1948  0.3597
23637W        W40485   3.423  13.064   0.548 -0.0214 -0.1273 -0.0532
23638W        W40486  11.183   2.863  13.015  0.1175  0.1394  0.1637
23639W        W40487  16.810   4.737  15.627  0.0413 -0.0287 -0.2823
23640W        W40488   5.276  12.972   5.625 -0.1014  0.2666 -0.1176
23641W        W40489  11.006   5.817   1.654  0.2529  0.1142 -0.3420
23642W        W40490   6.219   7.623   4.862 -0.0142 -0.0153 -0.2361
23643W        W40491  16.903   2.131   3.216 -0.1937  0.2472 -0.0474
23644W        W40492  16.919   7.995   5.442 -0.3943 -0.3063  0.0760
23645W        W40493  15.866   1.551  16.339 -0.0854 -0.1495 -0.0407
23646W        W40494   4.464  13.061  14.582  0.1759 -0.0111  0.0649
23647W        W40495  13.315  10.221   3.191 -0.1841  0.1772 -0.0709
23648W        W40496  11.846  14.591   5.786  0.0789  0.0014 -0.1007
23649W        W40497  10.198  15.330   2.287 -0.1308  0.0296 -0.1888
23650W        W40498   4.839  12.760   3.670 -0.4174 -0.2110 -0.0022
23651W        W40499   9.298   2.221   3.767 -0.0993  0.1014 -0.0578
23652W        W40500  11.674   3.610  12.752 -0.0151  0.0629 -0.0592
23653W        W40501   5.195  11.783   5.634  0.0760  0.1751 -0.1699
23654W        W40502  16.096   9.069  15.944  0.2883  0.0083  0.1639
23655W        W40503   5.019  13.751   3.313  0.2412  0.0975  0.1307
23656W        W40504  12.189  16.874  14.019 -0.0464 -0.2107  0.2699
23657W        W40505   3.123   2.625   3.590  0.2496  0.0043  0.0874
23658W        W40506  12.480  12.726  14.114 -0.1160 -0.0251 -0.4521
23659W        W40507  13.040   4.019   1.604  0.0545 -0.1746  0.0771
23660W        W40508   3.124  11.777  15.883  0.1815 -0.0784 -0.1132
23661W        W40509   9.986  15.176  13.137 -0.0952  0.0600 -0.1134
23662W        W40510  14.089   5.088   5.464  0.2862  0.4375  0.2287
23663W        W40511  16.379   6.553   0.615 -0.1072  0.1174 -0.1663
23664W        W40512  15.920  15.526   1.221  0.2152 -0.0929 -0.0901
23665W        W40513  12.160   9.716   3.163  0.1463 -0.1350 -0.0947
23666W        W40514   9.177   9.213   3.433  0.2806  0.3193 -0.1578
23667W        W40515   1.872  16.908  16.327 -0.0715 -0.3781 -0.1436
23668W        W40516  14.815   0.765  16.605 -0.0919 -0.4513 -0.1663
23669W        W40517   1.594  11.387   3.203  0.0934 -0.0675  0.2353
23670W        W40518   6.311   4.212  14.340  0.3249 -0.0478 -0.1577
23671W        W40519  14.057   9.554   2.842  0.1499  0.1295  0.1669
23672W        W40520  12.290  12.565  12.324 -0.0911  0.0161 -0.1030
23673W        W40521   6.802  12.897  11.731  0.0701 -0.2564  0.1407
23674W        W40522   6.923   4.704   5.424  0.1198  0.2989  0.1504
23675W        W40523  14.097   5.807  12.070 -0.2202 -0.0281 -0.0504
23676W        W40524  16.777  16.330  17.304  0.0338 -0.0288 -0.3046
23677W        W40525   6.957   7.070   2.510  0.3217  0.1379  0.1703
23678W        W40526   5.169   3.358   3.513  0.0105  0.2250 -0.2030
23679W        W40527   8.550  14.856   3.282 -0.0668  0.2800 -0.1525
23680W        W40528  14.586   0.122   4.513  0.0902  0.0986  0.0128
23681W        W40529   0.581  15.135   0.160 -0.4148 -0.2358  0.4046
23682W        W40530   1.258  12.141   4.573  0.1963 -0.2123 -0.0795
23683W        W40531   0.744   2.905  14.591  0.0191  0.1978 -0.1555
23684W        W40532  16.818  17.060   5.288  0.2546  0.2741  0.0707
23685W        W40533  16.721  12.513  13.314  0.0186 -0.1433 -0.0992
23686W        W40534   9.328  13.847  17.334  0.1447  0.1833  0.0529
23687W        W40535   5.054  12.535  12.270 -0.1992  0.1458  0.2042
23688W        W40536   9.855   8.682  16.227  0.1357 -0.0109 -0.0799
23689W        W40537  12.040  11.436   5.549  0.2839  0.0432  0.0413
23690W        W40538  16.010   8.184   2.222  0.0019 -0.0638 -0.1641
23691W        W40539   3.900  16.447   1.877  0.0778  0.0649 -0.1764
23692W        W40540   0.605   8.799   0.600 -0.0291 -0.1022 -0.2010
23693W        W40541   8.340   4.734   2.442  0.1303  0.0621 -0.0679
23694W        W40542  16.866  16.476   3.275  0.1531  0.0702  0.0263
23695W        W40543  16.490   1.573  13.262 -0.1246 -0.0202  0.3079
23696W        W40544  10.726  10.999  16.789  0.1020 -0.2211 -0.2960
23697W        W40545  12.450   1.155  13.657  0.0525 -0.0487 -0.1650
23698W        W40546   0.135  13.331  13.667  0.1223  0.1138  0.1116
23699W        W40547   8.261   3.963  13.256  0.1651  0.0670 -0.1447
23700W        W40548   2.363   1.441  17.783 -0.0772  0.2882 -0.1184
23701W        W40549   5.160  14.039  11.878  0.0104  0.4770  0.2092
23702W        W40550   6.374  13.151  17.762  0.1064 -0.1894  0.1439
23703W        W40551   5.776   1.545  15.380 -0.2928 -0.2036 -0.1649
23704W        W40552   4.504   8.636  16.811  0.0670  0.1999  0.2529
23705W        W40553  14.905   9.992   0.003 -0.1032 -0.1582  0.0075
23706W        W40554   0.142   2.142  16.339  0.1616 -0.1650  0.1175
23707W        W40555  10.323   2.629   3.923  0.0645  0.1759  0.3417
23708W        W40556  14.924   9.390   2.945 -0.2259 -0.0665 -0.0817
23709W        W40557  16.201  11.574  13.942  0.1168  0.1693 -0.0228
23710W        W40558   5.343  12.279   5.575  0.2211  0.2690  0.0040
23711W        W40559  13.800   9.093   3.728  0.2371 -0.0791  0.2145
23712W        W40560   9.323   8.852   0.535  0.0383 -0.2048  0.0599
23713W        W40561  13.422  15.746   0.642  0.0090 -0.0082  0.0493
23714W        W40562   1.648   4.225  15.770  0.2963 -0.0501  0.0339
23715W        W40563  12.366   9.318   1.649  0.4926 -0.0350 -0.1733
23716W        W40564  13.470   4.528  16.056  0.0135 -0.0032 -0.0305
23717W        W40565  12.803   6.227  12.290 -0.1895  0.2841  0.1794
23718W        W40566   6.577   8.508  13.161 -0.2069  0.1817  0.0425
23719W        W40567  16.523  14.775  17.349 -0.0435  0.3490  0.0890
23720W        W40568   2.723  12.604   1.659  0.2334  0.1359 -0.3601
23721W        W40569  13.166  16.088  17.313 -0.0658  0.2833 -0.2104
23722W        W40570   9.276   1.462   2.531 -0.0567 -0.3844 -0.0789
23723W        W40571   4.537  16.437   1.219  0.0680 -0.0130  0.2101
23724W        W40572   3.988   2.553   1.167 -0.0257  0.0757 -0.2650
23725W        W40573   4.093  12.837   1.771  0.3375  0.1459  0.3283
23726W        W40574  11.994  14.015  14.483  0.1219 -0.1691  0.0237
23727W        W40575   0.536  12.201  14.860  0.1968 -0.0760  0.1048
23728W        W40576   9.447  13.072  12.577 -0.1818 -0.2825 -0.1245
23729W        W40577  14.018  15.440  14.612 -0.1283 -0.0209  0.1179
23730W        W40578   8.206   9.141  13.723  0.1741 -0.5156 -0.0394
23731W        W40579   4.288  16.897  16.943  0.2524  0.0162  0.0189
23732W        W40580   8.879  10.404  12.411 -0.0090  0.1465 -0.1265
23733W        W40581   1.558   6.280   4.997 -0.1242  0.0381  0.2104
23734W        W40582   5.944  14.781   2.800 -0.3034  0.0303  0.1353
23735W        W40583   3.263  14.558  16.871 -0.5128 -0.0871 -0.0752
23736W        W40584   4.934  11.855  12.969 -0.0899 -0.0688  0.0489
23737W        W40585  13.920   1.244   1.106 -0.0545 -0.1064 -0.4984
23738W        W40586  13.627  13.155   0.906  0.1884  0.0005  0.0001
23739W        W40587   2.703   7.237   2.210 -0.1587  0.1836  0.0633
23740W        W40588   2.497   6.756   4.143 -0.3031  0.1024 -0.1651
23741W        W40589  10.746   2.355  12.419 -0.0935 -0.1610 -0.3079
23742W        W40590  12.102  14.041  17.380  0.3146  0.1753  0.2162
23743W        W40591  12.921  14.392   2.326  0.1534  0.1721 -0.0037
23744W        W40592   4.250   5.224  14.762  0.1452 -0.1508 -0.2029
23745W        W40593   9.868  12.981   5.153 -0.1902 -0.1148  0.0368
23746W        W40594   2.572  12.566  12.748 -0.2065 -0.0457 -0.1821
23747W        W40595   4.742   0.104   2.963 -0.1466 -0.1685  0.0930
23748W        W40596   1.684   3.023   4.103 -0.1910 -0.1791  0.0260
23749W        W40597  11.754  14.137  13.058  0.0084  0.0446 -0.2047
23750W        W40598  13.680  15.457  13.782  0.1084  0.1909  0.1775
23751W        W40599   7.872  16.680  12.069 -0.2084 -0.1251  0.0329
23752W        W40600   4.752   5.010  14.594  0.2359 -0.2251  0.1500
23753W        W40601  13.164  11.351  14.838 -0.2045  0.0723  0.1144
23754W        W40602   8.824  12.602  13.997  0.0371  0.0289 -0.1522
23755W        W40603  12.029  14.210   1.997 -0.1462  0.2160 -0.0942
23756W        W40604   8.491   8.594   1.468  0.0579 -0.0250 -0.0580
23757W        W40605  15.270   2.101   2.594  0.2500 -0.0416  0.2197
23758W        W40606   4.270   3.288   1.283 -0.3829  0.0195  0.0029
23759W        W40607   1.586   3.157  16.662 -0.1309 -0.1881 -0.1405
23760W        W40608  10.539  11.442  13.787 -0.0929  0.0003 -0.1900
23761W        W40609   8.492   1.572  13.439 -0.2248  0.1985 -0.0423
23762W        W40610   0.433   5.901   5.412  0.3137 -0.0491 -0.3346
23763W        W40611   4.723  10.614   3.581 -0.0799  0.1300 -0.0646
23764W        W40612  14.219   0.991   4.724  0.3160 -0.3388 -0.0811
23765W        W40613   2.914   7.724  16.683  0.1656  0.3928  0.1757
23766W        W40614   8.151   2.185  14.103 -0.1052  0.2402 -0.0887
23767W        W40615  10.108   0.008   1.289 -0.2993 -0.0966  0.0880
23768W        W40616  13.711  14.423   4.039 -0.0703 -0.1139  0.0960
23769W        W40617   6.443  11.300  14.287 -0.0058  0.0932 -0.4882
23770W        W40618   9.404  10.978  16.791 -0.0351  0.0348  0.0318
23771W        W40619   5.129   0.164  16.858  0.1207 -0.0758 -0.0287
23772W        W40620   0.175   9.994   1.954 -0.3564 -0.0969  0.1151
23773W        W40621   6.673   5.905   0.165  0.0762 -0.0435  0.3230
23774W        W40622   0.376   4.446   0.038  0.0043  0.1402 -0.3339
23775W        W40623   1.469  11.682   2.096  0.0205 -0.1921 -0.1503
23776W        W40624  12.004  12.734   2.980  0.0422  0.3583  0.1387
23777W        W40625  11.342   0.954   2.414  0.0886 -0.0045 -0.0031
23778W        W40626  12.415   0.574  14.610 -0.0477 -0.3609  0.1359
23779W        W40627   1.470   5.791   5.083  0.1759 -0.3319 -0.0721
23780W        W40628   1.769  10.104   0.778 -0.3339 -0.0491  0.0586
23781W        W40629   2.100   0.245   1.845 -0.2347 -0.3771  0.0489
23782W        W40630  12.405  17.032   0.089 -0.0858  0.2752 -0.2794
23783W        W40631   7.859   8.794  13.899 -0.0520 -0.2272 -0.3912
23784W        W40632   4.360   3.937  16.000 -0.1393  0.1342  0.0565
23785W        W40633   7.813   9.464  13.732 -0.1370  0.1447  0.0353
23786W        W40634  11.475  15.419   5.460  0.0320 -0.1742 -0.0871
23787W        W40635  13.873   4.462   1.465 -0.1062  0.2297 -0.0096
23788W        W40636   1.147   1.525  15.627 -0.0972 -0.2661 -0.0553
23789W        W40637   4.114  12.786  17.839 -0.1770 -0.0089 -0.3277
23790W        W40638  11.434  15.821   4.097 -0.1590  0.2568 -0.4896
23791W        W40639  13.145  15.803  15.039 -0.1884  0.3062 -0.3046
23792W        W40640   6.166   6.073   5.362 -0.0455 -0.3057  0.0465
23793W        W40641   1.311   5.505  14.061  0.1379 -0.0564 -0.0718
23794W        W40642  11.665   7.751  13.645 -0.1262 -0.0717  0.0578
23795W        W40643   4.834   0.357   2.159 -0.0871 -0.1439 -0.1462
23796W        W40644  10.462   0.434  13.616  0.2215 -0.1155  0.0856
23797W        W40645   4.280   9.902   4.979 -0.1565  0.2132  0.0577
23798W        W40646  13.703   6.719  13.472 -0.1770  0.0345  0.0926
23799W        W40647  15.912  16.533   4.203  0.1102  0.2457 -0.0709
23800W        W40648  10.554   2.191  14.804  0.3419 -0.2789  0.1022
23801W        W40649  16.694   4.461   1.966  0.4510 -0.1300 -0.1068
23802W        W40650  10.399   7.960  17.384  0.0560 -0.1701  0.3781
23803W        W40651  12.335  12.153  16.946  0.1764 -0.2658  0.1996
23804W        W40652   2.962  15.912  17.271 -0.2994  0.0249 -0.0621
23805W        W40653  11.931   8.847   4.132 -0.0555  0.0198 -0.1468
23806W        W40654  15.964  14.038   0.574 -0.0394 -0.0621  0.0716
23807W        W40655   0.866  15.730  12.161 -0.0804 -0.0675  0.0486
23808W        W40656  12.752  15.619   2.835 -0.0541  0.1528 -0.1720
23809W        W40657   6.572  13.491  16.003  0.0250 -0.1152  0.0431
23810W        W40658  15.657  12.523  15.850  0.1149  0.0759  0.0724
23811W        W40659  13.138   1.998  12.343  0.1216 -0.1039 -0.0808
23812W        W40660  10.569   6.773  16.056  0.0390 -0.3239  0.0642
23813W        W40661  10.957   1.782   1.214 -0.1214 -0.0634  0.0013
23814W        W40662  14.791   5.030   4.892 -0.2888  0.1868 -0.1282
23815W        W40663  13.913   0.238   5.179 -0.0881  0.1956  0.0071
23816W        W40664  12.971  13.394   0.430 -0.0837 -0.0487  0.1513
23817W        W40665   2.336   2.747  16.311  0.1534  0.0566  0.1324
23818W        W40666   1.717   8.976  12.705 -0.1765 -0.0275  0.1574
23819W        W40667   2.200   8.989  12.624  0.4412 -0.0566  0.0038
23820W        W40668  13.963  13.869  12.913  0.0611 -0.1835  0.3334
23821W        W40669  15.647   4.714  14.272  0.1356 -0.3567  0.1406
23822W        W40670  15.417   5.848  14.136  0.0131 -0.0032  0.1009
23823W        W40671   6.850  16.110  14.005  0.0083  0.0000 -0.1317
23824W        W40672   8.425   2.428   3.122  0.0508  0.1062  0.1424
23825W        W40673   0.463  14.578  15.943  0.0368  0.1618 -0.1741
23826W        W40674   3.389   7.945   4.814  0.2792 -0.0499 -0.2072
23827W        W40675  10.501  12.070   0.160  0.1853 -0.0004  0.1773
23828W        W40676   6.145   3.871  13.328  0.0545 -0.0679  0.0171
23829W        W40677  13.983  11.997  16.730 -0.2072 -0.2424  0.0780
23830W        W40678  12.167   5.563   1.284  0.3750 -0.0096  0.0584
23831W        W40679   0.134   3.865  12.339  0.0217  0.1638 -0.0408
23832W        W40680   5.838   6.550   4.542  0.0744  0.3311  0.4224
23833W        W40681   8.244   1.552  16.809  0.1911  0.1232  0.2727
23834W        W40682  11.267  10.871  14.607 -0.0255 -0.1481  0.2868
23835W        W40683   8.374   9.763   0.298  0.1744  0.0182 -0.2059
23836W        W40684   5.463  12.167  15.560 -0.0220 -0.0612  0.0489
23837W        W40685   3.913   4.931   1.415  0.2427  0.0160 -0.3893
23838W        W40686   0.378   3.407  16.617  0.0122  0.1807  0.2416
23839W        W40687  11.015   7.038   4.137 -0.3260  0.1538  0.0025
23840W        W40688  16.529   8.191  16.419  0.1094 -0.1800 -0.1623
23841W        W40689   4.173   3.612   4.915  0.1557  0.0762 -0.2001
23842W        W40690  15.792   3.799  14.225 -0.1364 -0.0844  0.0758
23843W        W40691   9.584   4.162   1.118 -0.2021 -0.0155 -0.1581
23844W        W40692  10.061   4.438   2.473 -0.1384  0.0868 -0.4765
23845W        W40693   8.585  13.883  15.031 -0.1035  0.0497 -0.2490
23846W        W40694  14.574  12.344  14.917 -0.0673  0.1279 -0.0777
23847W        W40695  10.704   0.499   0.930  0.0837 -0.0460 -0.2003
23848W        W40696   3.915   6.884   5.580  0.2818 -0.2178  0.2086
23849W        W40697   0.806  13.169  16.443 -0.1596  0.2215  0.2840
23850W        W40698  10.941   8.337  13.552  0.1191 -0.0759 -0.3198
23851W        W40699  11.016   1.524   0.720 -0.1005  0.0350  0.0528
23852W        W40700   6.223  13.327   4.625  0.0744 -0.0780  0.5163
23853W        W40701   1.587   2.248  12.966  0.0423  0.2773 -0.1922
23854W        W40702   1.736  13.352  16.765  0.2261 -0.0495  0.0372
23855W        W40703   6.230  11.746   2.886 -0.1984 -0.2490 -0.1547
23856W        W40704   3.367  11.921  13.676  0.1999 -0.0968  0.0311
23857W        W40705   0.112   9.904   2.744  0.0522 -0.1279 -0.3516
23858W        W40706  15.494  13.620   4.534 -0.0838  0.0003 -0.0749
23859W        W40707   7.441  11.521   2.616 -0.3155  0.1024 -0.0313
23860W        W40708   2.648  10.687   3.406  0.1540 -0.0537  0.1235
23861W        W40709  14.592   5.015   3.478  0.0643 -0.2719  0.2733
23862W        W40710   1.691  14.488  13.617 -0.1533  0.0257  0.0431
23863W        W40711  12.086   4.242   2.467 -0.0166 -0.1054  0.0777
23864W        W40712   8.551   7.502   1.951 -0.1006 -0.1818  0.1372
23865W        W40713  15.049  11.322  12.485 -0.1004  0.1496  0.0531
23866W        W40714   4.447   2.589  16.816  0.2924  0.0245 -0.2248
23867W        W40715   4.133   9.671   1.178  0.0273  0.1650  0.1527
23868W        W40716   0.659   6.144   5.028 -0.3508  0.1838 -0.1001
23869W        W40717  16.402  12.154  11.962 -0.1627  0.1187 -0.1586
23870W        W40718   1.084  14.075   4.435 -0.2045  0.1717  0.0784
23871W        W40719   6.988   1.255   4.255 -0.1154  0.2982  0.0414
23872W        W40720  14.643   9.701  15.565  0.3500  0.0706 -0.1565
23873W        W40721   5.201  12.089  12.120  0.1834  0.1828 -0.0332
23874W        W40722  14.370  11.587   0.631  0.1023  0.1198 -0.0201
23875W        W40723  10.892  13.563   1.997  0.2871  0.0222 -0.1087
23876W        W40724  11.628   1.546   3.725 -0.2250  0.0076  0.2156
23877W        W40725   6.631   1.488  15.132  0.0897  0.1930 -0.0605
23878W        W40726  16.262   0.305   4.101 -0.0862 -0.0441  0.0779
23879W        W40727   2.780   3.535  12.639 -0.0674 -0.0670 -0.1169
23880W        W40728  15.788   7.551  16.236  0.0918 -0.2234  0.0566
23881W        W40729   1.471  16.169  16.299  0.0908  0.0965 -0.1776
23882W        W40730  14.670  13.304   4.641 -0.1111  0.0920 -0.2981
23883W        W40731  14.871  15.876  12.994 -0.1082 -0.2524  0.0097
23884W        W40732   6.575   7.064  15.385  0.2608 -0.1424 -0.2479
23885W        W40733   7.145   3.099   1.057 -0.1585 -0.1513 -0.1295
23886W        W40734   8.649   1.266   2.856  0.2298  0.1914 -0.0995
23887W        W40735   1.148  13.918  14.707  0.3151  0.1128 -0.1191
23888W        W40736   8.293   3.078   4.506 -0.0842  0.2068  0.0501
23889W        W40737   9.087  11.247  13.478  0.0478 -0.1531  0.1636
23890W        W40738   2.046  11.648   4.697  0.0604 -0.1508  0.0635
23891W        W40739  16.355   2.880   2.901  0.0058 -0.0160 -0.1023
23892W        W40740   7.112   8.954   4.515  0.0991  0.1201  0.1280
23893W        W40741   5.778   3.102  17.334  0.1048  0.0347  0.2409
23894W        W40742   0.214   5.704  17.260  0.3747  0.1901  0.3363
23895W        W40743   4.056  16.503   5.788  0.1797 -0.0348 -0.2538
23896W        W40744  10.708   3.949   3.665  0.0693  0.2066  0.2116
23897W        W40745   0.130   5.427  14.753 -0.1852 -0.1611  0.0209
23898W        W40746   8.850  13.919  13.212  0.1933  0.0530  0.1594
23899W        W40747  13.559  16.508  14.799 -0.1032  0.0036  0.0686
23900W        W40748  10.760  11.935  16.514 -0.0248 -0.0514  0.0620
23901W        W40749  13.061   5.560  13.382  0.5043  0.2505 -0.1828
23902W        W40750  13.008  12.289  12.866  0.1248  0.0332 -0.0297
23903W        W40751   4.574   7.256  16.655 -0.0223  0.0005  0.1315
23904W        W40752   0.871  13.628   3.532  0.0679 -0.3416 -0.2350
23905W        W40753   5.839  14.729  16.486 -0.1465  0.1398 -0.3575
23906W        W40754   2.066  16.794   5.863 -0.3241  0.2307 -0.0960
23907W        W40755   4.639  11.091   4.928 -0.2946  0.1481 -0.3474
23908W        W40756  15.004  11.302   0.310  0.2950 -0.0296 -0.3973
23909W        W40757  16.898  11.000  14.461 -0.1286  0.0726  0.0735
23910W        W40758   2.990   3.466  13.093  0.1247 -0.0874  0.0463
23911W        W40759   6.777   9.356  16.860  0.1630  0.0638 -0.0439
23912W        W40760  11.838  10.502   1.402 -0.0708  0.4351  0.1759
23913W        W40761   6.678  13.066  15.685  0.0325 -0.1371  0.2577
23914W        W40762   9.770  15.394  13.769 -0.0110  0.3620  0.0186
23915W        W40763   5.337   7.753  15.754  0.3519 -0.3541  0.0979
23916W        W40764   9.253   8.711  15.146 -0.0093 -0.1146 -0.0821
23917W        W40765   6.479   9.161   2.496  0.1340 -0.0887 -0.0845
23918W        W40766  13.688  11.273  17.044  0.2055  0.0964  0.2194
23919W        W40767   0.838   2.189  15.089 -0.0006 -0.0719  0.1683
23920W        W40768   6.732   8.864  17.581 -0.2386  0.1818  0.2912
23921W        W40769   3.251   1.288   5.618  0.1292  0.0413 -0.1885
23922W        W40770   6.306  13.533   3.199 -0.0777 -0.3146 -0.0211
23923W        W40771   5.776   4.948   3.609  0.0294  0.2257 -0.3604
23924W        W40772   5.734  15.086  14.479  0.1012  0.0588 -0.1621
23925W        W40773   0.500  15.386   1.822 -0.1231 -0.0321  0.0487
23926W        W40774   6.318   0.177  15.565 -0.1075  0.1306  0.2076
23927W        W40775  12.245  13.169  13.025 -0.2540 -0.1172  0.0627
23928W        W40776  15.924   5.736   3.200 -0.0324  0.0413  0.3041
23929W        W40777   8.587  16.615   4.996  0.2345  0.0401  0.2232
23930W        W40778  14.010  12.199  12.760 -0.0339 -0.1818 -0.1670
23931W        W40779   6.254   2.290   2.006  0.3167  0.2520 -0.2114
23932W        W40780   0.302  14.687   1.322  0.1439 -0.1584  0.0206
23933W        W40781   4.244  13.572  13.985 -0.1601  0.0017 -0.1816
23934W        W40782   8.026   3.010   0.819 -0.1074 -0.1465  0.2758
23935W        W40783  13.874  11.387  13.855  0.0210  0.1990 -0.1122
23936W        W40784   5.738  14.085   4.188  0.0848  0.2467  0.1896
23937W        W40785   6.693  14.313   0.447  0.0410  0.1117 -0.1834
23938W        W40786   5.541  15.049   1.930  0.1485  0.0074 -0.0392
23939W        W40787  16.207   1.495  13.985  0.0023  0.0024 -0.1381
23940W        W40788   7.617   2.087  17.617 -0.0437  0.0866 -0.0057
23941W        W40789   0.120  12.496  17.565 -0.2309 -0.2266  0.1768
23942W        W40790  14.174   8.674  17.598 -0.2348  0.1962 -0.0824
23943W        W40791   4.161   9.405   1.680  0.0187  0.4080  0.0083
23944W        W40792   6.365   8.182  14.904 -0.1159 -0.2843 -0.2757
23945W        W40793   1.148   0.252  15.419  0.0748 -0.1990 -0.0831
23946W        W40794   3.733  12.338  16.522  0.0316 -0.2132  0.1444
23947W        W40795   0.200   4.982  14.994  0.1187  0.1982  0.0300
23948W        W40796   4.105   4.074   3.890  0.0838  0.1826 -0.0364
23949W        W40797   5.769   3.465   2.090 -0.0166  0.0513 -0.3677
23950W        W40798   3.082  14.381   5.842  0.2503 -0.0806  0.3165
23951W        W40799  15.869  15.064   1.041 -0.0490  0.0516 -0.1150
23952W        W40800   9.197  12.420   4.275 -0.2060  0.1587  0.0626
23953W        W40801  13.697   5.088   3.196  0.1109  0.1844  0.0437
23954W        W40802   3.114  16.913  14.466 -0.2026  0.0267 -0.1395
23955W        W40803  15.321   0.178   0.266 -0.3525  0.0750  0.0425
23956W        W40804  11.381  11.590  12.456  0.2203 -0.1482 -0.0491
23957W        W40805   1.387   1.758  13.841 -0.0087  0.0405 -0.5020
23958W        W40806  16.481   7.716   4.200  0.3229  0.1389 -0.0220
23959W        W40807   1.720   0.593  12.553  0.0834  0.1081  0.1116
23960W        W40808   5.466  10.927   5.130 -0.2967 -0.0895  0.0209
23961W        W40809  12.560  14.050   4.490  0.2213  0.0685  0.0597
23962W        W40810   6.550  16.340  16.340 -0.0230  0.0870  0.2871
23963W        W40811   0.192   4.558  15.972 -0.1184 -0.2572  0.1178
23964W        W40812  14.492   3.697   0.230  0.3840 -0.1646  0.0414
23965W        W40813   7.603   7.544  16.912  0.0096 -0.0882 -0.0527
23966W        W40814  10.456   5.836  13.877  0.1137  0.0715 -0.2812
23967W        W40815   4.219   2.452   6.625 -0.0653  0.0104  0.2732
23968W        W40816  11.031   1.010  13.083 -0.2610  0.0406  0.0818
23969W        W40817  14.111  16.970  12.589 -0.1305  0.0706  0.0700
23970W        W40818  16.904  14.311   2.321 -0.4045 -0.2661  0.0524
23971W        W40819  16.009  15.934   2.416 -0.2351 -0.0155 -0.0394
23972W        W40820  12.875  11.463   2.143 -0.3671 -0.2783  0.1110
23973W        W40821  16.316  13.551  17.685  0.0765 -0.3569  0.3384
23974W        W40822  10.399  10.836   2.525 -0.2016  0.2578 -0.1377
23975W        W40823   7.217  15.549   1.734  0.3486  0.0028 -0.0273
23976W        W40824   7.251  15.270  13.092 -0.2492 -0.1449  0.2047
23977W        W40825   9.724  11.475  15.618  0.4663 -0.0141  0.0158
23978W        W40826  13.516   4.344   2.620  0.0449  0.3231  0.0509
23979W        W40827   7.784  17.018   4.751  0.2182 -0.0285 -0.1092
23980W        W40828   5.747   0.138  14.416 -0.0029  0.0573 -0.2575
23981W        W40829   6.343   6.296  13.162  0.0927  0.1281 -0.1483
23982W        W40830   3.519   4.090  13.898 -0.2072 -0.0375  0.4091
23983W        W40831  14.361   6.771   6.915 -0.1902  0.0966  0.1948
23984W        W40832  10.029   3.844  15.311 -0.1485  0.2148 -0.3842
23985W        W40833  16.588   1.920  15.053 -0.0381  0.1236 -0.1643
23986W        W40834   1.480   3.389   2.856  0.0345  0.2261  0.0202
23987W        W40835   3.618   1.751   0.746  0.1189 -0.0667 -0.2005
23988W        W40836  11.567   4.410   6.171  0.2125  0.0569 -0.0276
23989W        W40837   8.960  10.072   5.551  0.1916 -0.2102 -0.0001
23990W        W40838   3.690  14.351  13.708  0.0832 -0.2031  0.2306
23991W        W40839  12.356   5.872  14.166  0.0177  0.1337  0.1855
23992W        W40840   0.017   4.986   5.792  0.3547  0.0199  0.4023
23993W        W40841   9.809   1.249  13.695  0.1204  0.0057  0.2345
23994W        W40842  16.069   1.864  12.141  0.0298 -0.0332 -0.1399
23995W        W40843   5.709   9.129   3.317 -0.2734  0.2303 -0.2268
23996W        W40844   5.974  12.717  12.187  0.0358 -0.1872  0.0809
23997W        W40845   9.702   2.700  12.329  0.0018  0.2097 -0.0527
23998W        W40846   3.467   6.601   2.434 -0.2843 -0.0624  0.0185
23999W        W40847   9.152  15.987  15.603 -0.0390  0.0959 -0.0785
24000W        W40848  12.919   6.542  13.597 -0.2214  0.2071 -0.1870
24001W        W40849   7.200  16.754  15.129 -0.1874  0.1489 -0.3285
24002W        W40850   3.707   7.973   3.238 -0.0692 -0.0296 -0.0070
24003W        W40851   9.997   3.539   3.538 -0.1088  0.1109 -0.1062
24004W        W40852   5.356   6.001   0.983  0.3395  0.0399 -0.1706
24005W        W40853   3.456   3.371  13.146 -0.3437  0.0151  0.5064
24006W        W40854   3.191   8.789  13.863  0.0631  0.1475  0.0434
24007W        W40855   2.955   1.502  15.484 -0.0369  0.2060 -0.0765
24008W        W40856   1.139  13.442  14.836 -0.1377 -0.1391 -0.0879
24009W        W40857   4.738  12.600  16.682 -0.0288 -0.0362  0.1391
24010W        W40858  14.094  16.304  14.936  0.2329  0.2184  0.1320
24011W        W40859   3.802   0.722   2.282 -0.2705 -0.3032  0.4539
24012W        W40860   6.788   8.462   2.878 -0.1905 -0.0844  0.0001
24013W        W40861   0.686   8.621   1.275 -0.0362  0.1242  0.0374
24014W        W40862   4.132   4.401   0.203 -0.1088 -0.1009 -0.2034
24015W        W40863  11.565  16.417   4.853 -0.0983  0.1021 -0.0088
24016W        W40864   3.345   3.468   2.393 -0.0646  0.0429  0.0508
24017W        W40865   1.991   1.942   6.052  0.1204 -0.4817 -0.1387
24018W        W40866   0.512   5.620   2.555 -0.2390 -0.3180  0.2270
24019W        W40867   9.863   0.315  15.387  0.5352  0.0765  0.2204
24020W        W40868  11.854   9.090  17.210 -0.0870  0.1162 -0.1280
24021W        W40869  16.422   1.782   3.689 -0.2014 -0.1077 -0.0262
24022W        W40870  11.975   3.888   2.885 -0.0358 -0.0079  0.1001
24023W        W40871  12.041  16.000  15.751  0.0409  0.0020  0.0922
24024W        W40872   8.158  14.053  12.039 -0.2999 -0.2442 -0.2649
24025W        W40873  16.895   3.278  15.344  0.0545  0.1918 -0.1457
24026W        W40874  13.921   1.018   3.071  0.2384 -0.0138  0.0816
24027W        W40875   1.691  12.771   5.300 -0.0393 -0.0885  0.1572
24028W        W40876   1.307   3.616  17.818  0.1208 -0.0921 -0.1034
24029W        W40877   1.383  11.103  15.586 -0.1142  0.0102 -0.0562
24030W        W40878  10.948  14.100   0.333 -0.2536  0.0474  0.1398
24031W        W40879  11.246   2.711  15.591 -0.4030 -0.0637  0.2329
24032W        W40880  16.802  14.164  12.435 -0.0326 -0.1170 -0.0287
24033W        W40881   4.331   9.206  16.616  0.1197 -0.4228  0.2998
24034W        W40882   7.622   7.342   4.871  0.0413 -0.2062 -0.0190
24035W        W40883   1.160   7.028  13.127  0.1172  0.1004 -0.2473
24036W        W40884   6.252   9.527   2.263  0.2011  0.0240 -0.2043
24037W        W40885  12.464   0.143   4.931  0.3378 -0.0983 -0.1923
24038W        W40886  12.852   5.342   0.361  0.1882  0.0981  0.2202
24039W        W40887   6.311   6.946  12.385 -0.1429 -0.0236 -0.0759
24040W        W40888  14.955   2.298   4.814 -0.2301  0.1050  0.0594
24041W        W40889  15.625  12.342   3.785 -0.3818 -0.0592 -0.1557
24042W        W40890  12.226   4.159   0.068  0.1795 -0.0041 -0.4380
24043W        W40891  10.607   5.991   4.862 -0.0645  0.2156 -0.3055
24044W        W40892  14.220   6.786  15.037  0.1202  0.0348 -0.0163
24045W        W40893   2.411   2.902  12.056  0.0718  0.3806  0.0589
24046W        W40894   1.324  10.357  15.009 -0.1095 -0.0190  0.2344
24047W        W40895   5.671   2.800   4.502  0.2231 -0.0281 -0.0871
24048W        W40896  15.960   4.023  11.853 -0.0971 -0.1802  0.1684
24049W        W40897   8.716   6.826   3.405  0.0039 -0.1025 -0.1963
24050W        W40898   3.923   8.437   0.614 -0.0848  0.1326 -0.1014
24051W        W40899   2.166   0.687  14.634 -0.3299  0.1121  0.0592
24052W        W40900   2.403  11.697   1.988 -0.2360  0.1331 -0.2562
24053W        W40901   3.239  14.393  14.486  0.0439 -0.0987  0.2152
24054W        W40902   2.586  11.833   1.579 -0.0733 -0.2672 -0.0178
24055W        W40903  10.792  12.007  14.674 -0.0128 -0.0634  0.2792
24056W        W40904   0.326  12.978   4.321 -0.2037  0.2406  0.0031
24057W        W40905  15.179   4.919  14.175  0.1784 -0.2053 -0.2910
24058W        W40906   0.520   9.963  11.908  0.1298 -0.2527 -0.0668
24059W        W40907   8.280  10.001  17.616 -0.1033 -0.0566  0.2181
24060W        W40908  14.192   7.384   5.044  0.2966 -0.0306 -0.3068
24061W        W40909  10.458   9.302   2.354  0.1876 -0.2151  0.1251
24062W        W40910   1.318  11.229   5.381 -0.0065  0.0940 -0.2128
24063W        W40911  16.193   6.234   3.074 -0.2222  0.1636 -0.1185
24064W        W40912  13.661  16.373   5.354  0.1282  0.2212  0.0022
24065W        W40913   7.139  16.759   3.205 -0.1007  0.2077 -0.1867
24066W        W40914  15.135   0.164   0.796 -0.0513 -0.1853 -0.4182
24067W        W40915   8.674   4.454   5.023  0.0803  0.0950 -0.3515
24068W        W40916   7.930   9.534  11.662 -0.0685 -0.0229  0.1640
24069W        W40917  14.005   8.841   2.200 -0.2916  0.0837  0.1223
24070W        W40918   0.157  15.801  15.491  0.0287  0.1293  0.0103
24071W        W40919  12.089   1.802   5.509 -0.2239  0.2392  0.0270
24072W        W40920  15.109  15.493   5.508  0.0006  0.1518 -0.0350
24073W        W40921   2.690   5.292  12.702  0.1046 -0.3142  0.2519
24074W        W40922  12.034   6.349  14.505  0.1509  0.0699 -0.1783
24075W        W40923  15.069  14.135  13.978 -0.0801  0.0149  0.0955
24076W        W40924   1.318   2.686  12.919 -0.0806  0.1393 -0.1171
24077W        W40925   9.335   3.908   4.785 -0.0479  0.0315 -0.1567
24078W        W40926   9.012   6.541  17.083 -0.1572  0.1117  0.0930
24079W        W40927  16.237   0.508   0.003  0.0057  0.0177  0.1935
24080W        W40928  11.778  16.651  13.320 -0.0833  0.1005  0.0070
24081W        W40929   7.997  15.895  14.076  0.0083 -0.0572  0.2260
24082W        W40930  16.321   6.759   2.110 -0.1519 -0.3136  0.1431
24083W        W40931  15.092   9.465  15.249  0.0974  0.3326 -0.0682
24084W        W40932   9.703   6.329  13.652 -0.2048 -0.1463  0.0912
24085W        W40933  13.047   9.768  13.864 -0.0540  0.0403 -0.1952
24086W        W40934   9.036   0.468   3.916 -0.1595  0.1555 -0.0340
24087W        W40935   5.114   4.589   0.252  0.0924  0.0536  0.0985
24088W        W40936   1.749  12.555   2.064 -0.0091  0.1856  0.5483
24089W        W40937   6.331  15.388   2.169  0.1394  0.2419  0.0867
24090W        W40938   9.920  15.615   3.400 -0.2261 -0.4007  0.1432
24091W        W40939   9.997   8.910  17.150  0.0210  0.1475 -0.1867
24092W        W40940   5.859  14.688   1.831 -0.0416 -0.0361  0.3391
24093W        W40941  12.169  11.347   0.865 -0.1256  0.1649 -0.3278
24094W        W40942   4.012   6.194  16.827  0.1435 -0.1566 -0.1319
24095W        W40943  12.538  13.981  13.834 -0.1601 -0.0342  0.2587
24096W        W40944  13.971   2.016   0.587 -0.0237  0.0051 -0.3209
24097W        W40945   7.635   8.077  14.076  0.2921 -0.1938  0.2973
24098W        W40946  16.919  15.578   3.047 -0.0279 -0.1839  0.2050
24099W        W40947   2.509   7.064   4.806  0.1580 -0.2150 -0.1541
24100W        W40948   2.455   9.360   5.601  0.1679 -0.2518  0.0174
24101W        W40949   7.469   4.277  17.601 -0.0409 -0.0045  0.0046
24102W        W40950  12.337   9.642   3.940  0.0825 -0.0977  0.0273
24103W        W40951   6.959   7.144  13.491 -0.3261 -0.2457 -0.1427
24104W        W40952  11.364   3.568   2.269 -0.0872 -0.1019 -0.1260
24105W        W40953  12.061   7.454  16.391 -0.0428  0.0579  0.0160
24106W        W40954   5.260   3.294  13.788 -0.0039 -0.0364 -0.1516
24107W        W40955   1.625   7.019  13.935 -0.0859 -0.0904  0.2614
24108W        W40956  12.428  11.333   0.096 -0.0571 -0.0460  0.0307
24109W        W40957   1.112  16.028  17.825  0.1097 -0.2393  0.2073
24110W        W40958  14.101   0.614   2.839 -0.0552 -0.1335 -0.2561
24111W        W40959   6.256   1.104   1.787 -0.0025 -0.0781 -0.0543
24112W        W40960  11.056   5.724   2.265 -0.0160 -0.0772 -0.0597
24113W        W40961   1.919   4.007   5.610 -0.2092 -0.2310 -0.0050
24114W        W40962   2.513  12.664  17.173 -0.0699  0.0245 -0.1946
24115W        W40963  16.918   4.811   2.768 -0.1250  0.1486  0.0793
24116W        W40964  13.042   9.570   5.958  0.0525 -0.1188 -0.2483
24117W        W40965  16.335   9.530   1.076 -0.1569  0.0012  0.0911
24118W        W40966   1.983   5.484  14.586  0.1394  0.0742  0.2039
24119W        W40967   0.029   7.367   1.304 -0.1428  0.2871 -0.0405
24120W        W40968  15.219   7.066   5.245 -0.0926 -0.2445  0.0579
24121W        W40969  11.756   7.662  17.035  0.1689 -0.0359  0.0791
24122W        W40970  13.047   4.594  12.720 -0.1453  0.1796  0.2894
24123W        W40971   5.854   8.871   5.666  0.1362  0.0388  0.1294
24124W        W40972   9.986  14.929  16.991 -0.0399  0.0945  0.0963
24125W        W40973  14.521  11.547   3.278  0.0565  0.1684 -0.0648
24126W        W40974   9.803   9.033   0.498  0.3808  0.1180  0.0418
24127W        W40975  10.703  13.416  17.777 -0.0795  0.0315  0.1114
24128W        W40976  17.004   1.288  15.402  0.0592 -0.4387  0.0416
24129W        W40977   5.152   3.459  14.901 -0.0737  0.3068 -0.0145
24130W        W40978   9.042   6.196   0.280 -0.0936  0.0917  0.1498
24131W        W40979   1.095  13.863  12.684  0.0510 -0.0949  0.0438
24132W        W40980  12.576   2.493   2.374  0.1697  0.0797 -0.1369
24133W        W40981  11.533   5.372  12.258 -0.1131  0.0155  0.2842
24134W        W40982  16.044  11.665  15.339 -0.0434 -0.2359  0.0162
24135W        W40983  10.639   8.091   4.122 -0.2400  0.1709 -0.0901
24136W        W40984   8.681   7.645   4.074 -0.0830  0.1846 -0.2512
24137W        W40985   5.018   5.379  14.376 -0.2121  0.0868 -0.1411
24138W        W40986   0.108   9.224   4.880  0.0419 -0.2507  0.2681
24139W        W40987   2.893   3.903  12.367  0.0916 -0.2035  0.0632
24140W        W40988  13.152  15.082   2.814 -0.3393  0.2105  0.2156
24141W        W40989   5.590  14.027  17.532 -0.4759  0.2991 -0.2523
24142W        W40990   1.238   4.195  14.746  0.1825 -0.0179  0.0564
24143W        W40991   6.893   3.012   0.343 -0.0588 -0.0093  0.1611
24144W        W40992   9.487   8.054   3.728 -0.1737  0.1127 -0.5173
24145W        W40993   1.078  13.931   2.546  0.0437  0.1727  0.3661
24146W        W40994  10.383   1.207  15.996  0.2969 -0.1119  0.0499
24147W        W40995  12.479  11.497   3.393  0.0763  0.5318 -0.1943
24148W        W40996   5.654   2.514  12.815  0.4689 -0.0749 -0.0869
24149W        W40997  12.982  13.672   2.007 -0.0574 -0.0902  0.1283
24150W        W40998   2.433  17.048  12.575  0.0152  0.0385 -0.2373
24151W        W40999   8.615   8.435  17.650 -0.1504  0.1054 -0.0501
24152W        W41000  12.598  14.800  17.784 -0.1571  0.2935 -0.0170
24153W        W41001  10.619  14.429   0.592  0.3794  0.1995  0.0041
24154W        W41002   6.594  15.646  16.476 -0.1710 -0.1465  0.2719
24155W        W41003  14.075   6.323  14.794 -0.0732 -0.3272  0.1576
24156W        W41004  10.715  13.393   5.493 -0.0670 -0.0153  0.1277
24157W        W41005   5.630   1.447  13.035  0.0092 -0.1751 -0.0319
24158W        W41006   4.983   8.867   3.702  0.0408 -0.2996  0.3593
24159W        W41007   2.957   6.655  13.935  0.3232 -0.1852  0.1703
24160W        W41008   4.326  16.212  13.491 -0.2639 -0.3302 -0.1227
24161W        W41009  15.396   5.824   5.707 -0.0362  0.1089  0.1215
24162W        W41010   5.794   5.642  15.912 -0.1318  0.0584 -0.0470
24163W        W41011   8.523   0.285   2.561 -0.3114 -0.3529 -0.1014
24164W        W41012   1.155   0.956  15.938  0.2321  0.0689 -0.1130
24165W        W41013   4.889   8.502   4.129  0.1687  0.3058 -0.0089
24166W        W41014   7.950  11.927   3.326 -0.0891 -0.2188 -0.0492
24167W        W41015   7.933   4.034   2.969  0.2270 -0.0246 -0.2915
24168W        W41016   3.469   1.183  14.474 -0.0595  0.0260 -0.1783
24169W        W41017   9.233   9.276   5.576 -0.2176 -0.2188 -0.2380
24170W        W41018  13.086   2.196  15.349 -0.1018 -0.0714 -0.0302
24171W        W41019  15.221  15.697   0.590  0.2622 -0.0546  0.0808
24172W        W41020   8.972   9.251   5.088 -0.1630 -0.1083 -0.1157
24173W        W41021   0.375  12.084  13.559  0.0665  0.1984  0.0387
24174W        W41022   6.754  13.821   0.231  0.1278 -0.2172  0.0205
24175W        W41023   2.136  12.605  13.586 -0.1568 -0.1623  0.1404
24176W        W41024  10.729   1.706   2.619  0.0660  0.0318 -0.1860
24177W        W41025   1.647   8.973  16.069 -0.1116  0.2387  0.1408
24178W        W41026  16.075   5.361  17.104  0.1869 -0.1635  0.0261
24179W        W41027   3.801  11.978  13.494 -0.1259  0.1316 -0.0614
24180W        W41028  12.037  11.667   0.430 -0.0902 -0.0352 -0.0844
24181W        W41029  10.508   0.233   1.470  0.0076  0.0321 -0.0867
24182W        W41030   0.542  16.113  12.809 -0.3331 -0.2391  0.3529
24183W        W41031   2.467  13.770   0.191 -0.0725  0.0065  0.1258
24184W        W41032   2.497   0.279   5.038 -0.2942 -0.0420 -0.0349
24185W        W41033  12.731   0.707   1.270  0.3342 -0.2061 -0.0849
24186W        W41034   3.766   9.006  13.146  0.0122  0.0794 -0.0871
24187W        W41035   0.368   3.101   4.180  0.0630  0.0578 -0.0214
24188W        W41036   2.810   8.411   5.434 -0.0383 -0.2269  0.0841
24189W        W41037   9.288  11.768  13.511  0.0507 -0.1040 -0.0330
24190W        W41038   2.223  16.958  14.901 -0.2024 -0.0990  0.3315
24191W        W41039   5.707  11.311   0.309 -0.1001  0.0554 -0.0193
24192W        W41040  15.769  13.932   0.157 -0.1009 -0.1015  0.2709
24193W        W41041  12.709   6.991   0.356  0.0850 -0.4071  0.0003
24194W        W41042   4.598  12.692   4.451  0.0588  0.1677 -0.3040
24195W        W41043   0.983  10.419   4.580  0.1306  0.0452  0.0089
24196W        W41044  10.755   2.077  17.240  0.1126 -0.1128 -0.1554
24197W        W41045  14.010  12.394   2.615  0.0563 -0.0538  0.1318
24198W        W41046   9.247   1.012  16.170  0.0394 -0.2092 -0.0171
24199W        W41047  16.620   6.201  13.789  0.1674 -0.0066  0.0213
24200W        W41048  12.649  13.368   5.318  0.2532 -0.0455  0.0742
24201W        W41049   2.311  11.996   4.880  0.0007  0.1297  0.2496
24202W        W41050  16.851  13.182  12.443  0.2945 -0.0886  0.1884
24203W        W41051   1.029   5.351   4.263  0.0390  0.0345  0.0883
24204W        W41052   9.513  15.764   5.096 -0.4597  0.2183 -0.0599
24205W        W41053   9.770  15.301  14.374  0.1654 -0.1511  0.1139
24206W        W41054   1.598  14.867  14.215 -0.1542  0.0929  0.0216
24207W        W41055   7.302   4.597  13.248 -0.1499  0.3326  0.4644
24208W        W41056   4.500   6.518  13.582 -0.0164 -0.0386  0.0671
24209W        W41057  12.877  10.652  12.185 -0.3092  0.1631  0.2343
24210W        W41058   9.326   6.108  13.399  0.1973  0.2128  0.0363
24211W        W41059   7.232   9.367  16.257  0.0907  0.1606  0.0705
24212W        W41060  12.630   1.181   2.421  0.4725  0.3201 -0.0477
24213W        W41061   6.311   7.259   3.345  0.1384 -0.0077 -0.3628
24214W        W41062   0.584  16.837   2.229 -0.1857 -0.1238  0.1672
24215W        W41063  14.109  14.137   2.059  0.0156  0.1287 -0.1934
24216W        W41064  15.968  15.022  13.136 -0.1874 -0.0553  0.0298
24217W        W41065  13.467  11.416   5.746 -0.0701  0.2085  0.1063
24218W        W41066   3.011   4.733   3.538  0.1018 -0.0291 -0.1769
24219W        W41067   7.873   1.965  12.881 -0.0087 -0.1662 -0.0680
24220W        W41068  11.787  11.495   5.997 -0.1648  0.1266  0.1502
24221W        W41069  16.356  16.146   5.262 -0.0493  0.2780  0.0658
24222W        W41070   9.892   3.099  12.758  0.0477  0.0144  0.0283
24223W        W41071  10.062   9.280  12.294  0.2071 -0.1233  0.0819
24224W        W41072   5.135  11.777  16.521 -0.1280 -0.2046 -0.0786
24225W        W41073   4.075  16.529  13.834 -0.1487 -0.0372  0.0756
24226W        W41074  15.430   7.830   5.601 -0.0096  0.1307  0.1587
24227W        W41075   9.991  12.671   0.116  0.0088  0.2469 -0.0708
24228W        W41076   4.433   1.262   5.659 -0.1464 -0.2412 -0.0710
24229W        W41077   4.649   4.148   0.422 -0.1210 -0.1751 -0.0301
24230W        W41078   0.550   3.433   3.278 -0.1814  0.0009 -0.1789
24231W        W41079  16.040  13.826   5.395 -0.0961  0.3578 -0.0436
24232W        W41080  11.669   7.630  12.517  0.1029 -0.0542 -0.1155
24233W        W41081  13.488   6.077  14.690  0.2070 -0.1088 -0.1493
24234W        W41082   2.112   6.432   0.495 -0.0613 -0.3072  0.5845
24235W        W41083  10.993   2.300   1.185 -0.1535 -0.2735 -0.0314
24236W        W41084  14.134   5.348  13.717 -0.1236  0.2092 -0.1028
24237W        W41085  11.885  17.038   1.062  0.1146 -0.1111  0.0034
24238W        W41086   1.275   1.429  13.448  0.0576  0.0425 -0.0875
24239W        W41087  12.974   1.159   4.097 -0.0359  0.0084  0.1368
24240W        W41088   7.760   3.457   3.625  0.3278  0.0895  0.0941
24241W        W41089   3.124   3.883  12.806  0.2609 -0.0437  0.1416
24242W        W41090  16.294  16.439   2.336  0.1377 -0.1186 -0.0809
24243W        W41091  10.034   3.803  14.735  0.1999  0.2852  0.1710
24244W        W41092  10.441   7.547   1.583  0.0117  0.1058 -0.3140
24245W        W41093  11.400   9.408   3.437 -0.1608  0.0043 -0.2030
24246W        W41094  11.382  11.030   2.575  0.1094  0.0989 -0.2177
24247W        W41095   5.356   1.412   4.577 -0.0181  0.0151 -0.0716
24248W        W41096  10.388  12.583   0.426  0.3428 -0.0420 -0.1164
24249W        W41097  11.898  12.849   1.193  0.2511 -0.0457  0.1629
24250W        W41098   8.411   8.778   4.600 -0.3198  0.1057 -0.0684
24251W        W41099   5.242   2.339  16.624 -0.4506  0.3416 -0.1183
24252W        W41100   5.947   9.420  14.874  0.1363  0.1538  0.0511
24253W        W41101   5.638   8.146  17.149  0.1003  0.1196  0.0099
24254W        W41102  14.958   0.962   5.460 -0.2546  0.3824  0.0109
24255W        W41103   3.570   0.153  13.353 -0.0566  0.2954  0.1613
24256W        W41104   4.883   2.547   2.984 -0.2790 -0.1064  0.1766
24257W        W41105  14.205  16.550   1.541 -0.1525  0.2318  0.0635
24258W        W41106   9.288  10.998  14.444 -0.0238 -0.0059 -0.2878
24259W        W41107   5.079  11.676   6.103  0.3715  0.0132  0.3623
24260W        W41108   7.123   0.952  14.662 -0.3647  0.5646 -0.1323
24261W        W41109   9.750   9.307   1.780 -0.0734  0.0106 -0.0987
24262W        W41110   6.524  12.559   3.521 -0.5767  0.1194  0.2060
24263W        W41111  16.441   6.290   4.820  0.2063 -0.0060 -0.0450
24264W        W41112   9.176   8.138   1.527  0.0377  0.0940  0.1553
24265W        W41113   6.342   0.295   0.692 -0.1107  0.0737 -0.1107
24266W        W41114  12.040  12.982  15.442  0.4449  0.1065 -0.0522
24267W        W41115   9.468   5.846   3.598 -0.0813  0.0306  0.0034
24268W        W41116   9.530   7.799   1.877  0.0355 -0.3448  0.0942
24269W        W41117  11.114  15.113  15.726 -0.1061 -0.2655 -0.0217
24270W        W41118  12.495  15.855  14.067  0.3335  0.1584 -0.1484
24271W        W41119  13.474  11.829   0.892 -0.3824 -0.0943  0.5415
24272W        W41120  15.700  12.897  11.760 -0.0721 -0.3318 -0.1829
24273W        W41121   2.857   2.238   3.176 -0.3872 -0.0304  0.0236
24274W        W41122  15.369   7.109  12.382  0.2448  0.2397  0.0687
24275W        W41123   3.335   6.061   4.667 -0.0075  0.2606 -0.1859
24276W        W41124   4.110   0.135  13.288  0.0558 -0.2320 -0.1728
24277W        W41125   3.146   4.582  15.005 -0.2463  0.3142  0.2120
24278W        W41126   2.551   5.991   1.738  0.0304  0.1627 -0.1919
24279W        W41127   6.280   5.909  17.515  0.0302  0.2287  0.0372
24280W        W41128   6.261  16.375   4.016 -0.1644  0.0362 -0.0102
24281W        W41129   3.879   1.157   4.026  0.0731  0.0953  0.2683
24282W        W41130   6.037   6.580   2.609  0.2430  0.3050 -0.0179
24283W        W41131  10.809  14.160  12.997  0.0475 -0.2235 -0.1564
24284W        W41132   1.403  10.647  16.790  0.2518 -0.2044 -0.4489
24285W        W41133   5.283  13.233  15.266  0.0126  0.0483  0.2063
24286W        W41134   7.065   9.350  14.797 -0.0941  0.0650  0.1072
24287W        W41135   4.299   3.275   2.429 -0.3081 -0.3070  0.0755
24288W        W41136   6.531   3.001  17.467 -0.0076  0.2026 -0.2003
24289W        W41137   7.906   1.551   5.202 -0.1607 -0.1394 -0.1725
24290W        W41138  14.973   4.873   6.136  0.0616 -0.3932  0.0544
24291W        W41139   8.651   0.503   1.615  0.1007  0.0156 -0.0539
24292W        W41140  11.984  15.996   3.327  0.2157  0.5578  0.0252
24293W        W41141  15.084   6.485  14.510  0.3494 -0.2174  0.2081
24294W        W41142  11.577   3.972   4.359 -0.0031  0.1007  0.2694
24295W        W41143  15.135  12.619   0.180 -0.0688 -0.1784  0.0978
24296W        W41144   9.412  11.765   3.516 -0.0107  0.2542 -0.2556
24297W        W41145   0.706   6.886  17.435 -0.1305  0.3215  0.0678
24298W        W41146  16.823  15.019   2.156  0.2193 -0.1117  0.0648
24299W        W41147   9.058   7.086   0.617 -0.1766  0.0375 -0.3909
24300W        W41148   2.367   9.775   1.735 -0.0438  0.0085 -0.2928
24301W        W41149   2.038   3.368  16.827 -0.0129 -0.1802  0.2298
24302W        W41150  14.904  16.858  16.343  0.0891  0.3253  0.3147
24303W        W41151  13.724  15.826   3.878 -0.0112 -0.2432  0.3163
24304W        W41152  11.775  15.795   5.053  0.2534  0.4304  0.0606
24305W        W41153   4.506  13.432   3.663 -0.0438  0.2108 -0.2338
24306W        W41154   9.398   8.636  13.427  0.0944 -0.2621 -0.0109
24307W        W41155   0.971   5.744   5.211  0.2957  0.0642 -0.1402
24308W        W41156   2.163   4.736   4.419 -0.1208  0.3492 -0.0560
24309W        W41157   5.046   9.996   5.525 -0.2637  0.0277  0.2187
24310W        W41158   5.205  14.696  13.977  0.0989 -0.2485 -0.0621
24311W        W41159   9.483  14.163  15.421  0.1371  0.1702  0.1071
24312W        W41160  14.391  15.406   3.866  0.0022  0.4089 -0.1993
24313W        W41161   6.929  15.934   0.653  0.2032 -0.1068  0.0156
24314W        W41162  15.277  10.254   5.786  0.2840 -0.1530  0.1183
24315W        W41163  11.141  13.342   1.367  0.0368  0.1195  0.1267
24316W        W41164   5.755   8.567   4.370 -0.3097  0.2342  0.0414
24317W        W41165  11.164  15.891   1.863  0.2666 -0.1537 -0.0514
24318W        W41166  16.917   6.908  15.702  0.2553  0.4167  0.1373
24319W        W41167  10.423   8.805  13.674  0.1057  0.2437 -0.2824
24320W        W41168   3.960   9.801   5.833 -0.1261 -0.0737 -0.0484
24321W        W41169   2.101   5.851  13.742 -0.1275 -0.1672 -0.0376
24322W        W41170   2.820  14.349  16.966 -0.1099 -0.1435 -0.0695
24323W        W41171   8.742   7.063  14.052  0.3125  0.0518  0.0153
24324W        W41172   0.170   0.204  16.540 -0.0048 -0.0613 -0.1625
24325W        W41173  11.754   4.795   5.711 -0.0470  0.2961  0.0258
24326W        W41174   0.717  14.210   3.617  0.2208 -0.0648 -0.3300
24327W        W41175   6.521   8.301   5.405  0.0921 -0.2379  0.1628
24328W        W41176   9.955   3.909   4.960  0.1051 -0.0866  0.2940
24329W        W41177   4.234   6.416   2.866 -0.0104 -0.1841  0.1853
24330W        W41178   5.218   1.650   1.159  0.0887  0.0100  0.1018
24331W        W41179  14.178  12.527   1.770  0.0605  0.0306 -0.4171
24332W        W41180  14.406  12.585   3.536  0.0807  0.1102  0.0722
24333W        W41181   2.316   1.193   0.333  0.0264 -0.0929  0.1044
24334W        W41182   6.977   2.709  13.501 -0.2313  0.0937 -0.1435
24335W        W41183  12.774  13.018  12.975 -0.0606  0.2742  0.0348
24336W        W41184   2.277   3.704  14.605 -0.0531  0.0304  0.2703
24337W        W41185   6.468   9.043  12.270  0.0326 -0.0369  0.1408
24338W        W41186   3.094   7.865  13.683 -0.1064  0.2804 -0.1409
24339W        W41187  16.452  13.611   3.399  0.1419  0.0152 -0.0999
24340W        W41188   5.825   6.624  16.543 -0.2217  0.0040  0.0778
24341W        W41189  12.089   2.272  14.934  0.1361 -0.2360 -0.3461
24342W        W41190  15.496   8.376  13.098 -0.1655  0.0559  0.2713
24343W        W41191  10.900   7.139  13.732 -0.0457 -0.0351 -0.0286
24344W        W41192   4.648  16.208   3.154  0.0925  0.1572  0.1210
24345W        W41193  16.107  16.042  17.127  0.1367  0.0538 -0.0199
24346W        W41194   1.781   3.721  14.585  0.1233 -0.2217  0.0350
24347W        W41195  16.594   3.754   0.782 -0.0771  0.1803  0.2062
24348W        W41196   5.402   1.171  11.641 -0.2509 -0.1297  0.1068
24349W        W41197   9.314   8.758  16.130 -0.0970  0.2925 -0.2129
24350W        W41198   4.897  15.634  15.783 -0.2944  0.2831  0.0440
24351W        W41199   1.432  16.612  14.790 -0.1887 -0.1658  0.0123
24352W        W41200  16.242   5.811  14.756  0.0615 -0.2083  0.3752
24353W        W41201   8.054  12.229   5.594 -0.1829 -0.1311 -0.3176
24354W        W41202  16.244  10.561  16.131  0.1160  0.2692 -0.0644
24355W        W41203  10.756  10.281  14.659  0.0393 -0.2762 -0.0419
24356W        W41204   5.533  15.511   1.734 -0.0633 -0.2356  0.1062
24357W        W41205   8.140  11.621   4.777  0.1279 -0.3095 -0.0628
24358W        W41206  15.304   3.257   3.411  0.1705 -0.0645  0.2409
24359W        W41207   1.048   1.130  17.491  0.0655 -0.0979  0.6911
24360W        W41208   5.329   3.705   4.204 -0.0675  0.1841 -0.0302
24361W        W41209  14.237   4.972   2.006 -0.1460  0.0049  0.1008
24362W        W41210   2.018   2.746  15.416 -0.0076  0.1221  0.0173
24363W        W41211   9.219   2.669   3.506 -0.0540 -0.1122  0.1558
24364W        W41212  14.895   7.805  12.968 -0.1000  0.2413  0.0112
24365W        W41213  15.687  17.042  12.858  0.2021 -0.2641 -0.2155
24366W        W41214  16.806   2.828  12.343 -0.0914 -0.0080 -0.2030
24367W        W41215   0.896   4.714   5.916  0.3432 -0.1153  0.0199
24368W        W41216  15.813  13.016   6.611 -0.1441 -0.2571 -0.0658
24369W        W41217   9.407   3.999   3.856  0.4549  0.4995 -0.1090
24370W        W41218   8.526  13.118  12.726 -0.1420 -0.0676 -0.2602
24371W        W41219   5.752  14.292   2.130  0.1341  0.0738  0.0107
24372W        W41220   8.717   2.949   5.658 -0.0737  0.1723 -0.2054
24373W        W41221   9.545   3.038   2.020 -0.1113  0.3282 -0.1725
24374W        W41222  15.577   5.100   2.948 -0.3642  0.0236 -0.1040
24375W        W41223   5.819  14.819   3.810  0.1321 -0.2007 -0.2027
24376W        W41224   9.501   9.919  16.916 -0.2819  0.4959  0.1253
24377W        W41225   3.551   5.823  16.788  0.1017  0.1886 -0.2409
24378W        W41226   8.441  12.570  17.495  0.1555 -0.0671 -0.1989
24379W        W41227   9.537   5.207   2.222 -0.0841 -0.0488 -0.0563
24380W        W41228   5.881   5.438  12.957  0.0631  0.1534  0.2035
24381W        W41229  12.287   4.815   3.955 -0.0789  0.1858  0.3357
24382W        W41230  10.351   4.653  14.250 -0.1712 -0.3142  0.2265
24383W        W41231   0.780   4.718   2.887 -0.0106  0.0792  0.1287
24384W        W41232  16.504   7.863   0.998  0.0754  0.1393 -0.0834
24385W        W41233  13.255   1.591   4.747 -0.0891 -0.0623  0.0181
24386W        W41234   4.748   9.857   4.699  0.3011  0.2384 -0.0041
24387W        W41235  16.829  10.072   5.952  0.1961 -0.1202  0.2194
24388W        W41236  11.767   6.761   1.551  0.0284 -0.2745 -0.0038
24389W        W41237   6.863  11.628  16.881  0.2227  0.0471  0.2636
24390W        W41238   6.056   2.568  15.480 -0.0520 -0.1492 -0.1145
24391W        W41239  12.653  12.571  16.957 -0.1217 -0.1650  0.0729
24392W        W41240   3.270   2.977   2.714 -0.1163 -0.0225  0.0485
24393W        W41241   0.309  12.518   3.579  0.2019  0.0595  0.1434
24394W        W41242  16.380  15.447   2.091 -0.2107 -0.1315  0.2977
24395W        W41243   4.933   6.787  15.394  0.0806 -0.3708 -0.0413
24396W        W41244  12.981   3.075   2.569 -0.2688  0.2079  0.0373
24397W        W41245   0.504   3.769  14.530 -0.0890  0.1921 -0.0315
24398W        W41246  10.598  12.722  17.051  0.2613  0.0945 -0.0933
24399W        W41247   4.391  10.283  15.909 -0.0347 -0.0612  0.1321
24400W        W41248   8.674   4.563  13.777  0.0894  0.1314  0.1815
24401W        W41249   5.623   7.887  14.670  0.0761 -0.0728 -0.3067
24402W        W41250   7.189  12.664  14.845  0.1499 -0.1671  0.3655
24403W        W41251  16.876  10.944   0.120 -0.0812 -0.1830  0.0839
24404W        W41252   7.147  13.673  14.976  0.0655 -0.2393 -0.4441
24405W        W41253  14.361   7.958  16.503  0.2676 -0.1228  0.0095
24406W        W41254   5.152   5.948   4.056  0.1453  0.0031 -0.1389
24407W        W41255   1.559  15.071  12.434 -0.2185 -0.1004  0.1177
24408W        W41256  12.435   1.602  13.417  0.1156  0.0921 -0.0565
24409W        W41257  15.152   6.300   2.674  0.2794  0.0755  0.0966
24410W        W41258  15.441   7.520  12.635 -0.0287 -0.3675  0.0750
24411W        W41259   2.056  11.780  14.847  0.0414  0.0622  0.1953
24412W        W41260  16.706   4.347  17.341 -0.3785  0.0960  0.0463
24413W        W41261   5.310   2.497  14.921  0.0910 -0.1437 -0.1409
24414W        W41262   8.986   3.832   2.220 -0.0984 -0.1636 -0.0338
24415W        W41263   4.332  16.646   4.872 -0.2050  0.4014 -0.2453
24416W        W41264  15.401   7.858  14.074  0.1340 -0.3635 -0.1629
24417W        W41265   6.679  11.713   5.563  0.0480 -0.0511  0.1682
24418W        W41266   8.653  13.858   2.976  0.0602 -0.0492 -0.4313
24419W        W41267  11.549   7.379   5.818  0.4719  0.0390  0.0883
24420W        W41268   3.173   2.636   3.081 -0.1924  0.2258  0.2936
24421W        W41269   4.627   4.508  13.093  0.0924  0.0614  0.0852
24422W        W41270   8.542   6.482   2.979 -0.0431  0.2411  0.0166
24423W        W41271  11.905   1.979   1.605 -0.0428 -0.0959  0.0576
24424W        W41272  13.883  14.207   5.292  0.2385 -0.1012  0.1822
24425W        W41273   4.694   2.129  13.999  0.1194  0.0578 -0.2171
24426W        W41274  10.518  14.863  16.732  0.0286 -0.0827  0.0713
24427W        W41275   4.574  16.704   3.024 -0.0055 -0.0772 -0.0177
24428W        W41276  13.013   7.036   0.788 -0.0907  0.0545 -0.0311
24429W        W41277   1.202   6.966  17.523 -0.0819  0.0734 -0.1638
24430W        W41278   0.320   3.146   1.946 -0.0175  0.0530 -0.0652
24431W        W41279   1.661   6.272   0.303 -0.2041 -0.0822 -0.1495
24432W        W41280  13.049   7.596  15.478 -0.1081 -0.3074 -0.0014
24433W        W41281  13.999  13.970   4.244  0.1839 -0.2305  0.1572
24434W        W41282  15.017  16.134  14.863  0.0973 -0.0651 -0.1590
24435W        W41283   7.682   2.713  15.471 -0.1710  0.0437  0.1207
24436W        W41284  10.208  14.480   1.883 -0.0479 -0.5043  0.0432
24437W        W41285  12.810   5.340   5.266  0.1527  0.2171 -0.1294
24438W        W41286   5.382   1.438   5.155  0.1003 -0.2211 -0.2417
24439W        W41287   6.052   4.950   2.630  0.4664 -0.3676 -0.0764
24440W        W41288  14.701  15.705   5.152  0.1071 -0.0791 -0.0702
24441W        W41289   1.127  13.106   4.875 -0.2227 -0.3824 -0.1273
24442W        W41290   5.969  13.637   2.851  0.0687  0.1008 -0.0754
24443W        W41291  16.771   3.650   3.074 -0.0637 -0.2740 -0.2311
24444W        W41292   8.809   7.645   2.406 -0.2862  0.0629 -0.0982
24445W        W41293  14.169  11.403   6.750 -0.2871  0.1797 -0.2597
24446W        W41294   6.048  14.460   2.448 -0.1129  0.0311  0.0854
24447W        W41295   1.326   6.351  17.553  0.1121  0.0920 -0.1189
24448W        W41296  13.177   7.261   1.597  0.1619 -0.2113  0.0406
24449W        W41297  10.068  14.884   3.979  0.0769 -0.0039 -0.1304
24450W        W41298   0.669   1.112  13.349 -0.0240  0.0766 -0.2554
24451W        W41299   2.295  13.642   3.629  0.1489 -0.2286 -0.2573
24452W        W41300   3.499  15.353   0.478 -0.4026  0.2921 -0.1343
24453W        W41301   0.773  10.987  17.768 -0.1150 -0.0145  0.1929
24454W        W41302   2.158   7.426   2.924  0.1395  0.3430  0.3098
24455W        W41303  13.660   4.398   4.201 -0.0982 -0.0407 -0.0961
24456W        W41304  12.184   5.771  12.765  0.0470 -0.1821  0.2566
24457W        W41305   7.403   9.375  13.323  0.1096 -0.1796 -0.2373
24458W        W41306   6.811   8.860   5.065 -0.0623 -0.2293  0.0472
24459W        W41307   0.295  11.260  11.713  0.0371  0.1187 -0.1510
24460W        W41308  13.540   9.761   1.385 -0.0931  0.0310 -0.0192
24461W        W41309   6.959  13.570  17.371 -0.1387  0.1350  0.0641
24462W        W41310   6.625   4.105   4.990 -0.1618  0.0549  0.1918
24463W        W41311   9.325   3.607  12.610 -0.0567  0.0002  0.1832
24464W        W41312  15.990   5.071   1.936  0.0920 -0.1856 -0.0656
24465W        W41313  14.430   5.302  14.078 -0.0065 -0.2704 -0.2640
24466W        W41314  16.042   8.443   5.191  0.0073  0.1076  0.0071
24467W        W41315   3.982   5.832   5.412  0.1016  0.0149 -0.0078
24468W        W41316  14.271   8.237   3.138  0.0705  0.2351  0.1582
24469W        W41317   1.369   2.101   0.256 -0.0418 -0.1523 -0.0967
24470W        W41318   7.728   6.782  17.714 -0.0012 -0.1175  0.0683
24471W        W41319  15.765   4.690  12.997  0.2375  0.1283 -0.3330
24472W        W41320   7.851  10.149   2.909 -0.0258 -0.0538  0.1283
24473W        W41321  11.222   0.718  15.085  0.1887 -0.3261  0.1145
24474W        W41322   7.243   4.103  15.507 -0.1310 -0.0932  0.2935
24475W        W41323   1.773   2.388  15.091 -0.4473  0.1490 -0.0775
24476W        W41324  11.897   5.577   0.347  0.1769  0.1177 -0.0337
24477W        W41325  16.750   8.379   0.669 -0.0559  0.0719 -0.2533
24478W        W41326  16.431   7.220  15.063 -0.0178 -0.0295  0.0234
24479W        W41327   4.223   1.383   6.532  0.3319  0.1250 -0.1274
24480W        W41328   0.557  14.212  17.699 -0.0011 -0.1635 -0.3535
24481W        W41329   0.982   3.551   3.623 -0.1681  0.0639  0.0142
24482W        W41330   6.213  13.479  14.871 -0.1851  0.1740 -0.0120
24483W        W41331  12.351   2.675  15.214  0.0649  0.1244 -0.1436
24484W        W41332  10.065   7.876   2.106  0.0891  0.0246  0.1597
24485W        W41333  11.483   9.665   4.011 -0.0340  0.0611  0.2164
24486W        W41334  16.371  10.036  14.034 -0.3721 -0.0421 -0.2091
24487W        W41335   3.040   4.933   2.520  0.4954 -0.0053 -0.1043
24488W        W41336  16.865   6.523  17.014 -0.0480  0.1011  0.0700
24489W        W41337  15.608   2.527  15.011  0.0297  0.0047  0.0028
24490W        W41338   9.976   2.331   1.143  0.0959  0.1376  0.1793
24491W        W41339   3.028   1.371   4.503  0.0753  0.1902 -0.1634
24492W        W41340  12.602   1.164  12.506 -0.1011  0.2067 -0.1989
24493W        W41341   3.223  16.606  14.919 -0.1460 -0.0886  0.1271
24494W        W41342  14.159   6.377   0.946 -0.2145 -0.1214  0.1032
24495W        W41343   7.224   0.426   2.514 -0.2067  0.0541  0.0450
24496W        W41344   0.268  11.439  15.580  0.0880 -0.1926 -0.1533
24497W        W41345   7.684   3.279   5.568  0.1391 -0.1261 -0.0603
24498W        W41346   3.025   9.779   0.953 -0.2592 -0.0884 -0.1804
24499W        W41347   3.741   5.403   1.606  0.2299 -0.1119  0.0816
24500W        W41348  11.905  14.957   4.121  0.3113 -0.3173 -0.1756
24501W        W41349  16.034  13.756   3.817  0.1366 -0.0472  0.1784
24502W        W41350  14.575   9.082   5.287 -0.0088 -0.1036 -0.3683
24503W        W41351  16.730   7.805   2.686 -0.1152 -0.0314 -0.0257
24504W        W41352  11.687   9.008   5.430 -0.4447  0.2479  0.1566
24505W        W41353   1.938   3.273   3.116 -0.1699 -0.1696 -0.0933
24506W        W41354  10.519   0.654   1.863 -0.0925  0.1482 -0.0090
24507W        W41355  12.424   7.762   0.890  0.2661  0.1955  0.1928
24508W        W41356   3.778  12.779  12.158  0.0501 -0.0914 -0.1995
24509W        W41357   8.430   5.435   1.265 -0.0788 -0.0944 -0.4251
24510W        W41358  11.616   0.282  12.164  0.0350  0.2187  0.0395
24511W        W41359   1.401   5.907  12.522 -0.1545 -0.1721 -0.0518
24512W        W41360  11.653   5.562  17.514 -0.1573  0.3624 -0.1282
24513W        W41361   9.885  15.829   1.535  0.3117  0.0922  0.0511
24514W        W41362  10.580  16.924  15.658 -0.0873  0.1537  0.1343
24515W        W41363   1.561   7.984  17.173 -0.0446  0.1830  0.4353
24516W        W41364   8.401  14.936  15.953  0.1863 -0.1264 -0.0733
24517W        W41365   7.770   4.465   4.028 -0.0229 -0.2208  0.3349
24518W        W41366   3.300  13.350   0.113 -0.0950 -0.0993  0.1072
24519W        W41367  15.742  16.543  16.197 -0.2088 -0.2485 -0.2242
24520W        W41368  11.003   4.989  15.054 -0.2016 -0.0557  0.2715
24521W        W41369  15.666   7.058  14.075  0.2218 -0.0112  0.0264
24522W        W41370   6.115   3.316   3.948  0.3358 -0.0928 -0.4299
24523W        W41371   7.017  11.592   1.842  0.0766  0.2517 -0.0462
24524W        W41372  13.709   3.702  13.387  0.0314 -0.1234 -0.1320
24525W        W41373   6.108  16.072  12.932 -0.0154 -0.0363 -0.0686
24526W        W41374   9.976  16.706   2.189  0.0414 -0.1629  0.1700
24527W        W41375  13.762   6.928   1.094  0.1669  0.2083  0.0172
24528W        W41376  15.313  12.169   5.120  0.1413 -0.3168 -0.0024
24529W        W41377  15.239  12.797   1.189 -0.1674  0.3594 -0.0124
24530W        W41378  13.688   5.615   5.001  0.0016  0.3052  0.1535
24531W        W41379   4.903   5.606   3.142 -0.0118 -0.1287  0.2030
24532W        W41380   4.482   0.031  15.175  0.0208 -0.1402  0.0393
24533W        W41381   4.233   5.374   0.626 -0.2866 -0.1796  0.0485
24534W        W41382  13.234   1.697  16.601 -0.0609 -0.1012  0.1107
24535W        W41383   0.635  12.509  17.653 -0.1584  0.0949  0.1360
24536W        W41384   4.561  16.688  17.343 -0.2655 -0.0243 -0.2831
24537W        W41385   8.027   1.924  17.300  0.2260 -0.0429 -0.1329
24538W        W41386   3.629   7.842  13.616 -0.5235 -0.2109 -0.0428
24539W        W41387  15.117   4.935   2.795 -0.1804  0.0600  0.1318
24540W        W41388  15.897   7.919  14.211 -0.0004  0.2931  0.1328
24541W        W41389   8.126   3.092  15.483 -0.2513  0.0484  0.0689
24542W        W41390   5.637   6.189   4.908 -0.3136  0.4307  0.0910
24543W        W41391   2.601   9.901  16.917 -0.1489 -0.0897  0.0251
24544W        W41392  10.080   0.659   3.514 -0.0086 -0.1930 -0.1395
24545W        W41393  16.955   3.970   3.863 -0.1459 -0.2092 -0.0634
24546W        W41394   7.209   1.940   2.290 -0.1227  0.0422 -0.0949
24547W        W41395   5.999   5.433   2.782  0.1849 -0.1500  0.1890
24548W        W41396  12.493   1.677   2.652 -0.2095 -0.1716 -0.1345
24549W        W41397  16.776   8.841   4.036  0.1891 -0.0029  0.1528
24550W        W41398   6.617   5.429  16.536 -0.0867  0.0055  0.0995
24551W        W41399  14.555  16.987   3.919  0.0600  0.0044 -0.3843
24552W        W41400   6.349   9.467  16.170 -0.0975 -0.2135  0.0598
24553W        W41401  12.199   8.009   0.497  0.0211  0.0476  0.2972
24554W        W41402  13.894  14.692   3.643  0.1625  0.0534  0.0753
24555W        W41403  12.197   2.923  14.025 -0.5007 -0.2842  0.0567
24556W        W41404   8.046  13.313   2.636 -0.4118  0.0034 -0.0409
24557W        W41405  15.902   4.675  14.672 -0.3004  0.0099 -0.1465
24558W        W41406  15.033  13.972  16.491 -0.0883  0.1219  0.0315
24559W        W41407   0.600  16.534   0.126 -0.1442 -0.0405  0.0301
24560W        W41408   6.576   6.343  14.946  0.0040 -0.0817 -0.4156
24561W        W41409  14.386  16.574  14.627 -0.1803 -0.1837  0.0035
24562W        W41410  10.554   7.184   0.752 -0.0752 -0.3280  0.0895
24563W        W41411   4.792   0.453   3.386  0.3069  0.0158 -0.0056
24564W        W41412  10.755  12.482   0.910 -0.2349 -0.2040  0.1512
24565W        W41413  14.505   3.719  13.808 -0.1033  0.2397 -0.3219
24566W        W41414  12.878  11.537   0.177  0.0923 -0.2812  0.0825
24567W        W41415  11.647  12.654  17.176 -0.1478  0.1429  0.0488
24568W        W41416  10.243  14.077  17.290 -0.1893 -0.0664 -0.1369
24569W        W41417   5.851   6.078  17.492  0.0445 -0.1703  0.0035
24570W        W41418   7.315   3.551   5.474  0.2616 -0.1485 -0.0402
24571W        W41419   5.034   4.772   5.201 -0.1387  0.2674 -0.0570
24572W        W41420   0.121  12.510  13.619 -0.0401  0.0520  0.2694
24573W        W41421   9.651   1.803   1.272  0.0984 -0.0608 -0.1604
24574W        W41422   5.655  10.103  16.888 -0.1184  0.0575 -0.0781
24575W        W41423   4.423   3.389  12.967 -0.2178  0.0553  0.0615
24576W        W41424  16.908   3.074  14.739  0.0975  0.0315 -0.2421
24577W        W41425  15.393   8.875   5.150 -0.3068  0.1630 -0.0358
24578W        W41426  12.413  11.751  11.465 -0.3550 -0.0403  0.1779
24579W        W41427   1.006  12.111  16.864 -0.0746  0.0685  0.1909
24580W        W41428  13.875  14.793  14.113 -0.1802 -0.0118 -0.3467
24581W        W41429  16.513  16.995  16.319  0.3979  0.2247  0.1377
24582W        W41430   1.771   7.474  16.836  0.1951  0.0595  0.0401
24583W        W41431   2.087   1.254   3.763  0.0770 -0.1725 -0.2734
24584W        W41432   8.887   4.847  15.228 -0.1011  0.0725 -0.2311
24585W        W41433   6.303  10.801   4.671 -0.1609  0.0014  0.0258
24586W        W41434   2.871   6.501  13.259 -0.0341  0.0320  0.0645
24587W        W41435  11.235  11.108   1.100  0.0286 -0.2193 -0.0983
24588W        W41436   9.739  12.079   1.373  0.2317  0.1201 -0.0438
24589W        W41437  12.214   2.863  12.686 -0.0972  0.0548 -0.0164
24590W        W41438   9.334   1.842  12.881  0.0004  0.0662  0.0795
24591W        W41439   8.188  15.662  12.017 -0.1948  0.0767 -0.0316
24592W        W41440   6.943  14.269   6.144 -0.3952  0.0363  0.0812
24593W        W41441   6.721   2.012  14.694  0.0805 -0.1445  0.1389
24594W        W41442  16.669   0.860  14.735  0.2085 -0.0719 -0.0884
24595W        W41443  11.916   7.220  14.888  0.1037 -0.2396 -0.0065
24596W        W41444   6.254  12.220  13.007 -0.0594 -0.1266 -0.0577
24597W        W41445   8.649   8.284   0.371  0.1022 -0.0293  0.0266
24598W        W41446   9.374   7.870  16.525 -0.1226  0.0857 -0.1652
24599W        W41447  16.067   6.598   5.544  0.1014 -0.2498  0.3225
24600W        W41448   0.961   9.878  17.044  0.0707 -0.0494 -0.0504
24601W        W41449   4.156   8.736  13.626 -0.0426 -0.1656 -0.1005
24602W        W41450  15.084  13.392   4.429  0.0877 -0.1743  0.0432
24603W        W41451   3.228   4.003   2.248 -0.2576  0.4490  0.0353
24604W        W41452   0.348   8.224   3.758  0.1477 -0.2818  0.1036
24605W        W41453   3.247   2.469   2.589 -0.1280  0.0649 -0.0467
24606W        W41454  16.630   9.106  14.225  0.0166 -0.1576 -0.0091
24607W        W41455   5.501   7.338  11.911  0.0434  0.3287  0.6061
24608W        W41456   6.033  13.276  15.257  0.1230 -0.2267 -0.0696
24609W        W41457   8.259   1.721   4.745 -0.0588 -0.0196  0.0614
24610W        W41458   6.867   5.967  17.491 -0.1468 -0.1176  0.1206
24611W        W41459   0.071  12.644   3.963 -0.0267  0.0182 -0.0466
24612W        W41460  14.059  15.467  16.890 -0.0674 -0.0064 -0.1026
24613W        W41461  13.802  13.304  12.770 -0.0245 -0.0271 -0.1535
24614W        W41462   5.398   5.361  13.930 -0.0799  0.1318 -0.0786
24615W        W41463   0.653  12.022   0.684 -0.2117  0.0729 -0.0620
24616W        W41464   0.215   0.836  15.262  0.0797 -0.2037 -0.0187
24617W        W41465   3.788   2.545  16.301 -0.0523  0.0041  0.0455
24618W        W41466   5.765   0.511  14.836 -0.4021  0.0935  0.2462
24619W        W41467   7.183   4.192   2.755  0.1792 -0.0251  0.0607
24620W        W41468   0.638  13.161   2.815  0.3479 -0.0803 -0.0602
24621W        W41469  12.789   2.478   0.162 -0.0530 -0.2287 -0.1863
24622W        W41470   6.460   6.670   1.633 -0.3411 -0.1882  0.0542
24623W        W41471  11.433  12.874   4.715 -0.1737 -0.3251 -0.0462
24624W        W41472   9.618   1.762  15.720 -0.0551  0.0587 -0.1255
24625W        W41473  16.197   2.340  13.003  0.0546  0.1232  0.3902
24626W        W41474   9.739  16.076  13.030 -0.1305 -0.0655 -0.0533
24627W        W41475   4.757  11.138   3.661  0.1761 -0.2986  0.1912
24628W        W41476  13.090   0.936  12.467  0.0795  0.0623  0.0077
24629W        W41477   3.136   5.666  17.555 -0.2153  0.2086 -0.1427
24630W        W41478   1.581   3.593   1.366 -0.1006  0.2866 -0.3807
24631W        W41479   4.118   8.862   5.326 -0.0456 -0.0503  0.1559
24632W        W41480  11.831   7.858   0.047 -0.1275  0.0729 -0.0888
24633W        W41481   5.488   8.803  12.704 -0.0047 -0.2837 -0.0591
24634W        W41482   6.930   7.527   5.441 -0.1008 -0.1021 -0.2547
24635W        W41483   3.399  14.095   1.710 -0.1413 -0.2694  0.2416
24636W        W41484  12.294   2.064   3.560  0.1394  0.2486  0.1514
24637W        W41485   4.382  12.114  14.865  0.0153  0.0812 -0.0633
24638W        W41486  12.282  15.565  14.495 -0.2554 -0.0780 -0.2707
24639W        W41487   5.936  15.231   1.697  0.1793 -0.0335  0.0639
24640W        W41488  14.495  13.975  12.467 -0.1153  0.0775 -0.0284
24641W        W41489   6.086  13.912  14.439  0.0428  0.0045  0.0991
24642W        W41490   5.493   8.751   3.562 -0.0867  0.0096 -0.1892
24643W        W41491  11.927   3.804   0.315 -0.1443 -0.2622  0.0637
24644W        W41492   3.948  12.177   1.185  0.1172 -0.1231  0.2873
24645W        W41493   9.505   0.359  14.715 -0.1288  0.0669  0.1340
24646W        W41494   6.593   8.405   0.643 -0.0036  0.0494  0.0131
24647W        W41495  13.621   9.568   5.876  0.2669  0.1685  0.0267
24648W        W41496   1.518   3.287   1.932 -0.0961 -0.2433 -0.2430
24649W        W41497   3.698   3.102   3.651  0.0447  0.2048  0.0130
24650W        W41498   9.963  11.009  16.925 -0.1453  0.0649 -0.2186
24651W        W41499  14.442  16.095   1.696  0.1978 -0.1656  0.0710
24652W        W41500   3.178  10.960   1.948 -0.1282 -0.0315 -0.0180
24653W        W41501  10.138  16.306  15.241 -0.0316 -0.3766 -0.0277
24654W        W41502   3.394   0.836  12.708 -0.0509  0.0922 -0.3522
24655W        W41503   5.988   6.526   5.175 -0.2106 -0.0297 -0.1865
24656W        W41504   5.505   5.792   1.768  0.1506 -0.1101 -0.0898
24657W        W41505  10.227   6.574  17.817 -0.0136  0.1637  0.0075
24658W        W41506   1.318  10.777  17.632  0.2511  0.2249 -0.1445
24659W        W41507   9.877   4.496  12.034 -0.0970  0.0190 -0.1288
24660W        W41508  11.307   3.719   0.931  0.0134 -0.3090  0.2232
24661W        W41509   3.551   6.482  14.561 -0.0240  0.1412  0.0398
24662W        W41510  14.032   4.840   0.668 -0.0016  0.2611  0.0011
24663W        W41511  16.794  16.256  14.856 -0.1112 -0.1612  0.1246
24664W        W41512   4.680   3.769   4.812  0.1603 -0.0337  0.3230
24665W        W41513   4.357   6.810  13.130  0.0819  0.2189 -0.2470
24666W        W41514   9.352  10.220   0.877 -0.2697 -0.1246 -0.1035
24667W        W41515  10.928  10.405   3.380 -0.0230  0.0460 -0.3269
24668W        W41516   2.560  13.106  14.509  0.0544  0.0716 -0.3252
24669W        W41517  14.673   1.912   1.093 -0.0722 -0.1666  0.0137
24670W        W41518  12.230  15.295   1.137  0.1461 -0.0830  0.1299
24671W        W41519  15.734   8.100  16.182 -0.0955  0.1048 -0.1468
24672W        W41520   9.555  10.828   3.716  0.0051  0.0598  0.1711
24673W        W41521   8.321  15.843   5.572 -0.0024 -0.0092 -0.0368
24674W        W41522   9.533   3.517   0.352  0.1130  0.0759 -0.2327
24675W        W41523  12.827  11.899   3.430 -0.0277  0.0001 -0.1481
24676W        W41524   6.278   3.186   2.169 -0.0376 -0.3481  0.0632
24677W        W41525  11.882  13.549   4.984 -0.0528  0.2179  0.0147
24678W        W41526  13.574  12.260   5.208  0.4295  0.0756 -0.0642
24679W        W41527   6.768  16.780  16.411  0.2159  0.0405  0.3058
24680W        W41528   3.666  11.026   5.797 -0.2332 -0.1366  0.0087
24681W        W41529   6.237   9.612  14.329  0.1365  0.0873 -0.1014
24682W        W41530   3.751  11.663  16.043  0.1705  0.1213  0.1139
24683W        W41531   8.900   8.116   5.479 -0.1313 -0.1891  0.0392
24684W        W41532   7.103  14.683  13.895 -0.2395 -0.2696 -0.0835
24685W        W41533  15.639   1.212  14.470  0.1217  0.0989  0.0956
24686W        W41534   0.962   7.715   3.011  0.1271 -0.0677  0.0719
24687W        W41535   7.238  11.623   4.530 -0.2004 -0.1595  0.0178
24688W        W41536  11.592   9.444  17.494 -0.0220  0.1393  0.0510
24689W        W41537   1.088   6.372   0.387 -0.4452  0.1364 -0.0830
24690W        W41538   4.559   7.377  12.860 -0.5539 -0.0619  0.1401
24691W        W41539  12.505  13.606   2.185  0.3301  0.2591  0.1886
24692W        W41540   4.938   5.852   0.615 -0.1624  0.3825 -0.0175
24693W        W41541   1.134  10.269  13.832 -0.0348  0.2244 -0.0626
24694W        W41542  16.513   9.043   4.597  0.1990  0.0891 -0.1582
24695W        W41543  15.803   3.045   1.744 -0.1841 -0.0258 -0.2041
24696W        W41544  14.467   8.319  17.440 -0.0340 -0.0656 -0.2019
24697W        W41545  10.416   3.059  17.084  0.1276 -0.3142  0.3088
24698W        W41546  15.828  12.050   2.392 -0.0741 -0.0461  0.1085
24699W        W41547   5.041  15.441   2.752  0.1523 -0.0333  0.0005
24700W        W41548  16.210   4.483   3.977  0.0081 -0.1401  0.1266
24701W        W41549  15.359  15.677  13.274 -0.2213  0.2759 -0.1320
24702W        W41550   8.555  11.374  16.893 -0.0829  0.2370  0.1155
24703W        W41551   3.780   3.260   0.595  0.1219  0.3091 -0.3712
24704W        W41552  13.549  14.389   0.054 -0.1840 -0.1691  0.0070
24705W        W41553  13.440   7.838  12.852 -0.1258  0.0629  0.1012
24706W        W41554  13.193   0.930   1.313 -0.0903  0.0171  0.1238
24707W        W41555   4.086   4.398  16.595 -0.0011  0.3963  0.0828
24708W        W41556  11.300   5.985  14.904 -0.1177 -0.1721  0.0373
24709W        W41557   6.995  15.972  16.990 -0.2843 -0.1540  0.0926
24710W        W41558  16.182   0.649   0.559 -0.0458 -0.3188 -0.3775
24711W        W41559   7.850  13.475   0.574 -0.0295 -0.0051 -0.3592
24712W        W41560   0.391  10.946   1.806  0.0742  0.0929  0.0017
24713W        W41561  12.745   0.578  14.170 -0.0668  0.2436  0.0684
24714W        W41562  12.055   6.609   4.906  0.1790  0.2885  0.1114
24715W        W41563   4.786   2.705  14.479 -0.1127 -0.0008 -0.2158
24716W        W41564  10.304   7.367  13.241  0.1067 -0.0059  0.0196
24717W        W41565  13.127   2.198  14.571  0.0352 -0.0642  0.1083
24718W        W41566   7.374   6.153  16.213 -0.1487 -0.0515  0.0514
24719W        W41567   7.934   2.844   3.663 -0.0110 -0.0284  0.0110
24720W        W41568   0.922   4.118  13.316 -0.4099 -0.1560  0.1193
24721W        W41569   6.865   0.428   4.911 -0.1666  0.2440 -0.3383
24722W        W41570  11.569   9.748   5.371  0.1140 -0.0618 -0.1750
24723W        W41571  14.963   1.013   3.731  0.0138 -0.0639 -0.1229
24724W        W41572  16.452  16.453  16.419 -0.2780 -0.4542 -0.1380
24725W        W41573   3.152   2.021   2.300 -0.1938  0.0052 -0.2041
24726W        W41574   8.664   7.122   1.541 -0.1285  0.0831 -0.0390
24727W        W41575  16.008   1.301   3.236 -0.2116  0.2187 -0.1140
24728W        W41576  16.985   3.334  16.707 -0.2026 -0.1432  0.2057
24729W        W41577  15.424   0.260   1.238 -0.1227  0.2587  0.1373
24730W        W41578  15.338  11.599  15.982  0.0603 -0.1166 -0.0023
24731W        W41579   8.196   4.478  13.819  0.0394  0.0562 -0.2551
24732W        W41580  15.322  13.118  16.372 -0.1150 -0.0220  0.0069
24733W        W41581  10.603   7.794  17.819 -0.0171  0.0360  0.0071
24734W        W41582   4.811   5.513   4.032  0.1279  0.4717 -0.1209
24735W        W41583  13.171   6.274   3.704  0.0192  0.1159  0.0055
24736W        W41584  11.731   7.029   0.494 -0.1233  0.2896 -0.0488
24737W        W41585  10.128   1.637   4.805  0.0729  0.2102 -0.0170
24738W        W41586  12.175   3.423  13.765  0.1255 -0.1239 -0.1755
24739W        W41587   3.720   7.209   4.081  0.0532 -0.0280  0.0005
24740W        W41588   8.642   7.978   2.860  0.0334  0.1313  0.1545
24741W        W41589  15.383   6.167  13.724 -0.1517  0.0589 -0.0620
24742W        W41590  15.596   0.772  13.488 -0.0453  0.0051  0.4264
24743W        W41591  12.234   1.305  14.145 -0.2217 -0.2380  0.2589
24744W        W41592  14.976   9.539   1.382  0.0871  0.1039  0.0609
24745W        W41593   1.233   9.724   0.002 -0.0118 -0.1218 -0.0943
24746W        W41594  13.716   7.966  14.347 -0.3799  0.1659  0.1965
24747W        W41595   6.508   5.843   5.735  0.0044 -0.4721  0.2099
24748W        W41596  13.127   7.967   5.144  0.0089 -0.0175  0.3797
24749W        W41597  11.380  16.176  16.408  0.0594  0.1126 -0.0366
24750W        W41598   5.172   8.692  14.251  0.0298 -0.0957 -0.2826
24751W        W41599   0.492  15.578   2.448 -0.1433  0.1476  0.0606
24752W        W41600   2.679   0.063   4.433  0.0455  0.0194  0.1916
24753W        W41601   5.466  16.741  11.811  0.1125  0.0827 -0.1770
24754W        W41602   2.709  14.639   2.193 -0.3253 -0.2458  0.0985
24755W        W41603  13.961   2.779   5.204 -0.2062 -0.1010 -0.2602
24756W        W41604  11.973  15.719  14.096  0.1705 -0.0854  0.0572
24757W        W41605   1.570   3.792  16.029  0.2399  0.2082  0.0341
24758W        W41606  16.235   9.191  13.589 -0.2726  0.0169 -0.3194
24759W        W41607  16.437   5.570   0.184 -0.2157  0.1601  0.0802
24760W        W41608  13.689  15.663   2.509 -0.1243  0.0085 -0.3387
24761W        W41609   5.188   6.124   5.451 -0.0382  0.1884 -0.3594
24762W        W41610   4.924   8.857  15.449 -0.0080 -0.1379  0.0164
24763W        W41611   1.830  10.885  15.849 -0.0332  0.0375  0.2328
24764W        W41612   2.955   1.948   1.485 -0.0299  0.0570 -0.1562
24765W        W41613  16.175  14.882   3.895  0.0415 -0.5922  0.0236
24766W        W41614   2.408  13.190   5.044 -0.0509  0.0295  0.0414
24767W        W41615  10.578  12.733   1.333  0.1150  0.0978  0.0575
24768W        W41616  15.075   7.188   2.347 -0.1931  0.0591 -0.1217
24769W        W41617   6.534   9.765   5.310  0.0878  0.0621 -0.1019
24770W        W41618  12.355   6.481  15.118 -0.0834  0.3759  0.4261
24771W        W41619   5.470   3.690   2.405 -0.0685 -0.0523  0.0304
24772W        W41620  16.320   6.354  15.254 -0.2458  0.2480  0.1510
24773W        W41621  11.043  15.351   0.996  0.1315 -0.0950 -0.0313
24774W        W41622   8.600   5.726   2.994 -0.1168  0.3771  0.2965
24775W        W41623   2.916   5.892  13.368  0.3200 -0.2586 -0.3030
24776W        W41624   8.931   4.194  11.089  0.1252 -0.0265 -0.0448
24777W        W41625   3.807  14.732  12.074  0.2192  0.0936  0.0255
24778W        W41626  14.949   1.711  16.954  0.1514 -0.2377 -0.1487
24779W        W41627  11.808  10.271   1.855  0.2101  0.0199 -0.0341
24780W        W41628  14.575   3.442   1.024  0.0130  0.1444  0.1582
24781W        W41629   5.255  11.754   4.711 -0.1834 -0.0483  0.3428
24782W        W41630  15.432  13.601   3.580 -0.0768 -0.0797 -0.1518
24783W        W41631   8.583  11.464   0.033  0.0454  0.1802  0.0038
24784W        W41632   8.323  11.831  14.121  0.3432 -0.0088  0.0109
24785W        W41633   5.390   7.730  12.658 -0.1881  0.0840  0.1478
24786W        W41634   8.902   1.103   4.365  0.3260 -0.0301  0.1324
24787W        W41635  12.355   8.208  17.433 -0.0032  0.2045 -0.0174
24788W        W41636   9.791   6.372   1.789  0.1816  0.0972 -0.0780
24789W        W41637  13.262   2.391   0.104 -0.2203  0.1221 -0.1883
24790W        W41638  16.188  14.515  11.978  0.1726 -0.0186 -0.1842
24791W        W41639   6.674   1.870   0.254 -0.0576 -0.0334  0.0658
24792W        W41640  14.551  10.877  14.948  0.1926 -0.2745  0.0562
24793W        W41641  10.744   3.028   1.853 -0.0467 -0.1426 -0.1358
24794W        W41642   9.201  14.104   3.220  0.1311  0.1602 -0.2350
24795W        W41643  13.539   7.646   1.483 -0.2270  0.2489  0.2443
24796W        W41644  13.272   9.425   2.108  0.0192  0.2904 -0.0761
24797W        W41645   3.654   2.357   0.817 -0.0387  0.1808 -0.2260
24798W        W41646   0.587  12.335  14.341 -0.0491  0.0459 -0.1789
24799W        W41647   8.079   6.359   4.024 -0.2573  0.2170  0.1446
24800W        W41648   5.848  15.004   5.165 -0.0717  0.0193 -0.0338
24801W        W41649   6.602   3.330  15.176 -0.0439  0.1436 -0.0744
24802W        W41650  16.128   3.205   3.161  0.1163 -0.2234  0.1821
24803W        W41651   8.042   7.470   0.442  0.0156 -0.1482 -0.0760
24804W        W41652  10.456   4.533   3.501 -0.0369 -0.0088  0.1737
24805W        W41653   2.848   0.706  14.948  0.0093  0.0131 -0.1271
24806W        W41654  16.800   7.100   2.995 -0.3990  0.1052 -0.0674
24807W        W41655  11.666  15.750  13.691 -0.0246 -0.0165  0.0898
24808W        W41656  14.579  10.593   0.673  0.0159  0.1403  0.1755
24809W        W41657  12.956  16.959  11.798 -0.2321  0.0203 -0.0362
24810W        W41658   9.935  10.992  15.443 -0.1183  0.4043  0.1620
24811W        W41659  12.551  12.061   5.910  0.0923 -0.0809 -0.0101
24812W        W41660  14.087   7.258   0.742  0.0450 -0.1341  0.1380
24813W        W41661   6.563   5.472  12.433 -0.1234  0.0349 -0.2613
24814W        W41662  14.558   2.855  15.278  0.2073  0.3101 -0.2221
24815W        W41663  16.722   6.779  14.778 -0.0730  0.4542 -0.0652
24816W        W41664   5.658   3.079  15.909 -0.2166 -0.1540  0.3879
24817W        W41665   9.827  14.815   3.109  0.1470  0.0207 -0.0911
24818W        W41666  16.600  16.496   3.710  0.0531  0.0755  0.2211
24819W        W41667  15.025   5.083  17.100 -0.0990 -0.0690  0.1491
24820W        W41668   4.655   5.496   0.388 -0.1494  0.0066 -0.1161
24821W        W41669  13.882   3.157  12.470 -0.1571 -0.0094 -0.3576
24822W        W41670  13.767  14.524  17.165 -0.0077  0.1950 -0.2284
24823W        W41671   8.258   3.138  13.956  0.2427 -0.0525 -0.0179
24824W        W41672  14.750   3.333  12.485 -0.2176  0.4899  0.3215
24825W        W41673  15.246  11.971  15.208  0.0343  0.2167 -0.1174
24826W        W41674   4.903   0.643   4.011 -0.1947 -0.1156  0.2012
24827W        W41675  15.681   0.874   4.321  0.1243  0.1297 -0.0257
24828W        W41676   4.253   7.357   3.127 -0.1200  0.1736  0.1372
24829W        W41677   8.182  16.359  17.822  0.1541  0.0742 -0.3615
24830W        W41678  11.352   9.532  16.664  0.0207 -0.3034  0.0621
24831W        W41679   7.444  11.163   3.898  0.1909 -0.0314  0.1162
24832W        W41680   3.595   5.227   3.115  0.3918 -0.0596 -0.0153
24833W        W41681   9.427  11.473   1.135  0.3362  0.0913 -0.1657
24834W        W41682  10.128  14.492   5.177  0.3337 -0.1541  0.0954
24835W        W41683   1.579  12.782  17.789  0.2496  0.1622 -0.1289
24836W        W41684   8.344  11.694   3.148 -0.1535 -0.0774 -0.2655
24837W        W41685   3.845   0.153  17.210 -0.0393 -0.0108  0.2386
24838W        W41686  10.656   5.656  12.128  0.2246 -0.2462 -0.4894
24839W        W41687   7.645  16.521  17.674  0.0157 -0.2425 -0.1152
24840W        W41688  16.617   9.929   3.269 -0.1409  0.0655  0.1307
24841W        W41689  14.082   3.551  11.835  0.1877  0.1120  0.1809
24842W        W41690  14.872  15.925  16.577  0.2184 -0.1040  0.0399
24843W        W41691  10.860  10.108  13.794 -0.0528  0.0688 -0.2905
24844W        W41692  14.830   3.023   5.570  0.0079 -0.2903  0.0511
24845W        W41693   9.892   6.691  16.860  0.1345  0.1593 -0.1518
24846W        W41694  12.566  14.815   1.420  0.0525  0.1704  0.0712
24847W        W41695   9.465  14.001   1.996  0.0464  0.1697  0.0296
24848W        W41696   5.623   6.234   3.143 -0.1052  0.3107  0.0764
24849W        W41697   3.654   4.351   6.034  0.3694  0.2582 -0.0941
24850W        W41698   5.890  15.202   3.044 -0.0142  0.2070 -0.1745
24851W        W41699   9.479   8.521   0.058 -0.2711 -0.0713  0.0772
24852W        W41700   1.155   4.915   3.130 -0.1228 -0.0482 -0.0087
24853W        W41701   4.247  12.616   3.022  0.1143  0.1992  0.1780
24854W        W41702   1.744   9.322   1.544  0.0538 -0.1095 -0.0681
24855W        W41703   0.334   0.073   1.959  0.3840  0.0962  0.3050
24856W        W41704   9.290   9.765  15.594  0.0375 -0.0390  0.0846
24857W        W41705  13.032   7.026   5.498  0.1247 -0.0158  0.1856
24858W        W41706   3.358   5.186  15.572 -0.0340  0.2237 -0.1010
24859W        W41707  12.906  10.117   5.069 -0.1668 -0.0011 -0.1416
24860W        W41708  10.285  14.016   1.437 -0.1921  0.1919 -0.3280
24861W        W41709   7.107   1.309   4.871  0.0788 -0.1264 -0.1159
24862W        W41710   8.101  13.887   0.248 -0.2118 -0.1709  0.1128
24863W        W41711  11.570  10.281   4.079  0.0057  0.2008  0.1594
24864W        W41712   9.409   6.213  16.814  0.3679 -0.0181  0.1325
24865W        W41713  14.164   5.217   0.289  0.0201 -0.2807 -0.0585
24866W        W41714   4.189   0.793  14.861 -0.1002 -0.0736  0.0565
24867W        W41715  13.698   0.355   3.161  0.0306 -0.3646  0.0866
24868W        W41716   0.576  16.647  17.459  0.1724  0.1151 -0.0835
24869W        W41717   2.373   2.009  14.756 -0.0645  0.1425 -0.1673
24870W        W41718  16.040   3.937   0.567  0.3803  0.0911 -0.2920
24871W        W41719  14.305  16.802  16.608 -0.0867 -0.1355 -0.0689
24872W        W41720   8.651   4.108   0.233  0.0463 -0.0789  0.0096
24873W        W41721  10.168  11.397  15.270  0.0029 -0.1404  0.0865
24874W        W41722   4.716  10.978  16.952  0.1641 -0.0157  0.2787
24875W        W41723   0.607   0.896  14.825  0.0573  0.0686 -0.4149
24876W        W41724   9.706  16.303   3.050  0.2121 -0.0995  0.0282
24877W        W41725  10.066  12.892   3.066 -0.0705 -0.3046  0.2032
24878W        W41726   7.610  10.790  15.996  0.1871 -0.0643 -0.0395
24879W        W41727   6.557   7.165  16.924  0.1589 -0.2837  0.0926
24880W        W41728   3.980   3.834  17.026 -0.2576  0.1717  0.1823
24881W        W41729  10.128  12.752  16.856 -0.1793  0.1629  0.4020
24882W        W41730  15.089   9.294  16.708  0.0868 -0.1899  0.1431
24883W        W41731   3.992   7.788   2.760  0.1085  0.4323  0.2142
24884W        W41732   5.382   9.742  14.664  0.2138 -0.1014  0.0687
24885W        W41733   7.243  15.616  13.725  0.0004  0.2300 -0.1398
24886W        W41734  14.857  15.902  17.127  0.1336  0.0351 -0.2679
24887W        W41735   5.774   2.714   5.407 -0.0060  0.2620 -0.0004
24888W        W41736  11.952  12.737   5.982  0.0108  0.2309 -0.0987
24889W        W41737   9.046   0.765  12.251  0.5380 -0.1193  0.1948
24890W        W41738  11.800   9.138  15.806 -0.1689 -0.0511 -0.0457
24891W        W41739   3.472  15.867   4.272  0.0588  0.1177  0.2273
24892W        W41740   9.538   3.420   2.435 -0.0876  0.4394 -0.0544
24893W        W41741   8.398   9.327  14.570  0.2121 -0.0893  0.1869
24894W        W41742   1.495   5.721  15.961  0.0985 -0.0324 -0.2339
24895W        W41743   3.367   9.104   0.127 -0.2368  0.1894  0.0615
24896W        W41744  15.245  14.888   4.077 -0.1797 -0.1184  0.0724
24897W        W41745  11.507  14.270   0.311 -0.0191 -0.1479  0.0254
24898W        W41746   5.604   1.699   2.299 -0.1948 -0.2395 -0.5066
24899W        W41747   0.304  13.301  14.121 -0.1733  0.1983  0.0695
24900W        W41748  12.788   9.308  13.229  0.2850 -0.1327 -0.1956
24901W        W41749  12.204   3.944   0.759  0.0832 -0.0514 -0.2217
24902W        W41750   9.467   9.548  14.009  0.1024 -0.2376  0.1829
24903W        W41751  13.432  12.835  14.660 -0.0828  0.0768  0.1119
24904W        W41752  11.743   7.005  13.311  0.1987  0.1229  0.2467
24905W        W41753   3.720   7.272   0.897 -0.1464 -0.1334  0.0818
24906W        W41754   9.547   4.355  17.553 -0.2086 -0.0676 -0.1461
24907W        W41755   7.162   2.337  12.557  0.0129  0.0959  0.0397
24908W        W41756   8.991  15.859   2.527  0.3711  0.0776 -0.1244
24909W        W41757   1.156   2.798   4.824  0.3241  0.1371  0.2473
24910W        W41758   8.221  16.332   0.515 -0.2660 -0.2718 -0.0634
24911W        W41759   7.744   7.746   2.611  0.3065 -0.0973  0.0509
24912W        W41760   4.557   5.969  15.294  0.0590 -0.2851  0.0167
24913W        W41761   7.384   3.702   0.190 -0.0440 -0.2573 -0.0864
24914W        W41762   3.622  16.451  12.415  0.0413 -0.1631 -0.0084
24915W        W41763   3.970   8.951   0.659  0.4354 -0.1844  0.1269
24916W        W41764   7.585   3.447  17.644  0.1250  0.3413 -0.1525
24917W        W41765  11.835   3.333   1.363 -0.1853  0.2060  0.1924
24918W        W41766   5.949   0.611  13.673  0.0951  0.0733  0.0496
24919W        W41767   6.961   6.720  13.763 -0.1950 -0.1961 -0.1018
24920W        W41768  16.476   3.132  13.349  0.0855  0.2838 -0.3153
24921W        W41769   8.663   1.506   2.151  0.0549  0.2513 -0.1011
24922W        W41770   5.481   3.752   1.142 -0.1528 -0.0446  0.1642
24923W        W41771   7.450  13.424  13.661  0.0754 -0.0406 -0.2307
24924W        W41772   6.413  16.687   2.762  0.1615 -0.2913  0.2733
24925W        W41773   0.165   0.507  13.406 -0.1255  0.0499  0.0166
24926W        W41774   2.419   5.545   4.009  0.3438  0.4434 -0.2564
24927W        W41775  15.476  10.943  12.228 -0.2819  0.2523  0.0710
24928W        W41776   2.346  11.606  12.667 -0.3138  0.2305 -0.1747
24929W        W41777   2.535   4.186  13.585 -0.0263  0.0385  0.1329
24930W        W41778  10.646   9.528   0.368  0.2381 -0.2778 -0.1111
24931W        W41779  14.269  10.016  16.618 -0.2184 -0.0242 -0.2658
24932W        W41780  15.911   7.390  15.470 -0.2298 -0.1379 -0.0434
24933W        W41781  15.409   0.753   3.774  0.1631 -0.0402  0.2618
24934W        W41782   4.990  11.419   2.640 -0.1367  0.0627 -0.3006
24935W        W41783  13.681  11.324  14.725  0.0328 -0.0832  0.1045
24936W        W41784   8.265   7.717   3.102  0.1510  0.0237 -0.2414
24937W        W41785  10.638  14.429  14.185 -0.0851  0.0622 -0.2804
24938W        W41786   6.435   4.570  15.217 -0.1883 -0.0619  0.0149
24939W        W41787   9.654  12.616  13.668 -0.0179 -0.2152 -0.2802
24940W        W41788   0.101   3.988  15.453  0.0926 -0.0809  0.1255
24941W        W41789  12.003  15.626  13.193 -0.1329 -0.1655  0.1588
24942W        W41790   3.809  16.018   3.596  0.0624 -0.3069  0.0715
24943W        W41791   7.147   3.505  15.210  0.0381  0.2566  0.1409
24944W        W41792  13.777   8.298   2.084  0.0837  0.0346 -0.0550
24945W        W41793   2.769   9.645   0.071  0.3461 -0.0836  0.2014
24946W        W41794   6.413  16.210   3.007 -0.3722 -0.2362  0.1945
24947W        W41795  16.739  10.124   4.671 -0.0547  0.0869  0.1592
24948W        W41796  13.766   3.396  16.887  0.2449  0.0479  0.0036
24949W        W41797  11.424  10.069   4.989  0.0873  0.0595  0.0562
24950W        W41798   1.938   0.433  17.369 -0.0353 -0.0277  0.1616
24951W        W41799  10.668   4.130  15.915  0.1826  0.0889  0.0920
24952W        W41800  14.812   6.626  16.951 -0.0435 -0.1658  0.0267
24953W        W41801  11.618  15.193   2.716 -0.0698  0.0515 -0.2207
24954W        W41802  16.831   8.833   4.980 -0.2470 -0.4478  0.1135
24955W        W41803   8.429  11.443   1.167  0.0321 -0.1931 -0.1547
24956W        W41804  15.215   5.183  12.691  0.2970 -0.0504  0.0140
24957W        W41805   0.407   3.090   5.140 -0.0284  0.3463 -0.0186
24958W        W41806  16.543   2.277  15.429 -0.2033 -0.2136  0.1197
24959W        W41807   8.736  14.860   5.870 -0.0147 -0.1524  0.0762
24960W        W41808   3.982   1.056   1.831 -0.1615 -0.1223 -0.0284
24961W        W41809  13.985   3.778   2.928 -0.1181 -0.2300  0.0855
24962W        W41810  11.968  12.605  14.502 -0.0269  0.1102 -0.1099
24963W        W41811   6.314   8.402   3.228 -0.0523  0.1290  0.2494
24964W        W41812   0.872   9.360   3.467  0.1071  0.2164 -0.1828
24965W        W41813   0.661  15.612  16.673 -0.2119  0.0204  0.0855
24966W        W41814   8.700   4.896   1.187 -0.2248  0.0929  0.0082
24967W        W41815  16.229  10.093   5.132  0.3692 -0.1140 -0.0230
24968W        W41816   3.676  10.477   1.176 -0.0449 -0.0984  0.1257
24969W        W41817   2.594  12.000   2.359  0.0760  0.0287 -0.1754
24970W        W41818   8.993   3.943   6.224  0.0512  0.0569  0.1945
24971W        W41819  16.530   1.086  15.631 -0.1157  0.0774  0.1885
24972W        W41820   6.298   3.910   2.798 -0.1147 -0.1873  0.1952
24973W        W41821  15.078   5.074  16.199  0.0484  0.0675  0.0063
24974W        W41822  16.843   7.313  14.838  0.3132  0.1059 -0.3013
24975W        W41823   5.659   7.027   4.101  0.1627 -0.2050 -0.2408
24976W        W41824   6.502   9.226   3.435  0.0712  0.1942  0.2432
24977W        W41825  13.755   4.854  14.441  0.1306  0.3135 -0.0114
24978W        W41826   1.864  14.950  17.269  0.2413 -0.0547 -0.1163
24979W        W41827  13.041   7.645   4.732 -0.2136 -0.1308 -0.1454
24980W        W41828   7.304   3.917   2.232 -0.1336  0.0407  0.1343
24981W        W41829   6.554  10.346   0.178  0.0566  0.1129  0.3563
24982W        W41830  12.543   4.290   2.653 -0.0752 -0.0536  0.3920
24983W        W41831  15.471  15.943   0.915  0.0083 -0.0343 -0.0929
24984W        W41832   0.125  16.432   0.263 -0.1394  0.0744 -0.0086
24985W        W41833   0.520   0.392  15.300  0.1052 -0.0214  0.3153
24986W        W41834  13.328  16.718   5.194 -0.0718 -0.0254  0.0704
24987W        W41835   9.737   3.483   4.005 -0.1989  0.0884 -0.0284
24988W        W41836   3.762   8.357   3.635 -0.2102  0.0200 -0.0818
24989W        W41837   6.660   9.360   0.861  0.3279  0.0720 -0.0977
24990W        W41838  14.386  11.692   3.857 -0.3046 -0.1075 -0.2067
24991W        W41839  14.966   0.475   3.711 -0.0573  0.2291 -0.1632
24992W        W41840   1.007  11.802   0.364 -0.0269  0.0042  0.0167
24993W        W41841   9.168  16.956   4.152 -0.2910 -0.4374 -0.1409
24994W        W41842  10.179   3.295   1.008  0.0084  0.0810 -0.0617
24995W        W41843  11.121   1.662  15.990 -0.0007 -0.1670 -0.1228
24996W        W41844  16.072  12.331   0.836 -0.2553 -0.1814  0.0594
24997W        W41845  16.200   8.942   1.966  0.2518 -0.1388 -0.1838
24998W        W41846   8.931  12.361  17.340 -0.0191  0.0986 -0.0387
24999W        W41847   1.748  11.395   0.447 -0.0623  0.1323  0.1888
25000W        W41848   8.836   6.222   5.581  0.0462 -0.1244 -0.1438
25001W        W41849   7.060   3.779   3.031 -0.1392 -0.3923  0.4259
25002W        W41850   6.336   1.571   6.637  0.0160  0.0744 -0.0530
25003W        W41851  13.283   7.648  16.907 -0.3778  0.1607 -0.0034
25004W        W41852   6.093  14.433  13.016  0.0988 -0.0943 -0.2174
25005W        W41853   0.883  16.100   0.394  0.0508  0.3115 -0.0325
25006W        W41854  15.370  12.729   5.164  0.1733  0.0176  0.0030
25007W        W41855   7.593  14.451   4.441 -0.2162  0.1893 -0.1100
25008W        W41856  14.454   9.619   0.898 -0.4066 -0.1921  0.2267
25009W        W41857   7.011  14.811  15.328  0.1130  0.4149  0.1613
25010W        W41858  11.939  12.594   5.461  0.1537  0.0536  0.2818
25011W        W41859   7.305  11.500   0.646 -0.0541 -0.1426 -0.0871
25012W        W41860   6.386   4.273   3.874  0.0318 -0.2199  0.2126
25013W        W41861   4.423  14.709  17.797 -0.1694 -0.0770 -0.0720
25014W        W41862   2.709   0.033  17.163  0.0121  0.0110  0.2273
25015W        W41863   9.788   7.572  17.825  0.1287  0.0648  0.1159
25016W        W41864   1.210  16.752   3.467 -0.1503  0.2560 -0.0666
25017W        W41865   7.566  15.726   5.418 -0.2361  0.1302  0.1952
25018W        W41866  16.392  16.922   5.586 -0.1173 -0.0224  0.1071
25019W        W41867  16.317  10.126   0.377  0.2065  0.1045 -0.1116
25020W        W41868   8.869  11.819   5.829 -0.2853  0.0841  0.0481
25021W        W41869  14.949  16.332  12.705  0.3646 -0.1795  0.1075
25022W        W41870  12.856  16.578  14.086 -0.1496 -0.0047  0.0867
25023W        W41871   5.989   5.781  15.143 -0.2363 -0.3466 -0.0811
25024W        W41872  11.012   3.235  13.834  0.2473  0.2195  0.0863
25025W        W41873   9.743  11.031   0.904  0.0429  0.1635 -0.0690
25026W        W41874   6.280   8.609   4.468  0.0393 -0.0761 -0.1919
25027W        W41875   7.315   6.768   5.338  0.1063 -0.0008 -0.1229
25028W        W41876  10.178  16.158  12.753 -0.0324 -0.0715  0.0955
25029W        W41877  15.477  12.844  15.495  0.1529 -0.2061 -0.2829
25030W        W41878  13.526  14.914  14.957  0.3629 -0.1660 -0.0655
25031W        W41879   5.990   4.862   1.205 -0.2567  0.0409  0.3614
25032W        W41880   3.002   6.700  12.687 -0.0635 -0.2195  0.0607
25033W        W41881   6.559   3.065  14.759 -0.2522 -0.1051  0.0446
25034W        W41882   7.363   7.806  17.307  0.2743 -0.2141  0.1531
25035W        W41883  11.664   9.769   3.263  0.0003  0.1103 -0.0416
25036W        W41884   9.206   2.221  14.034  0.3098  0.1445 -0.4507
25037W        W41885  10.207  14.032  14.075  0.0141  0.2826  0.0926
25038W        W41886   5.583  11.554   3.900 -0.1376  0.1601 -0.0384
25039W        W41887   2.132  12.256   3.847 -0.4250  0.1916 -0.0970
25040W        W41888   0.128   9.781   3.932 -0.0519 -0.3349 -0.4355
25041W        W41889  10.983  13.264  15.541 -0.2453 -0.1251 -0.1847
25042W        W41890   5.101   7.623   2.791  0.0124 -0.0914  0.2792
25043W        W41891   9.935  13.271   0.967  0.3491  0.0075 -0.0056
25044W        W41892  16.363   0.055  16.776 -0.1219 -0.0617  0.3309
25045W        W41893   5.266  15.824  17.460  0.0320  0.0785 -0.0299
25046W        W41894   1.922   9.680   0.383  0.0973 -0.4664 -0.2102
25047W        W41895   3.143   3.204  12.691 -0.1039 -0.0538  0.2133
25048W        W41896  12.529   5.010   1.097  0.0430  0.2621  0.1408
25049W        W41897   2.824  16.366   0.886  0.2959  0.3675 -0.3083
25050W        W41898   6.546   0.778  12.421 -0.1287 -0.1207 -0.0302
25051W        W41899   3.766   4.432   1.358  0.2240  0.1084  0.0720
25052W        W41900   7.844   6.487   2.289  0.3011 -0.3234 -0.1515
25053W        W41901  11.034  14.058   4.155  0.2064 -0.5932 -0.2339
25054W        W41902   6.998  12.445  14.415 -0.1499  0.1001  0.0828
25055W        W41903   7.857   6.891  16.305 -0.0467  0.0101  0.3135
25056W        W41904   3.657   9.643  16.052 -0.0428  0.2908 -0.2096
25057W        W41905   4.761   7.897  17.555  0.1841 -0.0453 -0.1200
25058W        W41906  13.804   6.350   5.437 -0.4982 -0.1280 -0.0745
25059W        W41907   5.425   0.785  15.729 -0.4256  0.0849  0.0779
25060W        W41908  14.632  15.387  15.310 -0.1130  0.1424 -0.0275
25061W        W41909   0.778  15.565   3.208  0.0688 -0.0046  0.3865
25062W        W41910   8.385  13.001   3.639  0.1437 -0.0725 -0.0715
25063W        W41911  10.404  16.508   3.074  0.1230  0.0266  0.1825
25064W        W41912   0.696   1.257  14.085  0.0942 -0.0302 -0.0034
25065W        W41913   9.132  10.053   4.050 -0.2137 -0.0801  0.0694
25066W        W41914   9.167  10.494   1.296  0.0886  0.1062  0.0206
25067W        W41915   4.095   8.375   5.211  0.0959  0.1404  0.1395
25068W        W41916   0.471   1.382  12.928 -0.1540  0.3145  0.0526
25069W        W41917  16.120   6.698  16.176  0.0146 -0.0354 -0.1049
25070W        W41918  17.006  13.512   3.325 -0.0806  0.0021  0.0746
25071W        W41919  16.291  11.937   1.578  0.0514  0.1643  0.1863
25072W        W41920  12.787  13.854   2.674 -0.1752  0.0126 -0.6477
25073W        W41921  11.526  12.790   5.257  0.1391 -0.0603 -0.0446
25074W        W41922   1.283   8.067   3.838  0.5122  0.3642  0.1881
25075W        W41923   4.522  13.988  15.292 -0.1130 -0.0844  0.0831
25076W        W41924  14.560   7.564   5.590  0.0613 -0.2699  0.1799
25077W        W41925   0.872  14.382  15.979 -0.0799 -0.0511 -0.0516
25078W        W41926   0.107   9.086   5.375 -0.1522  0.4401  0.1419
25079W        W41927   6.251   2.688   3.101  0.0129 -0.1416  0.1836
25080W        W41928  16.055  14.970   1.521 -0.0995 -0.1997  0.0770
25081W        W41929   6.042  10.442  14.695  0.2151  0.1208 -0.1902
25082W        W41930  12.720   8.588   2.252  0.2675  0.0307  0.0261
25083W        W41931   2.461   1.959  12.378 -0.1138  0.0734 -0.3752
25084W        W41932   4.377  14.735   3.164 -0.0582 -0.4255  0.2138
25085W        W41933  11.594   9.392   2.137  0.0645 -0.1861 -0.1217
25086W        W41934   1.523   4.218  15.252 -0.0915 -0.1626  0.0790
25087W        W41935  15.692   8.785   4.083 -0.0061  0.0834  0.0648
25088W        W41936  16.073  10.174  14.407  0.1286  0.1639 -0.0741
25089W        W41937   4.219   1.549  14.632  0.0782  0.3576 -0.1255
25090W        W41938   7.641   0.058   1.106 -0.0248  0.0876 -0.2124
25091W        W41939  14.466  12.016  15.386  0.2083  0.0463  0.0983
25092W        W41940  12.133   3.217   5.282 -0.2459 -0.1231  0.2586
25093W        W41941   8.400   8.440  14.299  0.2325  0.0151  0.2044
25094W        W41942  12.954  11.613  14.063  0.0194  0.0272 -0.1841
25095W        W41943   5.441   4.501   1.582  0.0508 -0.0295  0.3097
25096W        W41944  15.428   1.995   4.880  0.3656  0.0286  0.0473
25097W        W41945   6.850  10.792   5.621 -0.0546 -0.5139 -0.1690
25098W        W41946   1.793  10.790  13.642  0.0530 -0.0883  0.1747
25099W        W41947   2.223   6.836   0.691  0.1264  0.1945 -0.3737
25100W        W41948   0.714   2.116   0.696 -0.1491  0.2633 -0.0751
25101W        W41949  10.128   6.099   0.855 -0.3501  0.1960 -0.1697
25102W        W41950   3.402   9.363   4.530 -0.4136  0.1295  0.0021
25103W        W41951  16.424   3.425   2.820 -0.2630 -0.2971  0.2196
25104W        W41952   2.596  12.049  16.412  0.2559 -0.0322  0.0219
25105W        W41953   5.445  16.371  15.818 -0.1356  0.0078 -0.2266
25106W        W41954   1.010   9.846   3.501  0.1215  0.1110  0.0939
25107W        W41955   7.036   4.204   4.732 -0.3757  0.1284  0.1442
25108W        W41956   6.340   5.451   4.450  0.4148  0.1572  0.3495
25109W        W41957  12.657   5.496  13.019 -0.1337 -0.1828 -0.0575
25110W        W41958  12.710  16.200  14.359 -0.2060 -0.1213 -0.0556
25111W        W41959  12.087  11.963   5.613 -0.0829  0.1635  0.0425
25112W        W41960  10.087  11.981   4.372 -0.0309 -0.1138  0.1527
25113W        W41961   7.262   7.585   4.448 -0.0514  0.5662 -0.0489
25114W        W41962  13.375  13.431   3.040 -0.1791  0.0917 -0.0517
25115W        W41963  11.829   8.939   0.870 -0.1016 -0.1050  0.0218
25116W        W41964  13.001   9.499   2.558 -0.2433 -0.1339 -0.1443
25117W        W41965   1.513  14.459   1.884  0.1211 -0.0331  0.1383
25118W        W41966   8.199   0.012  17.210 -0.0597  0.1909 -0.1134
25119W        W41967   9.680  14.182   5.165  0.1019  0.0663  0.1655
25120W        W41968  10.554   6.521  17.405 -0.0070 -0.2710  0.0755
25121W        W41969  12.442   7.725   4.311 -0.1708 -0.2453  0.0840
25122W        W41970   0.226  11.217  13.734  0.1029 -0.0567 -0.0976
25123W        W41971  14.339   7.687   4.666 -0.1247  0.1288  0.3179
25124W        W41972   8.541  13.176   1.462 -0.1585  0.2980  0.0746
25125W        W41973  12.469  13.812  15.874  0.1321  0.0594 -0.2499
25126W        W41974   0.886   5.280  13.887 -0.3743 -0.1901 -0.3445
25127W        W41975   5.275  12.930   3.900  0.2294 -0.1078 -0.2496
25128W        W41976   9.516  13.391   5.016  0.0056 -0.1851 -0.0983
25129W        W41977  16.129  11.150   3.944  0.0928  0.0393 -0.3171
25130W        W41978  14.102  11.093  15.126  0.0724  0.0562  0.1431
25131W        W41979  10.025  10.385   3.819  0.1294 -0.1608  0.1065
25132W        W41980   0.832   5.502  13.354  0.1337  0.0133 -0.1997
25133W        W41981   6.302   5.465   1.960 -0.1333 -0.0443 -0.1945
25134W        W41982  11.438   6.165   5.289  0.1389  0.2514  0.2496
25135W        W41983   9.813  16.092  17.303 -0.0444 -0.0984  0.1656
25136W        W41984  13.258   9.575  14.422 -0.1209  0.1542 -0.0833
25137W        W41985   5.593  12.953  15.009  0.2329 -0.5013  0.1510
25138W        W41986  10.074   4.072   0.865  0.0246 -0.2587 -0.1513
25139W        W41987   1.612  14.481  13.123 -0.1622  0.0391  0.2231
25140W        W41988  13.647  14.310   1.450  0.3382 -0.1288 -0.4370
25141W        W41989   9.450   4.762  17.127 -0.0080  0.5006  0.2575
25142W        W41990   9.177   0.530   5.759 -0.0807  0.0908 -0.1972
25143W        W41991   5.248  13.607   1.734  0.3041 -0.0069  0.0725
25144W        W41992   6.614   9.968  15.174 -0.0633  0.0070  0.1988
25145W        W41993   1.782   0.103   1.447 -0.1363 -0.1921  0.0882
25146W        W41994  15.514   3.958  17.656  0.0925  0.2919 -0.1452
25147W        W41995  14.102  14.010   0.572  0.0855 -0.0999 -0.2262
25148W        W41996   2.686   2.943  13.468  0.3003  0.1391  0.1553
25149W        W41997   7.654   3.639   5.917  0.1289 -0.2607 -0.1882
25150W        W41998  13.582   8.956  14.354 -0.0277  0.1463  0.0109
25151W        W41999   9.651  15.669   0.738  0.2748 -0.0296  0.0763
25152W        W42000   3.201   0.320  14.184  0.1816 -0.2811 -0.0584
25153W        W42001  11.857   9.694   1.816 -0.1366 -0.0042  0.0009
25154W        W42002  11.449  14.437   2.597  0.1873 -0.3620 -0.0457
25155W        W42003  12.848  13.111  13.968  0.1699 -0.0598  0.0786
25156W        W42004   0.113  14.047  12.747  0.2874 -0.0037 -0.2185
25157W        W42005   6.537   3.521  17.428  0.0779 -0.1306  0.0149
25158W        W42006  11.649   1.921   2.490  0.1233  0.1183 -0.0540
25159W        W42007  10.424   3.269   5.181 -0.2133  0.2758 -0.3139
25160W        W42008   4.766  15.404   5.853  0.1377 -0.1199  0.0533
25161W        W42009   5.027   4.459  12.755 -0.0464 -0.0895  0.2781
25162W        W42010   3.150  13.436   1.297  0.0881 -0.1369  0.3679
25163W        W42011  15.272  13.182   5.446  0.0342 -0.1515 -0.0430
25164W        W42012   0.081  16.032  12.566 -0.1209 -0.0077  0.1778
25165W        W42013   1.004  10.863   0.651 -0.3053 -0.0703  0.2315
25166W        W42014   2.234  16.968   1.169 -0.1231  0.1502  0.0697
25167W        W42015  11.572  11.747   3.925 -0.3838  0.1423 -0.0515
25168W        W42016   9.089   2.744   2.089  0.0585 -0.0372  0.1105
25169W        W42017   0.296  10.952   3.351 -0.0111 -0.0301 -0.0482
25170W        W42018  10.270  14.847   0.805 -0.0164  0.3144  0.2157
25171W        W42019   2.606   2.540  12.615  0.1831  0.0054 -0.1187
25172W        W42020   0.856  12.086  13.482 -0.0082  0.1090  0.0123
25173W        W42021   3.941  11.109   0.990 -0.0476 -0.1050  0.0830
25174W        W42022   1.354  15.736   2.832 -0.2029  0.0836 -0.0015
25175W        W42023  13.427  16.619  12.259  0.1724 -0.0019 -0.3639
25176W        W42024   8.465   5.321   3.261  0.0022 -0.0438 -0.0803
25177W        W42025   8.856  10.961   0.701  0.1226 -0.0360  0.1749
25178W        W42026  15.267   9.887   4.482 -0.0988  0.2066 -0.1957
25179W        W42027   2.510   0.496   3.472  0.2683 -0.1409  0.0781
25180W        W42028  12.713   3.489  16.641 -0.0876  0.0954  0.1016
25181W        W42029  14.012  16.252  13.032  0.1106  0.0654  0.0523
25182W        W42030   8.933   8.767  16.466 -0.3150 -0.1759  0.0206
25183W        W42031   3.472   2.515  13.376 -0.1252  0.1963  0.1506
25184W        W42032  14.582   1.888   4.612  0.0885  0.1504  0.0560
25185W        W42033   0.417  14.387  12.386  0.0404 -0.0967 -0.1657
25186W        W42034  12.750  13.140   2.125 -0.1917 -0.1009 -0.2375
25187W        W42035   3.057  16.406  17.426  0.5514 -0.0810 -0.0227
25188W        W42036  14.936  14.519  16.571  0.3178  0.1714 -0.2165
25189W        W42037  15.138   7.208   6.212 -0.3261  0.1412 -0.1569
25190W        W42038  10.134  10.735   2.092  0.2866  0.1254  0.1463
25191W        W42039  11.630  12.911   3.714  0.3605 -0.1788  0.0348
25192W        W42040  13.795   4.250  13.502  0.1671  0.0342  0.1669
25193W        W42041   8.834  11.524   1.477 -0.1309  0.0485 -0.2227
25194W        W42042   1.114  16.235  14.552  0.2031  0.4260  0.4300
25195W        W42043   6.987   0.525  12.328 -0.1029 -0.1517 -0.1331
25196W        W42044   3.276  15.794   0.339 -0.1586  0.1488 -0.0306
25197W        W42045   0.331   7.667  14.041 -0.3278  0.0394 -0.3673
25198W        W42046  14.210   9.732  12.213 -0.0567 -0.0096 -0.0153
25199W        W42047   0.404  14.618   3.355  0.0699 -0.2856 -0.0324
25200W        W42048   9.636   4.607  14.713  0.1129 -0.0703  0.1883
25201W        W42049   4.400   0.282  16.564 -0.1261  0.0459  0.2571
25202W        W42050  10.063  14.789  16.392 -0.0173 -0.1596 -0.0652
25203W        W42051  14.695  10.575  15.910  0.0215 -0.0294  0.3972
25204W        W42052  15.770  11.460   0.956 -0.1001  0.0024 -0.1244
25205W        W42053   7.520   5.369   4.357  0.1020 -0.3571 -0.0727
25206W        W42054   4.740   1.648  14.753  0.1752 -0.2160  0.0693
25207W        W42055  17.010   2.377  12.442  0.1983  0.1637  0.2221
25208W        W42056   0.941  12.881  13.788 -0.3375  0.2618 -0.2438
25209W        W42057   5.657  13.424  14.892  0.2826  0.0074 -0.0607
25210W        W42058  12.858   7.704  15.929 -0.0553  0.2985  0.0518
25211W        W42059  12.742   7.169  15.857  0.0011 -0.0246  0.3630
25212W        W42060   2.969   2.405  14.483 -0.2872 -0.4139  0.1221
25213W        W42061  11.842   2.555  13.712  0.0180  0.0980 -0.0746
25214W        W42062   3.368  11.408  16.154  0.0577  0.1378 -0.3337
25215W        W42063  14.802   5.385  15.857  0.2039  0.1926  0.1608
25216W        W42064   6.730  13.982  14.233 -0.1003  0.0306 -0.0842
25217W        W42065   2.370  11.974   4.221  0.0719  0.1804 -0.0933
25218W        W42066  11.632  14.613  13.109  0.1523  0.0520  0.0493
25219W        W42067   9.163   3.684   0.641  0.4575 -0.2170 -0.1344
25220W        W42068   7.101   6.173  13.740 -0.1114  0.2567  0.2253
25221W        W42069  10.705  14.212  17.425 -0.0940 -0.1863 -0.4334
25222W        W42070   0.892   4.578  13.060 -0.0055  0.3564 -0.1649
25223W        W42071   1.496   6.515   5.387 -0.0069  0.1272 -0.1591
25224W        W42072   1.256  15.763  14.874 -0.2033  0.2342 -0.0143
25225W        W42073   4.798   9.416  15.442  0.0384 -0.0585 -0.0488
25226W        W42074   2.310   1.789   5.275 -0.1510  0.0123 -0.0004
25227W        W42075   1.494  16.239   0.246 -0.0929  0.2535 -0.1270
25228W        W42076  14.920  10.725  14.470  0.0760  0.1626 -0.1567
25229W        W42077  11.351  16.585  14.230  0.2013  0.3379 -0.4234
25230W        W42078   9.533  10.006  16.415  0.2885 -0.2660 -0.0322
25231W        W42079   2.756  13.094  17.656  0.2206  0.0555 -0.1107
25232W        W42080  13.067   2.576   1.614  0.1014 -0.1718 -0.3391
25233W        W42081   3.029   7.576   4.989  0.0743 -0.0001  0.0692
25234W        W42082   5.380  14.257   3.888  0.1920 -0.3571  0.0560
25235W        W42083  15.116  15.171  13.675 -0.0499 -0.0753 -0.4789
25236W        W42084   0.353   9.402  15.366  0.0488  0.0489  0.0307
25237W        W42085   1.070   3.217  12.308 -0.0065 -0.2756 -0.0663
25238W        W42086   9.455  10.297   2.541 -0.5103  0.0637  0.0233
25239W        W42087  10.531  13.813  15.999  0.0714  0.3385  0.0769
25240W        W42088  15.616  11.375   3.658  0.0005 -0.2716  0.3087
25241W        W42089  15.820   1.404   4.229 -0.0557  0.2713  0.0862
25242W        W42090  11.235   9.202   1.049  0.0355 -0.5506  0.0179
25243W        W42091   9.086  15.468  17.026 -0.2458  0.0055  0.0962
25244W        W42092  12.277   1.604   4.757 -0.0670  0.0915  0.1026
25245W        W42093  10.322  13.090   3.866 -0.0317 -0.0701 -0.0940
25246W        W42094  12.874   6.031  17.177 -0.1478 -0.1203 -0.0530
25247W        W42095  12.101  14.841   2.060 -0.1397 -0.2031  0.0464
25248W        W42096   8.025  12.491  12.201 -0.0773  0.0087  0.0373
25249W        W42097   1.079   3.017  15.596 -0.0657  0.1604  0.2307
25250W        W42098   7.397  13.932   5.574 -0.1661  0.1160 -0.2747
25251W        W42099   0.043  12.185  13.150  0.2867 -0.1587  0.0943
25252W        W42100   0.193  12.223   1.589 -0.0530  0.2610  0.0432
25253W        W42101   9.683  15.967   0.331 -0.4204 -0.1802 -0.0929
25254W        W42102   1.957   8.064   0.206 -0.0673 -0.1478 -0.1115
25255W        W42103  11.690   9.813  12.806  0.0834  0.2347 -0.2201
25256W        W42104  14.702   9.821   4.110  0.1574 -0.1186 -0.0616
25257W        W42105   5.418   1.210  14.735 -0.1088  0.0857  0.1719
25258W        W42106   0.544  10.447   1.005 -0.1381  0.1225 -0.0311
25259W        W42107   8.944   5.533  13.675  0.1508 -0.2827  0.2048
25260W        W42108  11.271   4.116  15.297 -0.2952 -0.2015  0.0023
25261W        W42109   4.932   8.404   4.858 -0.2315  0.0802  0.0548
25262W        W42110   2.340  11.195   5.535 -0.1844  0.0880 -0.0730
25263W        W42111  12.874  15.633   4.799 -0.0905  0.2485 -0.1349
25264W        W42112   9.597   1.109  12.713  0.1004 -0.1731  0.0496
25265W        W42113   4.697  14.267  15.772 -0.1862  0.0564  0.2055
25266W        W42114   6.961  15.971   1.551 -0.1988 -0.3745 -0.2402
25267W        W42115  15.289  16.222   1.235  0.0846  0.2627 -0.2481
25268W        W42116   9.789  15.354   2.536  0.2559 -0.2229 -0.0960
25269W        W42117  16.915   5.864   0.332  0.1060  0.1249  0.1960
25270W        W42118   4.658   5.514  17.209 -0.2479  0.0177  0.2020
25271W        W42119   0.289  14.818   4.535  0.0725  0.0232 -0.0119
25272W        W42120   7.344   6.381   5.650 -0.0280  0.0300  0.0015
25273W        W42121   4.084  15.289  12.044  0.2073 -0.1641  0.1261
25274W        W42122  11.737   9.665  13.296 -0.0449 -0.2503 -0.4727
25275W        W42123  12.955   6.610   4.030 -0.3491 -0.0710  0.2881
25276W        W42124   3.183   4.439   1.105  0.0820 -0.1445  0.0704
25277W        W42125  13.736   3.572  12.861  0.1508  0.1081 -0.2134
25278W        W42126  16.323   3.702  14.076 -0.0527 -0.2004  0.1365
25279W        W42127   7.904   3.629  11.955 -0.2176  0.0478 -0.0089
25280W        W42128  13.836  10.308  16.616  0.1092  0.1660  0.3041
25281W        W42129   6.814   6.466   1.245 -0.0543  0.1141 -0.1905
25282W        W42130  13.932   6.769   0.610  0.3718  0.0924  0.1023
25283W        W42131   8.386  16.985   4.703  0.1701 -0.1022  0.1318
25284W        W42132  12.322  12.620  13.519  0.1706 -0.2265  0.0293
25285W        W42133  12.302  15.018  12.771 -0.3761  0.0022 -0.1545
25286W        W42134   5.878   1.111  14.552  0.2264 -0.0347  0.1244
25287W        W42135   2.314   1.425   2.253 -0.4187 -0.0746 -0.3497
25288W        W42136   7.420   5.873   4.619 -0.2480 -0.2094 -0.0110
25289W        W42137   1.787   4.049   1.580 -0.1435  0.0151 -0.2133
25290W        W42138   3.329   9.818  17.452  0.1151  0.1082 -0.1066
25291W        W42139  13.452  13.355   0.500 -0.0407  0.0017 -0.0229
25292W        W42140   7.820   7.993  17.044  0.1573  0.3217  0.1953
25293W        W42141   0.094  14.241  12.028  0.0393 -0.2694 -0.2855
25294W        W42142   0.463   0.708   5.685 -0.0439  0.1795  0.0174
25295W        W42143   8.719   1.589  14.620  0.1229  0.0584  0.2600
25296W        W42144   5.019   6.608   3.396  0.1969  0.1688 -0.2183
25297W        W42145  11.124   8.516   4.475 -0.2667  0.2165 -0.0119
25298W        W42146   5.928   6.275  14.963 -0.2674  0.0892  0.0990
25299W        W42147   2.225  11.288  16.863 -0.2026 -0.1552 -0.0003
25300W        W42148  11.491   7.327  14.539  0.2948 -0.0077 -0.0486
25301W        W42149  16.073   0.388   4.731 -0.1211  0.2264 -0.1799
25302W        W42150  16.081   4.949   4.627  0.3602 -0.2031  0.0037
25303W        W42151  11.331  16.432   1.033  0.0905  0.0700  0.1193
25304W        W42152  11.703  15.881   5.623 -0.3037 -0.0637  0.0429
25305W        W42153  11.746   2.585  15.377  0.0956  0.0734  0.1605
25306W        W42154  11.704   7.274  16.740 -0.0995  0.0437 -0.0143
25307W        W42155   2.993  12.533   3.960  0.0939  0.2184 -0.2828
25308W        W42156   2.793  11.478  16.921 -0.0428 -0.3109  0.1572
25309W        W42157  13.534   7.764   4.918  0.2772  0.0021  0.0451
25310W        W42158   1.885   3.682  12.629 -0.0370  0.0725  0.0238
25311W        W42159   8.871  16.230   4.764  0.3423 -0.0621 -0.3522
25312W        W42160   2.629  16.924  13.637 -0.0231 -0.0294  0.1505
25313W        W42161   0.070   0.609   3.819 -0.0136 -0.3197  0.0890
25314W        W42162   1.918   1.652   2.000  0.1236 -0.2629  0.2649
25315W        W42163   3.308   2.679   4.997  0.1081 -0.3690  0.4016
25316W        W42164   8.997  16.583  12.768 -0.0266  0.2377  0.3229
25317W        W42165   5.952  14.934   0.596 -0.2120 -0.0721 -0.2310
25318W        W42166   0.548   4.687   3.949  0.0634  0.0054  0.1270
25319W        W42167  13.375   0.417   2.815 -0.1424 -0.3046 -0.0866
25320W        W42168  10.458  13.009   5.129 -0.2700  0.1480 -0.2885
25321W        W42169   8.717  12.331  17.806  0.4424 -0.0987 -0.1823
25322W        W42170   4.074   9.052  12.230  0.1277  0.0459  0.0935
25323W        W42171   6.163  10.582   1.411  0.2059 -0.2348 -0.0435
25324W        W42172  13.855  10.139  13.741  0.0473 -0.2176  0.1591
25325W        W42173  16.318  14.307  14.558 -0.3845  0.0688  0.3147
25326W        W42174   4.383   8.063   5.504  0.0263 -0.1819  0.3726
25327W        W42175  14.114  12.542   3.989 -0.0987 -0.2080 -0.1336
25328W        W42176  14.026   5.597  16.860  0.2101 -0.0473  0.2327
25329W        W42177   7.615   1.754   0.128  0.3002  0.2373  0.2339
25330W        W42178   8.311   9.512   3.646 -0.4228 -0.1090  0.0012
25331W        W42179   6.547   3.129   3.099  0.2844  0.0866 -0.2237
25332W        W42180   5.731   4.419  13.815 -0.2263  0.0471 -0.1997
25333W        W42181   0.391   9.329  14.629  0.0952  0.2244  0.1145
25334W        W42182   8.220   1.407   3.047 -0.3403 -0.1985  0.3917
25335W        W42183  14.747   8.061   2.510 -0.0771 -0.0203 -0.3212
25336W        W42184  10.665   0.768   1.382  0.2035  0.0889 -0.1451
25337W        W42185  16.280  15.376  13.178  0.0774  0.0561 -0.1401
25338W        W42186   8.806   9.712   4.806  0.0663 -0.2313  0.0666
25339W        W42187   6.904   2.891  11.667 -0.3258  0.0903  0.2003
25340W        W42188   2.975   1.865   3.555 -0.1125 -0.5714  0.0592
25341W        W42189   5.853   9.436  15.696  0.0467 -0.0307  0.1300
25342W        W42190  14.544  13.467  14.146 -0.1846 -0.1736  0.2184
25343W        W42191  13.055  16.697  14.865 -0.1071  0.0638 -0.0076
25344W        W42192   7.928   4.665  16.160  0.0661 -0.0761 -0.0740
25345W        W42193   7.269  10.324   2.923 -0.1010 -0.1749 -0.1486
25346W        W42194   5.667  10.776  13.709 -0.0513 -0.1268 -0.2169
25347W        W42195  15.939  15.600   2.914  0.1536 -0.1720  0.0818
25348W        W42196   3.563  12.382   1.446 -0.0795 -0.1446  0.0060
25349W        W42197   3.876   2.254   3.790  0.0666 -0.0018  0.0142
25350W        W42198  14.094  16.194   5.198 -0.1569 -0.0307 -0.1531
25351W        W42199   9.391   7.612  13.167  0.0038 -0.1936 -0.0750
25352W        W42200  11.696  10.139  14.393 -0.0745 -0.1213 -0.1150
25353W        W42201   5.465   4.780  16.357 -0.0495 -0.0199 -0.2720
25354W        W42202  12.986   8.419   1.182 -0.0106 -0.1279 -0.2634
25355W        W42203   4.118  15.140   1.009 -0.0227 -0.1952  0.1087
25356W        W42204  12.015   4.210   3.709 -0.3366 -0.1235  0.1151
25357W        W42205  11.961   6.549   4.139 -0.1013  0.4179  0.0577
25358W        W42206   9.373   4.001  15.164 -0.0551 -0.1672 -0.3032
25359W        W42207   6.730   0.615  14.722  0.3395 -0.0740  0.3084
25360W        W42208   2.553  14.526   1.275 -0.3074  0.1698 -0.1690
25361W        W42209   1.761   7.074   0.367  0.1982  0.1934  0.1764
25362W        W42210   8.931   3.446  15.611  0.3861  0.1034  0.1048
25363W        W42211  11.740   4.218  17.824  0.0463 -0.2140  0.3195
25364W        W42212   6.116   1.067   2.604  0.0324 -0.2119  0.1769
25365W        W42213   3.341  12.061   2.972 -0.1442 -0.0736 -0.1475
25366W        W42214   4.826  12.970   1.503 -0.0491  0.0564  0.0156
25367W        W42215   6.396  12.791   1.983 -0.0095 -0.1861 -0.0517
25368W        W42216  10.480   6.741  16.649 -0.4006  0.2403  0.3017
25369W        W42217  15.441   3.975  13.753 -0.0356 -0.1131  0.0890
25370W        W42218   1.762  10.534  17.750  0.2297 -0.1656  0.2908
25371W        W42219  15.460  16.621   0.105 -0.2588 -0.1304 -0.3420
25372W        W42220  14.995   7.419   3.902 -0.2299  0.3068 -0.1253
25373W        W42221   4.458   9.074   0.871 -0.0884 -0.1145 -0.0312
25374W        W42222   1.914  14.384   0.494 -0.1806 -0.1216 -0.0467
25375W        W42223   5.622   0.278  12.601 -0.0832  0.0758  0.2409
25376W        W42224   6.185   5.578   5.202  0.0625  0.3744 -0.2073
25377W        W42225   3.402   0.749  12.192  0.1864  0.0327 -0.1498
25378W        W42226   7.485   1.412  14.881  0.1001  0.0499 -0.1415
25379W        W42227   1.346   5.020   4.708 -0.0780  0.1261  0.2221
25380W        W42228  10.958   9.027   4.116 -0.3797  0.3260 -0.0444
25381W        W42229   1.369   5.439  16.957 -0.2205  0.2239  0.0659
25382W        W42230  12.485  14.240  16.997  0.0399 -0.1881 -0.0258
25383W        W42231  13.240   6.465   2.738  0.2480  0.1436 -0.2927
25384W        W42232   0.052   3.913   0.836  0.0875 -0.0314  0.3779
25385W        W42233  10.106   7.970   2.968  0.0305 -0.0299 -0.1028
25386W        W42234   6.032   1.608  15.828  0.2451  0.2100  0.0474
25387W        W42235   1.488   7.399  12.211  0.2002 -0.0140  0.3269
25388W        W42236  15.946   8.528   3.643  0.3259 -0.0394  0.2112
25389W        W42237  11.087   2.117  12.150  0.0356  0.0067  0.0242
25390W        W42238  10.524  10.001   0.204  0.3567 -0.0323  0.1489
25391W        W42239   9.827   5.694  12.552 -0.1728  0.0374  0.0690
25392W        W42240   4.733  15.953   4.137 -0.1125 -0.0572  0.0580
25393W        W42241   7.313   9.654   3.504 -0.5727 -0.2136 -0.0219
25394W        W42242   4.250   5.234   4.210 -0.2177 -0.0250 -0.0152
25395W        W42243  14.973   5.978   4.354 -0.1330  0.0030  0.0922
25396W        W42244   8.348   0.602  16.462  0.1413  0.0958  0.0246
25397W        W42245  13.544  16.890  12.726  0.1860 -0.1204  0.1435
25398W        W42246   3.187   2.303  13.003 -0.1356  0.0103  0.1471
25399W        W42247  16.766   7.759   4.845  0.0545  0.3480 -0.0309
25400W        W42248   9.315   6.972  14.220  0.3017  0.1619  0.1755
25401W        W42249  11.356  10.861   4.219  0.0923  0.1351  0.2637
25402W        W42250   3.754   2.713   5.248 -0.1614 -0.0289 -0.0877
25403W        W42251  13.050   2.545  16.609 -0.1446 -0.0374 -0.1162
25404W        W42252   3.327  12.504  16.750 -0.2662  0.0802  0.0799
25405W        W42253   9.569  13.515   2.007  0.2774  0.3530  0.3678
25406W        W42254   0.003   0.052  17.567 -0.0663  0.0628 -0.5038
25407W        W42255  13.280   9.076   0.039 -0.1914 -0.0658 -0.1007
25408W        W42256  12.689  13.558  14.135  0.2925 -0.3246  0.1262
25409W        W42257   7.808  15.789  10.962 -0.0463 -0.0857  0.2537
25410W        W42258   5.610  12.746  16.516 -0.0846  0.0953  0.1304
25411W        W42259  15.604  13.152   3.466  0.0551  0.0234  0.0951
25412W        W42260  12.412   5.889  14.994  0.1012 -0.3731  0.2683
25413W        W42261  16.331  12.926  13.256 -0.0410  0.5961  0.1673
25414W        W42262  12.138   1.417  17.404  0.3956  0.0465  0.3740
25415W        W42263   6.733  10.025  16.864  0.2408 -0.0903 -0.2919
25416W        W42264   7.010  10.861  12.552  0.2570  0.2520 -0.2367
25417W        W42265  13.122  16.128  14.644  0.1011  0.2425 -0.0952
25418W        W42266  12.709   1.003  14.478  0.1497 -0.0720 -0.0129
25419W        W42267  10.298   3.347  17.508 -0.1212 -0.1501 -0.1356
25420W        W42268  13.804   2.939  14.401 -0.2898  0.2196  0.2053
25421W        W42269  12.954  15.417   2.092  0.0265 -0.1451  0.2377
25422W        W42270   7.764  16.857  14.735 -0.1950 -0.1380 -0.1904
25423W        W42271  12.072  11.867   0.942  0.1729 -0.1336  0.2641
25424W        W42272   0.300   1.171   5.844  0.1469  0.1870  0.0287
25425W        W42273   3.410   9.098   3.175 -0.1689  0.1392 -0.0972
25426W        W42274   3.516  15.898   3.010  0.0680  0.1378 -0.0106
25427W        W42275   5.964   6.309   1.731 -0.0081 -0.3122 -0.0318
25428W        W42276   7.558   1.566   5.611 -0.0905 -0.1181 -0.0677
25429W        W42277   4.724   1.967   4.750 -0.2634  0.4857  0.0019
25430W        W42278   3.093   5.038   3.184 -0.1362  0.0079 -0.0889
25431W        W42279   8.262  10.023  16.736 -0.0084 -0.0900 -0.1374
25432W        W42280   2.501  15.772   1.376 -0.1427 -0.0987  0.0029
25433W        W42281   5.990   0.918  16.064 -0.0369  0.1883  0.1092
25434W        W42282   1.574  10.670   3.612  0.0136 -0.3045  0.0487
25435W        W42283   5.568   3.963  17.673 -0.1835  0.0554  0.3553
25436W        W42284  12.457  14.118   0.082  0.0759 -0.4759  0.0957
25437W        W42285  15.879   0.901  12.684 -0.0077 -0.0410  0.0376
25438W        W42286   0.804   8.565  16.022  0.0055 -0.2902 -0.2747
25439W        W42287  14.345   9.464  17.389  0.2343  0.1193 -0.0224
25440W        W42288   9.859   6.349  13.145  0.2375  0.1864  0.2627
25441W        W42289   3.457   8.237  14.554  0.2137  0.0746 -0.5446
25442W        W42290  13.151   9.664  12.946  0.0907  0.3570  0.0985
25443W        W42291   8.567  11.772   0.777 -0.1746  0.0146  0.0169
25444W        W42292   0.447  12.389   5.181 -0.0290 -0.0629 -0.0290
25445W        W42293  14.741   7.488   2.112  0.2893  0.2164  0.0735
25446W        W42294   1.055   2.823  13.707 -0.2112  0.1400 -0.2358
25447W        W42295   2.522   8.011  14.981 -0.3448 -0.1608 -0.1263
25448W        W42296   5.978  14.854  17.271  0.0776  0.0872  0.4384
25449W        W42297   0.402   6.456   4.767 -0.0916  0.0777 -0.1063
25450W        W42298  16.865   2.113  17.518  0.1086  0.1129  0.1874
25451W        W42299   0.723  12.742   2.560  0.2665 -0.0403 -0.2422
25452W        W42300  10.545   4.666  12.545  0.0018 -0.0590  0.0306
25453W        W42301   5.505  10.985   4.070 -0.1092 -0.0596 -0.0417
25454W        W42302  14.281   8.300   2.352  0.1219  0.0881  0.1023
25455W        W42303   0.597  11.115   2.241 -0.1486 -0.0105 -0.1083
25456W        W42304  15.918  10.571   4.262 -0.0051  0.1725  0.1856
25457W        W42305   7.880  15.579   4.070 -0.1819  0.1835  0.2808
25458W        W42306   6.104   2.658   3.821 -0.0313 -0.0495  0.1090
25459W        W42307   7.615   5.741  14.398  0.1167 -0.0540  0.1689
25460W        W42308   5.718   0.287   2.944  0.0490 -0.0471 -0.2110
25461W        W42309   4.271   4.422  15.054 -0.2311  0.2206 -0.1779
25462W        W42310   7.169  15.457   3.220 -0.1000  0.0110 -0.1262
25463W        W42311   3.658  14.555   1.996  0.3034  0.1448 -0.0651
25464W        W42312  12.435   3.683   0.252  0.0285 -0.2416  0.0396
25465W        W42313  10.299  16.819  13.158 -0.3381 -0.0079  0.1071
25466W        W42314  15.573   9.098   1.960  0.1706 -0.0156  0.0727
25467W        W42315   5.510   7.069  16.209  0.0554 -0.0528 -0.4279
25468W        W42316   9.320   2.819   3.052  0.1270  0.2243  0.1079
25469W        W42317   4.540   1.178  14.812 -0.0248  0.2269  0.0716
25470W        W42318  11.498   0.444  13.498  0.1149  0.1059  0.0562
25471W        W42319   9.677   5.233   5.024  0.0345  0.0438  0.2150
25472W        W42320  13.141  15.616   1.659 -0.1745 -0.0562  0.2722
25473W        W42321  10.346  10.036  16.400 -0.1374  0.0703 -0.0187
25474W        W42322   6.594  11.336  12.994  0.1493 -0.0606 -0.2718
25475W        W42323  11.134  12.733  15.856 -0.1203 -0.2267 -0.0225
25476W        W42324  13.131  12.901   2.497 -0.0753 -0.1812 -0.4580
25477W        W42325  13.154  10.259   1.922 -0.1560 -0.2211 -0.0386
25478W        W42326  16.863  14.118   1.837 -0.0502  0.0521  0.1097
25479W        W42327   8.641   9.813  14.334 -0.1532  0.3241  0.0729
25480W        W42328  11.450   7.691   4.573 -0.0417 -0.0534  0.0025
25481W        W42329  15.024   9.128  17.794 -0.2056  0.0186  0.0587
25482W        W42330   3.883   8.770   2.752 -0.1636 -0.2145 -0.0483
25483W        W42331  13.202  11.751  12.878  0.1887 -0.0805 -0.2124
25484W        W42332  11.954  12.250  13.663 -0.0995 -0.0582  0.0564
25485W        W42333   1.794   7.601  15.227  0.5577 -0.0604 -0.1022
25486W        W42334   5.206  15.623   0.421 -0.1760  0.0032 -0.0669
25487W        W42335   7.174  10.594   0.499  0.1288 -0.1695 -0.0636
25488W        W42336   3.652  15.043  12.534 -0.1014 -0.0437  0.0059
25489W        W42337   2.738  14.602   3.286 -0.1366 -0.0791 -0.0182
25490W        W42338   5.110   1.889   5.339 -0.0127 -0.0746  0.1101
25491W        W42339  10.316  10.350   0.557 -0.1493  0.2960 -0.1700
25492W        W42340  14.287  15.152  14.182 -0.2621 -0.1550 -0.1511
25493W        W42341   4.306  12.707  12.992  0.2198 -0.2004  0.0990
25494W        W42342   1.537   0.451   4.927  0.0281  0.2958 -0.1035
25495W        W42343   2.818  13.271   0.915  0.3450  0.1344 -0.0352
25496W        W42344   9.327   0.059   1.038  0.1993 -0.0824 -0.0009
25497W        W42345  10.113   1.962   5.151  0.2718  0.1734  0.3053
25498W        W42346  11.118  11.516   5.311 -0.0451  0.0219  0.1530
25499W        W42347   8.085   2.438   2.741 -0.1764 -0.1338  0.1469
25500W        W42348   9.910   1.822  17.581  0.1403 -0.1366  0.0485
25501W        W42349  12.573  15.158   3.946 -0.1072  0.1249  0.0362
25502W        W42350  13.745  16.100   3.410 -0.1655  0.1508  0.1644
25503W        W42351   9.462   9.094   3.056  0.1436 -0.1003 -0.2025
25504W        W42352  15.191  10.413  14.210 -0.1445 -0.0495 -0.1102
25505W        W42353  16.388  11.180  16.279 -0.2345  0.0117 -0.0115
25506W        W42354   4.280   6.717   1.889 -0.1685  0.1128 -0.0478
25507W        W42355   9.075  13.535   1.184  0.3406  0.0688 -0.0551
25508W        W42356   9.047  13.056   1.083  0.0571  0.0966 -0.0902
25509W        W42357   5.061   8.652  13.213  0.0457  0.1168  0.3474
25510W        W42358   2.669  15.729  13.715  0.1691  0.2389 -0.1288
25511W        W42359   4.145  15.719  13.191 -0.1201  0.1692 -0.1675
25512W        W42360   3.754  15.577  16.350 -0.0226  0.4507  0.1176
25513W        W42361   9.912  14.021  15.830 -0.0538 -0.0224 -0.0402
25514W        W42362  10.685   5.163  16.588  0.1097  0.0305  0.1923
25515W        W42363  10.771   8.788  14.736  0.0593  0.1571  0.1318
25516W        W42364  14.458   5.997   3.868 -0.0009  0.2836 -0.1747
25517W        W42365   4.365   2.116  17.012  0.2464 -0.0211  0.1302
25518W        W42366   0.660  10.408   4.194  0.2040  0.1878  0.1594
25519W        W42367  16.678  12.005   5.222  0.4394  0.2133  0.1896
25520W        W42368  15.523   9.416   5.165  0.1390  0.0638  0.2845
25521W        W42369   7.061   0.720  15.128 -0.3529 -0.0962 -0.0224
25522W        W42370  15.728  15.412  12.907  0.0433 -0.0771  0.0646
25523W        W42371  12.406  10.263   6.638  0.1833  0.0632  0.0329
25524W        W42372  10.316   4.604   0.282  0.2528  0.2084 -0.1207
25525W        W42373  13.870   8.569  15.740 -0.2290 -0.1209 -0.1193
25526W        W42374   0.282   4.861   5.379 -0.1134  0.2064  0.1966
25527W        W42375   1.470  14.684   2.794  0.0596 -0.2645 -0.0260
25528W        W42376  16.329   9.015   6.094  0.1037  0.6100  0.0817
25529W        W42377   2.270   3.842  13.370 -0.3432  0.0367 -0.0278
25530W        W42378  10.874  16.720   3.121 -0.0444 -0.5405  0.0589
25531W        W42379  12.516   3.062  11.254  0.1249  0.0762  0.1280
25532W        W42380   6.541   1.661  15.632  0.2582 -0.3639  0.1217
25533W        W42381   9.787  13.855  13.896  0.1587  0.1571  0.0694
25534W        W42382  16.263   5.936   3.487 -0.1189 -0.0445 -0.3078
25535W        W42383  16.473  16.433  13.744  0.0892  0.1772  0.2471
25536W        W42384  10.785  11.928  13.935 -0.2254  0.1803  0.0949
25537W        W42385  16.638  11.312  14.780 -0.2791 -0.1015 -0.0321
25538W        W42386   3.116  11.985  15.383 -0.0285 -0.2575  0.0459
25539W        W42387   5.095   5.995  13.097  0.0160  0.0158  0.1442
25540W        W42388   9.860   8.643   4.384 -0.2170  0.0888  0.1601
25541W        W42389  16.198   8.979   3.217  0.1168  0.0804  0.2225
25542W        W42390   7.253   9.528  17.617 -0.0335 -0.0766 -0.0349
25543W        W42391   9.279  16.076   2.152 -0.0961 -0.0072  0.0010
25544W        W42392   2.890   3.282   1.696  0.0421 -0.1875  0.1238
25545W        W42393  13.041   6.683  14.105 -0.1474 -0.2715 -0.1556
25546W        W42394  12.505   4.586  16.169  0.1381  0.2034  0.0958
25547W        W42395   6.759   9.083   1.275 -0.0297  0.1413  0.0283
25548W        W42396   3.117   1.542  14.477 -0.1986 -0.1033  0.0379
25549W        W42397   5.324   6.439  15.762 -0.2224  0.4734 -0.2878
25550W        W42398   8.297   4.696   5.166 -0.2468  0.1485  0.0405
25551W        W42399   2.338   6.564   4.934  0.0651 -0.3933 -0.1511
25552W        W42400   9.334  13.910  13.015 -0.1981 -0.0175 -0.0418
25553W        W42401   1.841   9.335  13.048  0.0059  0.1064 -0.4062
25554W        W42402   0.298  16.488  13.172 -0.1342 -0.2538  0.0078
25555W        W42403  13.619   1.675  17.525  0.2605  0.0733 -0.0534
25556W        W42404   3.960   4.125  17.545 -0.0452  0.1176  0.1246
25557W        W42405   3.852   7.779   4.525  0.0777 -0.3511 -0.3777
25558W        W42406  16.224  16.631  17.455 -0.2656  0.1593 -0.0176
25559W        W42407   6.928   1.856  11.760  0.0633 -0.1104  0.2293
25560W        W42408   6.746   3.967  14.402  0.2714  0.1357 -0.0167
25561W        W42409   7.616  13.809   3.194  0.0343  0.0387  0.1557
25562W        W42410   7.023  14.062   5.204 -0.4000  0.0109 -0.0159
25563W        W42411   5.306  15.186   0.210 -0.2260 -0.3710 -0.4419
25564W        W42412   2.053  15.400   5.150  0.0953 -0.0118 -0.1817
25565W        W42413  16.483   3.387   1.114  0.1130  0.0456 -0.1217
25566W        W42414   9.983   5.138  12.507  0.0107 -0.4063  0.0327
25567W        W42415   7.710   3.431   0.961  0.1395  0.1308 -0.0520
25568W        W42416  12.097   1.047  14.632 -0.0538 -0.0686 -0.0580
25569W        W42417  10.769   6.034  17.054 -0.0130 -0.3903  0.1086
25570W        W42418   5.523  11.913  16.935 -0.0030  0.0516  0.2326
25571W        W42419  12.945  15.532   4.007 -0.0620 -0.0147 -0.0901
25572W        W42420   4.438  15.600   5.255  0.0907 -0.1888  0.0787
25573W        W42421  11.778  11.213   1.695 -0.1859  0.1803 -0.3170
25574W        W42422   4.193   8.263   3.396  0.0530  0.0618 -0.1121
25575W        W42423   0.051   8.250  13.107 -0.1877 -0.0000  0.0036
25576W        W42424   9.814   2.621   2.169  0.0660  0.1169 -0.4983
25577W        W42425  11.072  14.636  13.026 -0.2234  0.1439 -0.0296
25578W        W42426   6.451  13.820   1.211  0.0406  0.3145  0.1523
25579W        W42427   7.141  14.766  13.058  0.1379  0.1552  0.1517
25580W        W42428  16.957   0.515  14.963  0.2387  0.1114  0.0750
25581W        W42429   2.013  14.373  12.792  0.0932 -0.0106  0.2167
25582W        W42430   0.913  13.599  16.632 -0.0262 -0.1332 -0.1372
25583W        W42431   6.465   7.350   5.311 -0.1108  0.0071 -0.0482
25584W        W42432   2.454   1.412  15.448 -0.0521  0.2278  0.1370
25585W        W42433  11.375  13.755  13.187  0.1240  0.1804  0.0600
25586W        W42434   7.165  12.936   0.948  0.0511  0.0902 -0.1821
25587W        W42435   4.862  16.745  16.937 -0.1779 -0.1245  0.0581
25588W        W42436   0.850  13.745  13.951 -0.0068 -0.1221  0.0595
25589W        W42437  10.568  16.633   2.207  0.0934 -0.1046  0.2303
25590W        W42438   2.564  14.393  13.479 -0.3624  0.0931  0.3199
25591W        W42439  12.836   2.114  16.368  0.1754  0.0326  0.1189
25592W        W42440   0.396  13.406   3.412 -0.0107  0.2123 -0.2123
25593W        W42441   4.828   5.811   3.649  0.2517  0.3021 -0.1315
25594W        W42442   0.429  15.480  17.654  0.3197  0.3053  0.2956
25595W        W42443   8.431  10.125   5.713  0.0387 -0.1043 -0.0085
25596W        W42444   9.067   0.287  12.420 -0.0238 -0.0563  0.1813
25597W        W42445  12.554  13.203   0.768 -0.0685 -0.0101  0.0430
25598W        W42446  10.701   8.717   4.333 -0.1519  0.0404  0.0604
25599W        W42447   6.632   6.311  15.588 -0.1238 -0.0791  0.0768
25600W        W42448  11.823   9.197   1.653 -0.0597  0.1009  0.1275
25601W        W42449   8.921  15.198   1.857 -0.0016 -0.1116 -0.1644
25602W        W42450   4.901  14.971  13.478  0.0751 -0.0544  0.0601
25603W        W42451  16.275  15.456   3.910 -0.2396  0.0308  0.0458
25604W        W42452   0.884   6.131   2.081  0.0782  0.1153 -0.0438
25605W        W42453  16.980  12.934  13.492  0.2122  0.2277  0.1159
25606W        W42454   3.977   8.329  16.050 -0.1006 -0.0407 -0.1336
25607W        W42455   2.638  11.035  11.391 -0.3335  0.2352  0.4478
25608W        W42456   5.890   5.140  17.783 -0.2183 -0.1487 -0.0226
25609W        W42457  11.030   6.124  16.481 -0.0900 -0.0009 -0.0780
25610W        W42458  12.832   6.266   3.098 -0.0243  0.4389 -0.0260
25611W        W42459  12.661   4.058   3.609  0.1726  0.4076 -0.0225
25612W        W42460  11.307  11.033  13.271 -0.0214  0.3019 -0.0858
25613W        W42461   2.975   0.448   3.389 -0.0837  0.3928 -0.0696
25614W        W42462   9.502  17.019  17.094  0.1457  0.1286 -0.1131
25615W        W42463  13.570   3.588  11.791 -0.1090 -0.1034 -0.0147
25616W        W42464   2.959   4.478   2.314  0.0026 -0.0317  0.2239
25617W        W42465  11.852   9.186   0.410  0.4540 -0.2331  0.1019
25618W        W42466   0.922   8.817   1.676 -0.0178  0.0033 -0.0538
25619W        W42467   5.373   9.403  11.443  0.0465  0.0687  0.0660
25620W        W42468   1.295  15.388  16.654 -0.0152  0.0444  0.4982
25621W        W42469   5.301  12.057   6.831 -0.1597 -0.0341  0.0554
25622W        W42470   5.378  11.591   1.644 -0.0364 -0.1223 -0.4077
25623W        W42471   9.645   2.090  13.726  0.2236 -0.1255 -0.2202
25624W        W42472   0.755  12.023   1.188 -0.2915 -0.0843 -0.1529
25625W        W42473   1.383  14.869  12.834  0.1203  0.6529  0.0537
25626W        W42474  10.922   1.908   0.429  0.1073 -0.0129  0.1417
25627W        W42475  12.395  10.734  12.954  0.0297  0.0620 -0.0677
25628W        W42476  14.150   7.391  13.479  0.0675 -0.0065 -0.3770
25629W        W42477  11.804  16.451  14.414  0.1030  0.1288 -0.2132
25630W        W42478   4.828  14.071   0.472 -0.0543 -0.0695 -0.2513
25631W        W42479  16.189   3.804   1.896  0.1381 -0.2343  0.4845
25632W        W42480   6.519   6.656  14.243 -0.0613  0.0984 -0.2615
25633W        W42481   5.572  16.378  15.265 -0.1511  0.2302 -0.2470
25634W        W42482   7.201  15.146   4.797  0.0193 -0.3932 -0.1573
25635W        W42483  15.860  12.527   5.702  0.1839  0.1550 -0.0410
25636W        W42484   6.335   9.413   2.941  0.1791 -0.1829  0.3095
25637W        W42485   9.525  13.050   2.249 -0.2318 -0.0500  0.0376
25638W        W42486  11.468   8.508   0.991  0.1814  0.0414  0.3470
25639W        W42487  11.674   3.117   4.746  0.1954  0.1887  0.2518
25640W        W42488   9.156  14.567   4.015  0.0735  0.3441  0.0338
25641W        W42489  14.825  11.729  13.135  0.1662 -0.1529  0.2078
25642W        W42490   3.871   1.835  15.113  0.0287  0.1364  0.0955
25643W        W42491  10.209   7.288   3.770 -0.0183 -0.0319 -0.1673
25644W        W42492  14.720  15.497  13.922  0.4124 -0.1091  0.1976
25645W        W42493  16.563   0.204   4.872  0.0718  0.1389  0.1688
25646W        W42494   8.209   0.359   4.980 -0.1800 -0.1598  0.1837
25647W        W42495   0.364   8.086   4.208  0.1437  0.1251 -0.0086
25648W        W42496   6.771   9.521   4.585 -0.1488 -0.2542  0.0510
25649W        W42497  13.510   8.522   5.601  0.1660  0.0965  0.2505
25650W        W42498  12.672  15.156   3.024 -0.3029  0.0718 -0.3042
25651W        W42499   4.452  16.685  13.115  0.0402 -0.2243 -0.2086
25652W        W42500   2.044   6.807  14.805  0.1201  0.1202  0.1100
25653W        W42501  13.109   1.797   2.371 -0.0931  0.1073 -0.0264
25654W        W42502  13.366   2.457   4.589 -0.1543 -0.1054 -0.1986
25655W        W42503   1.055   3.451  14.188  0.1150 -0.2013  0.2892
25656W        W42504   3.478   0.854   1.002  0.1796  0.0955  0.0976
25657W        W42505   0.613   0.652  13.696 -0.0783 -0.2001 -0.0632
25658W        W42506   8.582   7.039  12.585 -0.1813 -0.1856 -0.0507
25659W        W42507   0.671  10.055  13.608 -0.3009 -0.0813 -0.1445
25660W        W42508  15.337  11.208   0.721 -0.3612  0.3888 -0.0144
25661W        W42509  12.187  16.601  14.940  0.0951  0.0060  0.1540
25662W        W42510   6.289   8.530  12.248 -0.1109  0.1743 -0.2034
25663W        W42511   9.938  12.366   3.096 -0.0790  0.0561  0.2714
25664W        W42512  15.490  13.146   0.990 -0.0506 -0.0703 -0.2368
25665W        W42513   0.905   0.098   3.145  0.1042 -0.3019  0.1493
25666W        W42514  14.620  13.102  16.752  0.2873  0.3867 -0.1270
25667W        W42515   6.374  16.106  13.900 -0.1412  0.1979  0.1950
25668W        W42516   5.217   3.309  13.290 -0.0711  0.0109 -0.0060
25669W        W42517   6.595   0.648  16.764  0.0323  0.0798  0.2210
25670W        W42518   4.292  10.752  11.848  0.2605  0.2657  0.0411
25671W        W42519   9.536  13.197  16.522  0.1792  0.0242  0.1154
25672W        W42520   0.685   1.727   4.738  0.0894 -0.2642  0.1726
25673W        W42521   0.318  10.600  12.534  0.0577  0.1103 -0.0437
25674W        W42522   9.971  11.228  14.725 -0.1938  0.2528 -0.1934
25675W        W42523  12.053   6.086  16.336  0.1851 -0.2530  0.0052
25676W        W42524  15.880  10.036  15.342 -0.3390 -0.1284  0.1205
25677W        W42525   3.686   2.000   5.042  0.0853  0.0497  0.0936
25678W        W42526  10.701   1.838  11.283 -0.1053 -0.3921 -0.3869
25679W        W42527  16.343   3.871  13.273 -0.0636 -0.0329  0.1932
25680W        W42528  11.924   5.124  14.670  0.2750  0.2223  0.0850
25681W        W42529  13.115   7.937  17.308 -0.3757  0.2035 -0.1943
25682W        W42530   1.795   4.165  16.243 -0.3305 -0.1329 -0.3169
25683W        W42531   9.947   1.710  17.116 -0.2253  0.1082  0.1203
25684W        W42532  14.855   4.463  15.460 -0.1395 -0.1381 -0.2856
25685W        W42533   6.343   2.120  12.778  0.0799  0.1057 -0.3306
25686W        W42534  10.178  15.806   0.217  0.0356 -0.2336  0.0571
25687W        W42535  10.630  16.263   3.493  0.3572 -0.0748  0.1018
25688W        W42536  11.930  10.584   0.216  0.1374 -0.4085  0.1831
25689W        W42537   3.897   6.128  14.771  0.2071 -0.0364 -0.1574
25690W        W42538  12.713   2.910  17.535 -0.0157 -0.0111 -0.0307
25691W        W42539  16.836  13.446  14.800  0.2395 -0.1973 -0.0571
25692W        W42540   6.819  10.247   3.019  0.1086  0.1310 -0.0673
25693W        W42541   3.038  12.480   2.705 -0.0182  0.2560 -0.0543
25694W        W42542   3.083   9.789   3.649 -0.2297 -0.2035 -0.2544
25695W        W42543   5.935   4.390   5.170  0.1055 -0.1362 -0.0230
25696W        W42544   7.723   8.488   1.860 -0.1959  0.0108  0.0132
25697W        W42545   9.632   0.009  15.045  0.1714  0.0213  0.0149
25698W        W42546   8.221  11.679  13.000  0.0661  0.2635  0.1748
25699W        W42547  12.780  12.175  12.372 -0.1844 -0.1322  0.0240
25700W        W42548  16.019  10.206  12.959 -0.3367 -0.1395  0.0962
25701W        W42549   4.270   0.378  11.781  0.2890 -0.0666  0.1421
25702W        W42550  13.890   9.023  14.009 -0.1775 -0.4358  0.0292
25703W        W42551  11.595   4.837  16.808 -0.1637 -0.1027 -0.0277
25704W        W42552  14.781   1.609  12.072  0.1602 -0.0811 -0.2007
25705W        W42553  10.078   1.971  13.998 -0.1394 -0.1694 -0.0216
25706W        W42554   4.800  15.100   0.269  0.0821 -0.0348 -0.1311
25707W        W42555   5.560   8.228   0.599  0.1124  0.0753  0.1988
25708W        W42556  12.808   0.382   2.974 -0.0703 -0.2524  0.2955
25709W        W42557  12.305  15.155  16.383 -0.4333  0.0669  0.2219
25710W        W42558   8.749  16.808   5.484 -0.2721  0.1161  0.1716
25711W        W42559   1.499   1.824   1.165 -0.0811 -0.1576 -0.0781
25712W        W42560   3.634   1.553  16.657  0.1438 -0.1926 -0.0890
25713W        W42561  11.827   8.213   5.949  0.1348  0.2406  0.2045
25714W        W42562   6.894   6.299   0.717 -0.1062  0.0783 -0.1785
25715W        W42563   4.090   7.203  17.845  0.0499  0.0011  0.0820
25716W        W42564   2.645   5.650   1.353  0.0200  0.0183 -0.0051
25717W        W42565  13.848   7.155  11.905  0.1984 -0.1063  0.1074
25718W        W42566  10.748   5.870  14.897 -0.0754  0.0094  0.0671
25719W        W42567  12.163   3.602  12.847  0.1134  0.1581  0.1447
25720W        W42568   3.234  16.266   4.052 -0.1468 -0.2065 -0.2210
25721W        W42569   9.768  10.381  14.712 -0.3323 -0.0610  0.2384
25722W        W42570  16.403  15.459  15.355 -0.2256 -0.1894  0.1590
25723W        W42571  16.725   9.098   3.188  0.0700  0.0604  0.2673
25724W        W42572  16.322   0.584  12.890 -0.2202  0.0736 -0.1657
25725W        W42573  10.532  11.476   5.873 -0.2081 -0.0703 -0.0192
25726W        W42574  11.046   2.790  13.547  0.1600 -0.0896  0.0657
25727W        W42575   4.722  10.527   2.893  0.0663 -0.1855 -0.0268
25728W        W42576  10.040  16.565   1.168 -0.0471 -0.0933 -0.0726
25729W        W42577  11.105   2.501   6.092  0.2917  0.1093 -0.0567
25730W        W42578   0.573   8.682  17.427  0.1877  0.2025  0.1004
25731W        W42579   4.799   0.957   3.550 -0.2791  0.1676 -0.1604
25732W        W42580   1.630  10.366  13.924  0.2437 -0.2163  0.1093
25733W        W42581  11.589   5.307   3.575 -0.0352  0.1943 -0.2086
25734W        W42582  10.632  16.441  16.104 -0.0064 -0.0470  0.0243
25735W        W42583  10.171   9.664  13.517  0.1397  0.1953 -0.3881
25736W        W42584   9.242  13.266  15.503  0.0608 -0.1411 -0.0108
25737W        W42585  11.521   0.647   2.766  0.0451 -0.0295 -0.1929
25738W        W42586   4.324   0.333   5.068 -0.2428  0.1354  0.0377
25739W        W42587  10.664   3.403  15.918  0.0679 -0.3164 -0.4066
25740W        W42588   4.526   1.929  13.022  0.1196  0.3963 -0.0233
25741W        W42589  11.446  13.665   3.812  0.2998  0.1219  0.0292
25742W        W42590   2.485  14.981   3.046 -0.0922 -0.2127  0.3973
25743W        W42591   2.802   6.595  16.521  0.0570  0.0044  0.1138
25744W        W42592  10.245   5.121   5.123 -0.0411  0.1100  0.0561
25745W        W42593   2.245   8.556   1.875  0.0297  0.1475 -0.0574
25746W        W42594  10.351   7.001  17.213 -0.0369  0.0311 -0.4059
25747W        W42595  14.565   7.726  14.667 -0.1574 -0.1906 -0.0648
25748W        W42596   0.624   3.736  15.653  0.1692  0.1665 -0.2294
25749W        W42597  14.426   9.127  12.915 -0.1187 -0.0230  0.0610
25750W        W42598  14.274  16.678  17.791  0.1916  0.1137 -0.0070
25751W        W42599  15.780  16.326  14.957  0.1144  0.0268  0.1005
25752W        W42600  10.006   5.627  13.010  0.0136 -0.1158  0.0383
25753W        W42601   2.162   0.307   5.433 -0.0376  0.0846  0.0528
25754W        W42602  11.366   5.697  15.677 -0.2796 -0.0082 -0.0295
25755W        W42603  14.786   8.111  14.815  0.1200 -0.0556 -0.2306
25756W        W42604   0.865  16.991   4.285 -0.1859  0.0361 -0.1017
25757W        W42605   8.000  11.739  16.166  0.1268  0.0822 -0.0752
25758W        W42606  14.666   7.613  16.810 -0.1166 -0.3217  0.0211
25759W        W42607  17.027   9.539   0.578  0.0523 -0.1809  0.0664
25760W        W42608   1.475   5.565  15.124  0.2044  0.1267 -0.0935
25761W        W42609  14.561  12.202   3.829  0.0818 -0.1179 -0.2772
25762W        W42610  11.093   5.988   0.223 -0.0735  0.2573  0.0385
25763W        W42611   9.355  15.579  14.283  0.0799  0.0864 -0.0184
25764W        W42612   3.422  12.631   4.206  0.1721  0.0749  0.3156
25765W        W42613   3.546  11.794  12.714  0.3744 -0.1678 -0.0163
25766W        W42614   0.638   3.109   2.883  0.1922 -0.0575 -0.1290
25767W        W42615  11.845   1.159   0.349 -0.1625  0.1212 -0.0453
25768W        W42616   4.290   3.261  15.200 -0.0065  0.0513 -0.1207
25769W        W42617   2.218  14.970  14.897  0.2057 -0.1609 -0.2835
25770W        W42618   8.655  11.313  16.383  0.2001 -0.0203  0.1452
25771W        W42619   7.488   1.190  15.579  0.0294  0.0091  0.1156
25772W        W42620   5.959   3.472  14.377 -0.0283 -0.0001 -0.0378
25773W        W42621   0.864  11.016  13.013 -0.3756  0.1040  0.3618
25774W        W42622   3.006   3.439  14.855 -0.0464 -0.1648 -0.0783
25775W        W42623  12.776   4.045   0.081  0.0428  0.0387  0.1189
25776W        W42624   3.466   9.884   0.566 -0.0671  0.0565  0.2949
25777W        W42625   6.428   7.808   1.513  0.0932 -0.2696  0.1875
25778W        W42626   9.421  14.197  14.058  0.2538  0.0102 -0.1868
25779W        W42627  12.074   1.031  16.978 -0.2372 -0.0012 -0.0657
25780W        W42628   2.095   3.809   4.674 -0.0939 -0.1700  0.0355
25781W        W42629   8.101  15.359  16.122 -0.3881 -0.0768 -0.0129
25782W        W42630   2.829   6.389  11.483 -0.0837  0.2866  0.1945
25783W        W42631   8.595   9.106   1.346 -0.2853 -0.0636  0.1948
25784W        W42632   4.903  12.949  12.029  0.2755  0.1074  0.2116
25785W        W42633   5.398  10.912  13.294  0.0272 -0.2573  0.1316
25786W        W42634  10.900  14.435  12.532  0.0198 -0.1370  0.3385
25787W        W42635   5.894   2.348   2.767 -0.4372  0.0948  0.2348
25788W        W42636   4.769   6.373   4.729 -0.1252  0.2936 -0.1242
25789W        W42637   0.750  12.928   0.105  0.0057  0.1518 -0.1824
25790W        W42638  16.004   9.506  16.409 -0.1352 -0.0510 -0.3852
25791W        W42639   6.609   6.009   1.168 -0.0251 -0.1462 -0.3875
25792W        W42640  12.495   8.613  16.955  0.2117 -0.1244  0.0950
25793W        W42641   7.980   9.973  13.808  0.2208 -0.3241 -0.0273
25794W        W42642  14.625  13.449   3.645 -0.0601  0.0718  0.0253
25795W        W42643  13.012  12.025   0.855  0.2903 -0.1229 -0.0146
25796W        W42644   5.553   4.718  17.342  0.0061 -0.1898 -0.1635
25797W        W42645   7.501   1.131   2.044  0.1228 -0.0105  0.0857
25798W        W42646   0.439  13.929  14.784 -0.0530  0.3840  0.0240
25799W        W42647  14.555   0.523   5.431 -0.0475 -0.2090  0.2733
25800W        W42648   7.501   8.830  17.227 -0.0907  0.2258  0.0835
25801W        W42649  15.859  14.869   2.450 -0.2846 -0.2079 -0.1481
25802W        W42650  14.720  13.089   4.205 -0.0131  0.0515 -0.1167
25803W        W42651  10.513  10.408   2.285  0.0113 -0.0198  0.0484
25804W        W42652  12.314   5.667   6.496  0.2737  0.3553  0.0158
25805W        W42653   4.522  10.720   5.264 -0.1759  0.0175  0.1933
25806W        W42654   5.958   1.481   5.260 -0.1181 -0.1349 -0.0827
25807W        W42655   4.610  13.538  14.990  0.0838  0.0449 -0.0221
25808W        W42656   5.158  11.722  14.629 -0.2498  0.2528 -0.0881
25809W        W42657   8.945  11.606   5.284 -0.4905 -0.0316  0.2743
25810W        W42658  16.331   2.269   2.045 -0.0773  0.1922  0.1106
25811W        W42659   7.996   2.859  12.399 -0.3459 -0.2217 -0.1914
25812W        W42660   2.083  14.281   1.344 -0.0923 -0.1432 -0.3105
25813W        W42661  11.108   6.626   3.683  0.3111  0.1534 -0.2664
25814W        W42662   9.193   4.864   3.598 -0.0570 -0.1157 -0.0001
25815W        W42663  13.088   5.479  16.902  0.0684 -0.0270  0.1875
25816W        W42664  14.395   6.373   2.198 -0.0008  0.0651 -0.2603
25817W        W42665   7.622   5.368  16.796  0.0235  0.1526 -0.0826
25818W        W42666  12.713   3.478  11.359  0.1693 -0.2180 -0.0414
25819W        W42667   6.230   7.609   1.970 -0.0727  0.1028 -0.0211
25820W        W42668  13.962  17.025   2.316 -0.1820  0.3733 -0.0517
25821W        W42669  11.828   6.516   0.127 -0.1645 -0.0263 -0.0041
25822W        W42670   5.416   2.535   2.930 -0.2150 -0.0048  0.0074
25823W        W42671  12.336  12.606   3.403 -0.1118  0.0060  0.0395
25824W        W42672  11.542  16.486   3.682 -0.3765 -0.0387  0.0976
25825W        W42673   5.625  15.073   4.722  0.0578 -0.0874 -0.0763
25826W        W42674  16.068   2.498   1.702  0.2099  0.0160  0.0157
25827W        W42675   3.765   3.763   2.258  0.2988 -0.0416 -0.2761
25828W        W42676   4.995  11.325   5.583 -0.0201  0.0019  0.0208
25829W        W42677   3.610   1.067   5.326 -0.0889  0.1315 -0.0524
25830W        W42678   6.164  11.642  15.716  0.0633  0.0318  0.1847
25831W        W42679   9.362   5.309  16.035  0.0254  0.0940  0.0569
25832W        W42680   2.173   7.872   5.589  0.1864 -0.0434  0.2569
25833W        W42681   0.111  13.420  17.327 -0.1312 -0.2740 -0.2979
25834W        W42682  11.303   2.189   3.017 -0.5805 -0.1310 -0.0245
25835W        W42683  12.249  16.985  17.414  0.3235 -0.1196  0.0800
25836W        W42684   3.808   7.355  13.702 -0.0028  0.2451 -0.1592
25837W        W42685  13.275   4.062   0.576 -0.0070 -0.1624 -0.0071
25838W        W42686   6.053   1.295   0.126  0.0577  0.0666  0.0882
25839W        W42687  14.915   2.765  14.463  0.1548 -0.2033  0.0625
25840W        W42688  13.716   6.673  14.933  0.1781 -0.1198  0.2881
25841W        W42689   2.148   8.550  16.382 -0.0115 -0.3104 -0.1078
25842W        W42690  12.082  16.975  13.516  0.0360  0.1172 -0.1486
25843W        W42691   4.357   3.914   5.913 -0.2982  0.1923 -0.0234
25844W        W42692  14.564   7.543  15.205 -0.1645  0.1261 -0.0734
25845W        W42693   6.967   1.900   3.110 -0.1271  0.1058  0.6050
25846W        W42694  14.627  14.645  12.676 -0.1079  0.0358 -0.1277
25847W        W42695  13.008  11.151   5.735 -0.2503  0.0633  0.5731
25848W        W42696   7.116   9.193  15.785 -0.4262 -0.0178 -0.0871
25849W        W42697  14.882  11.718   2.038  0.2648  0.1926 -0.0472
25850W        W42698  12.454   4.062  14.044 -0.2809 -0.1767 -0.0982
25851W        W42699   1.724  11.394   5.040 -0.1533  0.5363  0.0277
25852W        W42700   8.176   4.129  12.784 -0.0828  0.3660 -0.2080
25853W        W42701  11.358   1.384  14.217  0.1954  0.3394 -0.1352
25854W        W42702   8.678  13.976   1.343 -0.1349 -0.1559  0.0889
25855W        W42703   7.161   8.563  15.857  0.0558  0.0756 -0.0700
25856W        W42704  16.179  11.375   4.432  0.0847  0.0316  0.0487
25857W        W42705  16.707  10.394   2.632 -0.2200  0.0034  0.1305
25858W        W42706  14.556  10.304   2.655 -0.0474  0.2159  0.3466
25859W        W42707   6.566   6.214   1.692 -0.0620  0.0805  0.3208
25860W        W42708   2.252  13.245   2.896 -0.1134 -0.3715 -0.0014
25861W        W42709   8.163  14.511  13.501  0.1713  0.1484 -0.1060
25862W        W42710   5.055  15.054   3.561  0.2464 -0.1794 -0.0133
25863W        W42711   5.902  16.116   5.355 -0.1514  0.0575  0.1163
25864W        W42712   2.947  10.798  17.383  0.2443 -0.0034 -0.3671
25865W        W42713   6.259  11.596  13.843  0.4585 -0.1287 -0.4130
25866W        W42714   2.589   3.101  17.285 -0.0967  0.0810 -0.1486
25867W        W42715   0.521   0.361   0.564 -0.0205 -0.0150  0.0609
25868W        W42716   7.161  14.973  16.057  0.0667  0.1799 -0.1380
25869W        W42717   5.083  13.223  15.713 -0.0755 -0.1063  0.3416
25870W        W42718  13.922   3.283   4.548  0.0117  0.0715 -0.1689
25871W        W42719  10.213  15.273  17.757 -0.0834 -0.3176  0.0018
25872W        W42720  16.723  10.835   1.043 -0.2513  0.0783 -0.3816
25873W        W42721   7.080   9.112  17.192  0.2387 -0.0908 -0.1100
25874W        W42722  10.395  16.988  16.787  0.0943 -0.0883  0.2307
25875W        W42723  11.638  11.836  16.265 -0.0006 -0.1106 -0.0593
25876W        W42724   6.921   7.918   4.330  0.0978 -0.0590  0.2897
25877W        W42725   7.773  17.066  16.363 -0.1740  0.1850  0.1062
25878W        W42726   2.918  12.361  15.053 -0.0563 -0.0601  0.2669
25879W        W42727   6.714   6.395   0.202  0.0367 -0.2465 -0.1761
25880W        W42728  11.577   5.688  11.885  0.1472 -0.3328 -0.0118
25881W        W42729   7.567  13.214   1.098 -0.0962 -0.0788 -0.2448
25882W        W42730   3.185  15.400  15.701  0.1470 -0.1806  0.2384
25883W        W42731  13.955   7.427  16.400  0.2207 -0.3397 -0.2081
25884W        W42732   1.832  15.275  12.034  0.2135  0.1327  0.0037
25885W        W42733   7.624  10.173  12.390 -0.0460  0.1889  0.0396
25886W        W42734   7.613  11.673   4.853  0.0197  0.1469  0.0325
25887W        W42735   2.787   7.963  12.163  0.1939  0.1133 -0.1806
25888W        W42736   8.901   2.681   3.871  0.0654  0.2783  0.0075
25889W        W42737   9.146   4.771  13.579  0.0646 -0.5089  0.0485
25890W        W42738  14.159   4.575  13.370 -0.1054 -0.1635  0.0076
25891W        W42739   0.589   1.191   1.868  0.4531 -0.2100  0.1174
25892W        W42740   5.237   6.145  14.662  0.0038  0.1416  0.1698
25893W        W42741  12.331   2.448  12.260  0.2499  0.1693  0.1426
25894W        W42742   0.956  12.532   1.089 -0.1882 -0.2738 -0.0139
25895W        W42743   1.645  12.916   4.270  0.1415  0.1198  0.0838
25896W        W42744   5.261  16.669   5.236 -0.0482  0.2348  0.0650
25897W        W42745   1.515  11.283  14.303 -0.0632  0.2238  0.0144
25898W        W42746  13.478  14.532  13.464  0.2035 -0.1224 -0.0845
25899W        W42747   4.962  10.711   4.776 -0.0444 -0.0190  0.2239
25900W        W42748  13.354   8.230   0.901  0.0788  0.0161 -0.0780
25901W        W42749   0.560   5.976  16.870 -0.0392 -0.2335 -0.2807
25902W        W42750   0.073  10.940   6.097  0.1898 -0.0261 -0.0596
25903W        W42751   8.012  12.391  16.912  0.1551 -0.2795 -0.0258
25904W        W42752  13.019   3.130   0.803  0.0293  0.0884 -0.0201
25905W        W42753   1.044   2.467   4.354 -0.0306 -0.0609  0.2272
25906W        W42754   4.863  10.322  12.349  0.1228  0.1212  0.1159
25907W        W42755   5.788   4.828  15.966  0.0717 -0.0386 -0.0983
25908W        W42756   4.859  10.307   1.935 -0.1985 -0.0736  0.1172
25909W        W42757  10.374   1.673   0.036  0.0429  0.2055  0.3608
25910W        W42758   1.633  15.281   0.401 -0.0769  0.0082 -0.0531
25911W        W42759  12.306   8.555  14.825 -0.3645 -0.2880 -0.0499
25912W        W42760   1.839   1.324   4.759 -0.0368  0.0389  0.0907
25913W        W42761   0.840  11.391  14.551  0.1446  0.0009 -0.0154
25914W        W42762   5.239   0.763   0.748  0.1966  0.0101 -0.1705
25915W        W42763  15.160   5.783  15.758  0.0257 -0.2554 -0.1069
25916W        W42764  10.378  11.518  16.246 -0.0057 -0.1648 -0.1222
25917W        W42765   9.555   8.093  13.384  0.1565  0.1496  0.0829
25918W        W42766  12.449  13.357   1.766  0.0410  0.2644  0.0746
25919W        W42767  12.880   3.774   2.035  0.0052  0.1423 -0.1788
25920W        W42768   1.157  16.485   4.264 -0.2199  0.0600  0.0910
25921W        W42769   9.778  16.182  14.868 -0.1160 -0.1852  0.1410
25922W        W42770   0.095   4.385   0.454 -0.0363 -0.1206  0.1559
25923W        W42771  14.350  13.280   6.427  0.0391 -0.0818  0.0740
25924W        W42772  15.921   3.491   2.717 -0.1135  0.1717  0.0854
25925W        W42773   7.389  12.716  12.803 -0.1629  0.2364  0.1790
25926W        W42774   8.733   8.322  13.917 -0.3018  0.0596  0.2674
25927W        W42775   0.011   1.123  16.552  0.1433  0.1121  0.2046
25928W        W42776   0.359  11.940   3.089 -0.1551  0.0164 -0.1722
25929W        W42777   2.233   5.085  14.337 -0.0538 -0.1951 -0.1579
25930W        W42778   3.889  10.363   3.657  0.2793 -0.0933  0.1330
25931W        W42779  12.318  10.508  15.374  0.1876 -0.0879  0.0354
25932W        W42780   6.297   5.655  14.237  0.0745  0.2776 -0.0521
25933W        W42781   4.230   4.475   1.198 -0.3081 -0.3908  0.0551
25934W        W42782   8.270   3.330  12.144  0.3864 -0.0926 -0.0844
25935W        W42783  10.340  15.353  16.903 -0.1308 -0.1201 -0.0108
25936W        W42784  14.106   7.241  15.891  0.1669  0.0361 -0.1509
25937W        W42785  14.727   6.557   2.541 -0.1381 -0.1038 -0.1121
25938W        W42786   8.498  15.113  12.212  0.2040 -0.1874  0.0296
25939W        W42787   5.886   9.785   3.007  0.0981  0.1475  0.1346
25940W        W42788   6.213  12.857  16.543  0.3136 -0.1629  0.0948
25941W        W42789  13.604  14.319  14.157 -0.0863  0.1472  0.2193
25942W        W42790   2.428  16.078   0.667 -0.0122  0.2580  0.0433
25943W        W42791  14.287   7.180  16.836 -0.2215  0.0270 -0.1071
25944W        W42792   1.539   5.226  15.949  0.1177  0.0552 -0.0608
25945W        W42793   0.967   4.195   5.805  0.0985 -0.1438 -0.2037
25946W        W42794   8.299   9.858   4.067  0.1893  0.1710  0.1059
25947W        W42795   9.370   6.102   1.987  0.0477  0.0507 -0.1217
25948W        W42796  11.641  15.454   4.443  0.0954  0.2425  0.0587
25949W        W42797  14.524  12.693   5.583 -0.0529 -0.0045 -0.0600
25950W        W42798  15.510   0.386  17.147 -0.2240 -0.1261 -0.0531
25951W        W42799  11.527   6.708  17.598  0.0122  0.1228 -0.2067
25952W        W42800  11.011  15.743  13.848 -0.1732  0.2100 -0.0084
25953W        W42801   7.035   2.830   5.283  0.0729 -0.1151  0.0311
25954W        W42802  10.319   4.359  16.802 -0.0476 -0.0076 -0.1578
25955W        W42803   0.875   4.235   2.021  0.0454  0.1535 -0.1203
25956W        W42804  11.813  14.967   0.447 -0.2613 -0.2608 -0.0765
25957W        W42805  17.025  16.223   3.667  0.0186 -0.1808 -0.0037
25958W        W42806  15.241  10.034  12.564 -0.0402  0.1519 -0.0212
25959W        W42807   7.743   4.224   1.481  0.3981  0.0098  0.0822
25960W        W42808  16.166   1.034  15.233 -0.0147 -0.0832 -0.0028
25961W        W42809   6.743   2.797  16.655 -0.0284  0.1929  0.1217
25962W        W42810  15.116   4.290  11.134 -0.0336 -0.1750  0.1191
25963W        W42811   0.266   5.021   3.550 -0.0413  0.1146  0.0749
25964W        W42812  16.867  14.475  12.839  0.1870  0.0830 -0.2242
25965W        W42813   5.147   6.992   5.693  0.1783 -0.1049 -0.0356
25966W        W42814   1.829   7.974   2.230  0.1523  0.1681 -0.1305
25967W        W42815   8.550  16.771  15.353 -0.1629  0.0915 -0.1877
25968W        W42816   8.487  12.671   4.976 -0.2000 -0.2774 -0.3660
25969W        W42817   4.019  10.092   4.547 -0.1059  0.2656 -0.3165
25970W        W42818   1.511  11.461   0.923 -0.1493 -0.2369  0.0009
25971W        W42819   8.217  13.516   3.585  0.0605  0.0995  0.1252
25972W        W42820   5.329   0.324   4.123  0.1713 -0.0037  0.1475
25973W        W42821   5.344  10.209   3.996 -0.0872  0.3048 -0.0834
25974W        W42822  13.578   1.421   1.789 -0.0794  0.1993 -0.3283
25975W        W42823  12.313  16.750  15.992  0.2666  0.1672 -0.0633
25976W        W42824   9.018   7.215  12.797 -0.0011 -0.0080  0.2615
25977W        W42825   6.648   6.183  13.984  0.1728  0.1314  0.0421
25978W        W42826  14.189  16.192   0.599  0.0492  0.2476  0.3710
25979W        W42827   5.955   5.008   5.815  0.4492 -0.0247  0.0746
25980W        W42828  15.731   1.151  13.205 -0.0321  0.3537  0.1350
25981W        W42829  15.094   6.394  11.113 -0.2858 -0.0593  0.0307
25982W        W42830  10.928   1.009   0.182  0.0509  0.0392  0.1524
25983W        W42831  10.864   7.453  13.195  0.0813  0.1806 -0.3591
25984W        W42832   2.857   9.590  12.731 -0.1877 -0.1918  0.3596
25985W        W42833  16.072  14.684  17.282 -0.0913  0.1106 -0.1934
25986W        W42834   1.641   4.134  12.817 -0.1208 -0.1617  0.0192
25987W        W42835   4.592   7.891   1.026 -0.0305 -0.1191  0.1351
25988W        W42836  14.078  14.056   1.502 -0.0217 -0.3817 -0.1444
25989W        W42837  12.663   0.427  15.085  0.2645  0.0677 -0.2431
25990W        W42838   4.755   8.292  16.046  0.1711  0.1193  0.0184
25991W        W42839   0.012   7.191   2.170  0.1230  0.0914 -0.2257
25992W        W42840  10.127  14.766   2.270  0.0258  0.2193  0.1226
25993W        W42841  12.849   9.262   1.639  0.0277  0.1895 -0.1991
25994W        W42842  16.235  14.689  16.300 -0.0193 -0.1235 -0.2294
25995W        W42843  12.603   1.643  12.359  0.0038 -0.1383 -0.2024
25996W        W42844  12.586   6.427   2.657 -0.4711 -0.4320 -0.0763
25997W        W42845   7.976   2.434  12.616  0.1943  0.1030  0.0812
25998W        W42846  14.788  13.346   2.119  0.2275 -0.2499 -0.1720
25999W        W42847  16.953   2.816   2.985 -0.1561 -0.1825  0.1173
26000W        W42848  13.716   3.363   1.590 -0.0414 -0.0721 -0.0723
26001W        W42849   6.626  14.800   5.378 -0.0208 -0.0291  0.0693
26002W        W42850   4.513  16.451   5.317  0.2349 -0.1744  0.1669
26003W        W42851  10.624   9.693   1.657 -0.1956 -0.1816  0.3284
26004W        W42852  10.198  15.277   1.799  0.1112  0.0846 -0.4134
26005W        W42853   3.278  12.758   2.230 -0.0909 -0.1210 -0.3187
26006W        W42854   8.438  14.571   0.320 -0.2669 -0.0745  0.0158
26007W        W42855  16.280  12.189  15.396 -0.0603  0.0095 -0.2935
26008W        W42856   2.599   5.334  15.162 -0.0018  0.0352  0.2060
26009W        W42857   8.786  11.050  13.929  0.1135 -0.4231  0.1537
26010W        W42858  14.563  12.345   1.379 -0.1124 -0.0403  0.1457
26011W        W42859   5.575   1.940  15.127  0.2842  0.2028  0.2544
26012W        W42860   1.377   7.050  11.894  0.2473 -0.0985  0.2601
26013W        W42861   6.089   1.928   0.416  0.2631  0.4200 -0.1578
26014W        W42862  15.334   4.825  13.700  0.0809  0.0190  0.2270
26015W        W42863   6.369  16.864  14.674 -0.0614  0.5221 -0.0786
26016W        W42864   2.270   5.664   2.577 -0.2820 -0.0975 -0.1349
26017W        W42865   8.522   1.156   4.748  0.0416  0.2162 -0.2771
26018W        W42866  11.175   9.884  14.194  0.0959 -0.4371  0.1063
26019W        W42867   3.294   1.477   2.274 -0.3110  0.0596  0.0637
26020W        W42868   4.546   3.137  16.768 -0.0362  0.1753 -0.3824
26021W        W42869  12.682  10.692   6.613 -0.1627 -0.0283  0.3562
26022W        W42870   8.198  11.070  17.043  0.0170 -0.2180 -0.0955
26023W        W42871   4.544   5.833   1.845  0.1499  0.0465 -0.2055
26024W        W42872  12.102   6.759  14.176 -0.1878 -0.1172 -0.0085
26025W        W42873  16.305  16.171  17.658 -0.0056  0.3631 -0.3801
26026W        W42874  10.638   3.463  12.950  0.0411  0.1821  0.2704
26027W        W42875  10.456   8.849  17.426 -0.0235 -0.0419 -0.2182
26028W        W42876  10.868   6.707  13.519  0.0837  0.0249 -0.3026
26029W        W42877  14.770   6.838   0.277 -0.0232 -0.0692  0.0661
26030W        W42878   7.930   4.425   0.169 -0.3519  0.2109  0.1199
26031W        W42879   8.450   6.122  12.980 -0.0460  0.3202  0.3625
26032W        W42880   3.653  10.097  16.930 -0.0990 -0.3249 -0.0595
26033W        W42881   2.045   9.039  13.646  0.1604 -0.2995 -0.2121
26034W        W42882  10.380   3.125  12.705 -0.1310 -0.2420 -0.3033
26035W        W42883  14.952   0.648   0.883  0.0107 -0.1914 -0.4010
26036W        W42884  10.992   9.527   0.023 -0.2034  0.0247  0.1946
26037W        W42885  15.414  14.797  15.663 -0.0079 -0.0748 -0.1989
26038W        W42886  15.468  10.400  13.746  0.2583 -0.1137  0.0700
26039W        W42887  14.116   3.572  14.777  0.1493 -0.1643  0.0379
26040W        W42888  13.965   2.016  14.120 -0.0149 -0.1097 -0.2425
26041W        W42889   8.271   5.877  11.206  0.5046  0.0209 -0.0993
26042W        W42890  13.758  11.658  16.467 -0.0826  0.1827  0.1168
26043W        W42891  12.375   4.623   4.877 -0.0027 -0.1045 -0.1451
26044W        W42892   0.257  14.153  17.013 -0.2310  0.0460  0.3683
26045W        W42893  13.138  16.887   4.285 -0.1833 -0.1015 -0.0436
26046W        W42894  13.893   0.989  16.315 -0.1117 -0.2773  0.1956
26047W        W42895  11.228  10.554   2.863  0.2862  0.2265  0.0140
26048W        W42896  14.580  15.044  17.182  0.1614  0.2389 -0.2443
26049W        W42897  16.980  11.139   2.363  0.0344  0.1151  0.1243
26050W        W42898   7.422   6.181   4.223 -0.0589 -0.3573  0.1430
26051W        W42899  13.697  10.545   3.558 -0.0227  0.0025  0.0736
26052W        W42900   6.826   7.313   4.371 -0.0455  0.0582 -0.2159
26053W        W42901  12.842  12.967   0.024 -0.1686 -0.1524 -0.0075
26054W        W42902   4.309   6.896   2.873 -0.1206 -0.1155  0.2774
26055W        W42903  13.677   2.023   1.052  0.0074 -0.2130  0.0198
26056W        W42904   7.515  15.369  12.520  0.0941  0.2378  0.1068
26057W        W42905   8.706  16.861  16.977 -0.0052  0.2750  0.0312
26058W        W42906  15.658  13.171   5.049 -0.3638 -0.0772 -0.0418
26059W        W42907  16.785   8.770   1.078  0.2426 -0.2021  0.0833
26060W        W42908  10.670   0.760   2.803  0.1205 -0.3673 -0.4024
26061W        W42909   5.060   6.488   5.862 -0.0643 -0.1308 -0.0486
26062W        W42910   8.282   6.370  13.663  0.0947  0.1621  0.0834
26063W        W42911  11.251   3.281  14.856  0.0645 -0.2120 -0.0538
26064W        W42912   5.643   1.059   4.410 -0.1845 -0.0035  0.0689
26065W        W42913   5.120  15.366   1.304  0.0511 -0.0440 -0.1782
26066W        W42914   7.715   7.993   1.784 -0.2505 -0.1772  0.0707
26067W        W42915   6.609   4.904   1.763  0.0477 -0.5836 -0.2330
26068W        W42916  12.387  11.727  15.158 -0.4200 -0.1433 -0.1755
26069W        W42917   3.680   8.835  13.682 -0.1968 -0.1104 -0.2654
26070W        W42918   1.885   1.520   1.515  0.1297  0.1716 -0.0119
26071W        W42919   5.515  10.009   1.143 -0.2113 -0.0150  0.0245
26072W        W42920   8.401  10.684  14.328  0.2246  0.2097 -0.1369
26073W        W42921   8.655   8.029  13.024  0.0955  0.2187  0.0777
26074W        W42922   9.998   8.988   3.117  0.1356  0.2478  0.2627
26075W        W42923   6.688   7.980  13.876  0.1208  0.2710 -0.0387
26076W        W42924   9.658   8.831   3.493 -0.0850 -0.2109 -0.0799
26077W        W42925   2.303  13.456   0.639 -0.0438  0.0441 -0.0849
26078W        W42926  15.977   5.491  13.278  0.0216  0.0282 -0.2546
26079W        W42927   8.216   3.226   5.471 -0.0639 -0.0516  0.1398
26080W        W42928   4.753   4.560   0.684  0.2202 -0.2185 -0.2590
26081W        W42929  14.808  11.861  14.636 -0.0059  0.0678  0.1502
26082W        W42930  13.447   3.310  13.282  0.0001 -0.3382 -0.0089
26083W        W42931  15.779  15.343   3.783 -0.0480  0.2647 -0.0976
26084W        W42932  14.786   6.140   2.369 -0.0010 -0.0857  0.2692
26085W        W42933   1.400   4.343   0.866 -0.0927  0.3147  0.0499
26086W        W42934  11.300   8.212   3.629 -0.1824 -0.0955  0.0748
26087W        W42935   5.515  16.151  17.094 -0.0362 -0.0863 -0.3343
26088W        W42936   0.281   5.886   2.155  0.0841 -0.0740  0.0775
26089W        W42937   1.001   5.588   3.835  0.2027 -0.0926 -0.0013
26090W        W42938   6.321  16.542   1.131 -0.0975 -0.0218 -0.1136
26091W        W42939   4.499   8.514   3.042  0.1512 -0.0272  0.2129
26092W        W42940   8.567   8.016   1.663  0.2790 -0.0479 -0.0482
26093W        W42941  15.330   2.393   3.526 -0.2132 -0.1721  0.2722
26094W        W42942   6.040   2.766  13.529 -0.0761  0.2824  0.0357
26095W        W42943   8.849  11.163   3.779 -0.5533  0.1182 -0.2883
26096W        W42944   0.786   1.472   4.145  0.2777  0.0214 -0.0179
26097W        W42945  13.013   6.358  12.721  0.1030 -0.0317  0.1956
26098W        W42946   1.634  14.987  11.671 -0.1514  0.3604  0.1368
26099W        W42947   1.224  16.187  13.221  0.0264  0.5793 -0.3088
26100W        W42948  15.316   4.598   4.434  0.1796  0.1586 -0.0625
26101W        W42949   7.703   0.697   1.864 -0.1599  0.1364  0.1166
26102W        W42950   6.572  16.023  11.788  0.2190 -0.2007 -0.0641
26103W        W42951  15.040   8.774  15.849  0.1086  0.1870 -0.1630
26104W        W42952   0.118  10.238  12.813 -0.1744  0.0189  0.1801
26105W        W42953   4.193   5.658   1.061  0.1611  0.1355 -0.0739
26106W        W42954  14.031   5.708   1.208  0.0071 -0.1078  0.1355
26107W        W42955  15.152  10.808   4.872  0.1146  0.0010  0.1303
26108W        W42956  12.624  12.514   0.103 -0.1399 -0.0839 -0.0127
26109W        W42957   2.375  15.797  16.716  0.1881 -0.2219 -0.1827
26110W        W42958   5.099  15.741   5.503 -0.0415 -0.1102 -0.0327
26111W        W42959  14.511   6.427  14.395  0.1573  0.0113  0.0363
26112W        W42960  11.076  11.725  16.106  0.0098 -0.2131  0.1576
26113W        W42961   2.665   7.613   2.546  0.0466 -0.2437 -0.2262
26114W        W42962  10.431   5.695   0.901  0.1912 -0.1111 -0.0869
26115W        W42963  13.841   0.267   4.687 -0.0580  0.1617 -0.3626
26116W        W42964  12.023  14.008  15.782 -0.0404 -0.0546  0.3592
26117W        W42965   4.477  15.419  17.839 -0.2497  0.1061  0.0439
26118W        W42966   2.979   2.871   4.616 -0.2221 -0.0642  0.1434
26119W        W42967   6.440   3.793  16.883  0.1514 -0.0193  0.0117
26120W        W42968   7.315   8.709   3.415 -0.1144 -0.0871 -0.0247
26121W        W42969  11.684   8.035   1.103  0.1594  0.2521 -0.2024
26122W        W42970   3.153   9.857  15.562  0.1365  0.1589 -0.1520
26123W        W42971   7.049   1.077   2.423  0.2711  0.1153 -0.1213
26124W        W42972   1.598  13.815   0.257  0.0989  0.1098  0.0110
26125W        W42973  14.247  11.000  17.765  0.0547  0.1409 -0.3095
26126W        W42974   6.755  12.081  14.687 -0.0700  0.2807 -0.0090
26127W        W42975   8.872   7.928   0.663  0.0343  0.0464  0.0343
26128W        W42976   7.442  12.922  14.023 -0.0353 -0.0889 -0.1568
26129W        W42977   7.929   1.212   4.748  0.0069  0.1707 -0.2327
26130W        W42978   5.932  10.064   0.812  0.0050  0.2192  0.2243
26131W        W42979  16.509  13.298  14.333 -0.0889 -0.0046 -0.0740
26132W        W42980   2.523   4.689   1.363 -0.0096  0.1272  0.5827
26133W        W42981   2.738   9.164  12.411  0.1098 -0.1048  0.1069
26134W        W42982  12.427  10.968  13.785 -0.0358 -0.0502 -0.0388
26135W        W42983   2.004   3.209  13.985 -0.0917  0.0347  0.0649
26136W        W42984   1.379   6.983   4.493  0.1445  0.0501 -0.1252
26137W        W42985   7.730   6.317   2.747  0.0104  0.1106 -0.0238
26138W        W42986  12.398   8.274  15.315  0.4671 -0.1100  0.3246
26139W        W42987   0.496  12.006  16.284  0.0219 -0.1577 -0.0956
26140W        W42988   3.434   9.561  15.005 -0.0786  0.0846 -0.0834
26141W        W42989  13.496   7.145   5.567 -0.0573  0.2553  0.1179
26142W        W42990   3.900   1.978  14.644 -0.1448  0.1434 -0.0810
26143W        W42991   9.236  15.186  12.845 -0.1607 -0.0784 -0.1035
26144W        W42992  11.048   3.233  12.264  0.3470  0.4161 -0.0687
26145W        W42993   9.402  11.018   1.301 -0.4379  0.5491 -0.0390
26146W        W42994  10.923   5.673   4.043  0.2458  0.0794 -0.4214
26147W        W42995   7.385  10.336   4.214  0.2657  0.0026  0.3337
26148W        W42996   8.937  15.760   2.014 -0.0346 -0.0809  0.0493
26149W        W42997  11.083  13.781  12.756  0.1709 -0.0807  0.2866
26150W        W42998  14.240   1.041   0.488  0.0274 -0.1612 -0.3155
26151W        W42999   2.696   6.149  12.699  0.1177 -0.1719 -0.0978
26152W        W43000  14.261  12.545  13.115 -0.1504 -0.1299  0.0283
26153W        W43001  15.381   8.784   4.623  0.0329 -0.0009 -0.2739
26154W        W43002   8.466   2.899   5.225  0.0111  0.0194 -0.0079
26155W        W43003   9.228  13.595  12.406  0.0939 -0.2381 -0.2037
26156W        W43004  13.398   3.641   3.610 -0.0483  0.1340  0.0542
26157W        W43005   0.219   7.301  13.361  0.2932  0.0454 -0.2010
26158W        W43006   3.476   0.213  11.994  0.1583 -0.1665 -0.1025
26159W        W43007  10.389   2.977  16.208  0.0953 -0.0467  0.2759
26160W        W43008   8.716   2.933  13.858 -0.0501  0.1294 -0.1060
26161W        W43009   5.368   2.826   3.659 -0.0454 -0.2760  0.0103
26162W        W43010   7.056   5.872   4.931  0.2849  0.1478 -0.1203
26163W        W43011   3.836   9.454  12.927  0.1124 -0.1546 -0.2562
26164W        W43012  16.358   1.866  14.234 -0.1089  0.0701  0.1293
26165W        W43013   3.197   5.435  13.440  0.0774 -0.2413 -0.0264
26166W        W43014  11.308   9.727   2.410  0.1606 -0.0692 -0.3993
26167W        W43015  13.970   4.098   5.466  0.2131  0.2798  0.2413
26168W        W43016   7.151  13.123   2.329 -0.0303  0.0381 -0.2411
26169W        W43017   7.677  16.850   3.168  0.0265 -0.1251 -0.1413
26170W        W43018  10.190   6.769   2.380  0.4240 -0.1249 -0.0686
26171W        W43019   2.262   4.389   5.671  0.5925  0.0533 -0.0954
26172W        W43020  11.134  11.450   2.958 -0.0261  0.0048 -0.0382
26173W        W43021  13.245   1.074  16.944  0.0024  0.0388  0.1084
26174W        W43022   0.427  15.072  15.997 -0.2665  0.0961  0.0316
26175W        W43023   3.349   4.733  12.819 -0.1684  0.0028  0.1406
26176W        W43024  13.202   4.818  13.579 -0.2909 -0.0907 -0.2593
26177W        W43025  13.339   4.050  16.189  0.2542 -0.4572 -0.2307
26178W        W43026  14.797  10.238   5.621  0.0639  0.0509  0.0464
26179W        W43027  13.719  12.791  16.711  0.0018 -0.2459  0.0668
26180W        W43028  10.783   3.294  17.358  0.0072 -0.0196 -0.1742
26181W        W43029  15.415  12.036  13.268 -0.1358 -0.0038 -0.3735
26182W        W43030   1.427   6.819   5.830  0.1854 -0.0523 -0.0511
26183W        W43031   3.352   3.410   0.450 -0.0643  0.4530 -0.0621
26184W        W43032   4.224   9.706   5.460  0.1409 -0.1925 -0.0183
26185W        W43033   4.681   9.843  15.209  0.0771  0.2244  0.0127
26186W        W43034   1.454   7.468   1.659  0.1704 -0.0422 -0.1026
26187W        W43035   5.129   4.980  17.239  0.0022  0.1371 -0.2712
26188W        W43036   0.334   1.497  13.395  0.3235  0.0258  0.0900
26189W        W43037   5.757   9.297   5.499  0.0676  0.0299  0.2673
26190W        W43038  11.612   6.726  12.884 -0.0942 -0.0116 -0.2850
26191W        W43039  14.784   4.635  13.739 -0.0791  0.2111 -0.1416
26192W        W43040   9.735   3.885  13.914  0.0240 -0.0607 -0.0253
26193W        W43041  15.232   4.692  12.709 -0.0586 -0.2011 -0.1087
26194W        W43042  11.085  16.178   3.782  0.1462  0.0005  0.4029
26195W        W43043  10.980   3.837  15.582 -0.0650  0.0223  0.0774
26196W        W43044   6.372  14.196  13.397  0.0716  0.0689 -0.0907
26197W        W43045   3.078   4.318  13.005 -0.2260 -0.1017  0.3482
26198W        W43046  11.886   0.931   3.648 -0.1485 -0.0080  0.2827
26199W        W43047   1.427  15.725   2.229  0.1622  0.0236 -0.0952
26200W        W43048  14.576   9.517   4.922 -0.2516  0.0763 -0.0828
26201W        W43049   6.605  16.660   4.988  0.0021 -0.1123 -0.0220
26202W        W43050   0.038   2.619  13.519 -0.0733 -0.2996 -0.1553
26203W        W43051   1.581   0.152   1.914  0.0661 -0.3287 -0.1867
26204W        W43052   7.694   6.481   5.306  0.0611 -0.2197  0.1575
26205W        W43053  15.342  12.491  14.530 -0.3408  0.1059 -0.0256
26206W        W43054  13.327   1.246   2.368  0.0394 -0.1245  0.1840
26207W        W43055   3.110   6.354  14.471  0.2784 -0.1502 -0.0382
26208W        W43056   4.179   4.780  16.996 -0.1374 -0.1919 -0.0831
26209W        W43057   6.635   6.576  12.399 -0.1931  0.2777 -0.0488
26210W        W43058  13.355   5.490   0.678 -0.2146  0.0614  0.0411
26211W        W43059  12.081   7.589  13.405 -0.0932  0.1915  0.3862
26212W        W43060   6.159   7.640   3.668  0.1843 -0.1473  0.0457
26213W        W43061   1.698   8.245   5.780  0.0071 -0.0837 -0.0210
26214W        W43062  16.936   7.137  17.290  0.1387 -0.0194 -0.2479
26215W        W43063  16.760   1.006   4.362 -0.0679 -0.0902 -0.3131
26216W        W43064   4.602  11.273   0.412 -0.0440 -0.0988 -0.1137
26217W        W43065   6.213   6.234   1.342  0.1873  0.2092  0.0818
26218W        W43066  16.739   9.275   0.926  0.2011 -0.2627 -0.1405
26219W        W43067   8.956   4.180  14.403 -0.0125 -0.0533  0.2173
26220W        W43068   9.580   6.995   2.449  0.0202  0.0592 -0.0958
26221W        W43069   4.072   7.189   1.976 -0.0879 -0.0752 -0.0430
26222W        W43070  10.516  14.680  14.691 -0.0353  0.1006  0.3189
26223W        W43071   6.498   2.073   1.147 -0.4006  0.1518 -0.0378
26224W        W43072   7.212  16.143  13.661 -0.1079 -0.1418  0.0086
26225W        W43073   5.480  12.567   2.064  0.1279  0.0886 -0.2942
26226W        W43074  10.752  13.634   4.481 -0.0165  0.3083 -0.0863
26227W        W43075  13.380  16.223   0.351 -0.2168  0.2311 -0.0722
26228W        W43076  13.620   1.201   3.884  0.1402 -0.0867 -0.0048
26229W        W43077   7.507   3.748   2.786  0.1138  0.0479 -0.2626
26230W        W43078  15.467   5.786  17.574 -0.1696  0.0368 -0.1674
26231W        W43079   0.565   9.167   4.756 -0.1902 -0.3107 -0.1984
26232W        W43080  11.559  13.144   1.039  0.0838 -0.0382  0.0697
26233W        W43081  15.561   9.729  16.606 -0.0755  0.2871  0.0621
26234W        W43082  13.768  11.668  15.835 -0.2427 -0.0101  0.0871
26235W        W43083   4.136   8.202   1.064 -0.2503  0.0996 -0.0821
26236W        W43084   4.396   0.236   0.109 -0.1033 -0.2606  0.0198
26237W        W43085   2.113   4.503   1.621  0.0200  0.0848 -0.0054
26238W        W43086   1.557   0.403  14.588  0.1252  0.0935  0.1813
26239W        W43087   2.231   3.909   5.938  0.2882  0.1532 -0.2989
26240W        W43088   5.384  16.881  14.525  0.0052 -0.0063 -0.2365
26241W        W43089   6.918  11.733   1.343 -0.1373 -0.1310  0.0421
26242W        W43090  14.376  10.976  15.610 -0.1071 -0.0645  0.1829
26243W        W43091  13.281   6.452  15.076 -0.1812 -0.2176  0.1154
26244W        W43092  11.204  11.906  14.304  0.2465 -0.1234  0.0135
26245W        W43093   0.599   3.049  12.454 -0.4475  0.0659  0.0663
26246W        W43094   3.722   6.392  13.668  0.0080 -0.0745 -0.2267
26247W        W43095   3.804  10.145   2.174  0.0593  0.0731 -0.0352
26248W        W43096  15.541   0.278  13.456 -0.1299  0.0309  0.2669
26249W        W43097   5.334  15.526  12.037  0.0072 -0.0862 -0.0248
26250W        W43098   8.274   4.890   1.399  0.2904 -0.1154  0.0349
26251W        W43099  11.757  16.228  13.620 -0.0414  0.0276  0.1940
26252W        W43100   2.391  11.747  16.747 -0.1256 -0.0102 -0.2486
26253W        W43101   0.640  13.357  13.750 -0.2727  0.2131  0.2864
26254W        W43102  14.076   8.986  16.099  0.0807  0.1044 -0.2415
26255W        W43103   6.044  14.439  17.517  0.0029  0.1399  0.2292
26256W        W43104  14.255  15.639  12.424 -0.1097 -0.0003  0.2272
26257W        W43105  10.990  14.664   1.425 -0.2078 -0.0459 -0.2286
26258W        W43106   7.008   3.987   0.351  0.1966  0.0627  0.0773
26259W        W43107   9.573  11.678  12.657 -0.1865  0.0382  0.0134
26260W        W43108   7.471   1.367   3.566  0.1887  0.0714 -0.1675
26261W        W43109   6.817  10.608   3.396 -0.0702  0.0938 -0.0510
26262W        W43110   4.412  10.573  15.493 -0.2769  0.0444  0.1128
26263W        W43111  12.828  12.303  14.228  0.6026  0.2335  0.0641
26264W        W43112  10.441   6.914  12.613  0.0090  0.1121  0.0564
26265W        W43113  12.121  13.803   3.174 -0.0123 -0.0418  0.2038
26266W        W43114   1.556  14.389   4.373  0.0031 -0.2738 -0.1734
26267W        W43115  15.927   9.654  14.637  0.2855  0.1445  0.0127
26268W        W43116   9.568   7.474   2.862 -0.3671  0.1956 -0.0691
26269W        W43117   5.442  10.625   1.972 -0.1336  0.1274  0.2279
26270W        W43118  15.203  12.843   3.332 -0.1593  0.1050 -0.0021
26271W        W43119   4.248   6.436  17.238  0.2761  0.2987  0.1059
26272W        W43120  12.218   5.546   5.208  0.2038  0.0294  0.2816
26273W        W43121   1.950   6.238  17.108  0.4192 -0.0303 -0.1407
26274W        W43122  13.942   4.006  15.368 -0.0965  0.2372  0.1732
26275W        W43123  16.179  11.874   5.103 -0.0030 -0.2393 -0.4103
26276W        W43124  12.331   8.708  12.579  0.2587  0.0234  0.5930
26277W        W43125   4.663   0.156  17.065  0.1595  0.0829 -0.0237
26278W        W43126  10.858   1.137  16.051 -0.0857  0.1138  0.3669
26279W        W43127   0.073  14.350   1.032 -0.0093  0.0164 -0.0185
26280W        W43128   7.183  13.041  15.693  0.0921 -0.1060  0.0306
26281W        W43129  15.032   3.040   3.048 -0.0882  0.1925 -0.0376
26282W        W43130   0.624  14.083   2.252 -0.1199  0.0464  0.1449
26283W        W43131   7.330   5.661  13.993  0.0575  0.3371  0.1158
26284W        W43132   2.152  12.768  12.561  0.2584  0.0546 -0.0479
26285W        W43133  10.317   2.888   1.492 -0.0166  0.0416  0.0985
26286W        W43134  14.536   2.249  17.480  0.0408 -0.1866  0.0891
26287W        W43135  16.518  11.458  14.334 -0.0697 -0.0979 -0.0405
26288W        W43136   8.894   8.419  12.696  0.1459  0.0580  0.0286
26289W        W43137  12.979  11.387  17.545 -0.0936 -0.0852 -0.3496
26290W        W43138   1.692  12.063   4.781 -0.0005 -0.1148 -0.2832
26291W        W43139   6.177   8.002  13.675  0.0036  0.1663  0.1022
26292W        W43140   2.395   0.076   5.885  0.0018  0.0710 -0.0386
26293W        W43141   2.056   4.608  16.156  0.0066 -0.4522 -0.0304
26294W        W43142  13.816   4.185   2.160  0.0679  0.1933 -0.1427
26295W        W43143   0.622   6.332   5.597  0.2976  0.0614 -0.0977
26296W        W43144   7.119  16.962  12.487  0.0102  0.1060  0.1699
26297W        W43145  11.536  15.720   0.132  0.1907 -0.1471  0.2073
26298W        W43146  13.024  12.145  13.774 -0.3905  0.1946  0.0535
26299W        W43147   7.296  15.775   2.170 -0.1655 -0.1955 -0.0674
26300W        W43148  16.479   3.199   4.094  0.0116  0.0828  0.0990
26301W        W43149  10.119  15.788  13.791  0.0611 -0.1656  0.0481
26302W        W43150  10.772   2.483  16.821 -0.2519  0.0861 -0.0800
26303W        W43151   6.465   5.853   3.418  0.1987  0.0526 -0.1429
26304W        W43152  11.149   2.169  14.687 -0.4246  0.0084 -0.1525
26305W        W43153   6.725  16.947   3.057 -0.0403  0.2995 -0.2438
26306W        W43154   0.694  15.363  14.359  0.2330  0.0462 -0.1986
26307W        W43155  10.973   7.573   4.243  0.0435  0.0500 -0.1070
26308W        W43156  11.849   5.861   1.587 -0.0514 -0.0244 -0.0055
26309W        W43157  16.990  12.768  12.171 -0.1830  0.0980 -0.1838
26310W        W43158  14.461  15.165   6.480 -0.3046 -0.0388 -0.0228
26311W        W43159  15.949   6.137   4.971  0.0513 -0.0311 -0.5140
26312W        W43160  12.403  15.527   2.072  0.1989  0.2977  0.0569
26313W        W43161  16.509   3.105   2.370 -0.0183  0.3945 -0.0636
26314W        W43162   4.417   4.256  17.089  0.1243  0.0316 -0.0807
26315W        W43163  15.982   2.967  16.689  0.0934 -0.3626 -0.0654
26316W        W43164   4.850   3.556  13.089  0.0350  0.2401 -0.2359
26317W        W43165  12.880  15.795  17.006  0.0277 -0.4177 -0.2252
26318W        W43166   0.679  14.109   4.076 -0.0115  0.1751 -0.0852
26319W        W43167   7.498   6.689   3.912 -0.1879 -0.0816  0.0668
26320W        W43168   1.233   6.452  14.519  0.3727  0.3117 -0.1591
26321W        W43169  10.137  10.518  16.974 -0.1211 -0.1737  0.0733
26322W        W43170  13.023   0.029  13.532 -0.1004  0.1419  0.0665
26323W        W43171  14.210   4.054  13.409 -0.0116 -0.1465  0.0751
26324W        W43172   9.485   2.972   5.287  0.1077  0.1139 -0.0049
26325W        W43173   5.645  12.335  14.269 -0.1482  0.1526  0.0464
26326W        W43174  10.949   4.313  14.981 -0.3305  0.0884  0.1672
26327W        W43175   8.565   3.911   1.390  0.1606 -0.0718 -0.1947
26328W        W43176  15.900   9.394  15.546  0.3443  0.2402 -0.3163
26329W        W43177   3.381  12.679   4.738 -0.1916 -0.0869  0.0476
26330W        W43178   2.147  12.594   3.482 -0.2043  0.1493 -0.0900
26331W        W43179   5.928   9.222  16.453  0.3174 -0.3508 -0.2583
26332W        W43180   7.089   0.986   5.291  0.2216 -0.2975 -0.1165
26333W        W43181   0.842   2.983  15.088  0.1420  0.0075 -0.1925
26334W        W43182   7.542   7.315  14.569  0.1997 -0.0575  0.1029
26335W        W43183   4.135   1.922   6.783  0.3884  0.4820 -0.0062
26336W        W43184   5.263   2.729   5.232  0.0995  0.0617  0.1162
26337W        W43185  15.848  12.297   1.598 -0.1662 -0.0141 -0.1465
26338W        W43186   9.710   9.521  14.978  0.3283 -0.3030 -0.1531
26339W        W43187   7.209  16.986  16.911 -0.1654 -0.0640 -0.0489
26340W        W43188   7.371   2.042   5.829 -0.0094  0.0100 -0.2187
26341W        W43189  13.082   0.532  17.798 -0.2497  0.0196  0.1043
26342W        W43190   4.992   4.973  14.005 -0.1758 -0.1931 -0.0902
26343W        W43191  13.970   8.866  13.423  0.1469  0.2200 -0.0064
26344W        W43192   1.707   5.527  12.743  0.0467 -0.2412  0.0871
26345W        W43193   6.192   5.046  14.110  0.0861 -0.2851  0.3034
26346W        W43194  10.201   9.405   0.428  0.0361  0.3292  0.1422
26347W        W43195  10.424  16.067  16.759 -0.0357  0.0308  0.0238
26348W        W43196   2.279  10.972  13.682 -0.0168 -0.1508 -0.0086
26349W        W43197   6.107  13.293   4.091 -0.0912  0.0067  0.3444
26350W        W43198   4.946   1.486   4.903  0.0293  0.1271 -0.1812
26351W        W43199  12.754  14.140   4.946  0.0590 -0.1542  0.0519
26352W        W43200   1.938  11.837   4.076  0.0776 -0.0752 -0.0356
26353W        W43201   7.330   4.344   4.166 -0.1039 -0.2255  0.0795
26354W        W43202   7.215   4.790  14.568  0.0006 -0.1079 -0.0385
26355W        W43203   8.733  15.105  17.035 -0.0745  0.0833  0.0871
26356W        W43204   8.702   3.440   1.124  0.0953  0.0483 -0.0633
26357W        W43205   6.518   3.598   4.939  0.3292  0.1054 -0.1990
26358W        W43206   4.744  13.799  15.809  0.1383  0.3877  0.0390
26359W        W43207  13.369   3.339   4.643 -0.1200 -0.3315  0.0350
26360W        W43208  16.853   7.566   3.884  0.0553 -0.0856 -0.3180
26361W        W43209   5.806  12.883  16.953 -0.1308 -0.2031 -0.0155
26362W        W43210   5.861  10.817   4.903  0.1667  0.0004 -0.3093
26363W        W43211   8.424  10.419   5.177 -0.0564 -0.1244  0.2488
26364W        W43212  14.060   2.380  17.650 -0.1690  0.0196  0.0724
26365W        W43213   8.615  16.218   0.250  0.2565 -0.1244 -0.2975
26366W        W43214   0.153  14.966   0.405 -0.1365  0.0391 -0.2052
26367W        W43215   6.450  15.129  12.227  0.1177  0.1828 -0.0378
26368W        W43216  15.907  15.496  12.396 -0.3311  0.1411 -0.2357
26369W        W43217   4.498   8.491  11.378 -0.1342  0.0122 -0.1295
26370W        W43218   5.036  10.931   2.721 -0.3708 -0.1082  0.2588
26371W        W43219   5.542   6.627   1.757  0.0081  0.3169 -0.1155
26372W        W43220   3.508  10.106   6.616  0.3004  0.0925  0.2420
26373W        W43221   9.280   7.744   1.299 -0.6170  0.0466  0.2194
26374W        W43222  15.957  14.722  14.833 -0.2993 -0.0662  0.0641
26375W        W43223   6.797  16.622   2.423 -0.3292 -0.1668 -0.1041
26376W        W43224   7.758  16.726   2.631 -0.2405 -0.1357 -0.0377
26377W        W43225   0.282  14.394  14.931 -0.2207 -0.3049  0.0426
26378W        W43226   1.105  14.906  12.435  0.1515  0.1283  0.0480
26379W        W43227  13.522   7.146  17.592 -0.0951  0.2071 -0.3695
26380W        W43228   9.274   1.966  16.014 -0.0167 -0.0673 -0.1529
26381W        W43229  15.399   9.662   5.659  0.0918  0.0408  0.1488
26382W        W43230   8.039   0.889   1.063 -0.3225 -0.1210 -0.1377
26383W        W43231   9.607   1.157  16.611  0.1021 -0.2728 -0.2473
26384W        W43232   9.856   8.294   3.390  0.0934  0.1709  0.2351
26385W        W43233   5.986  16.650   3.678 -0.0833  0.2236 -0.0888
26386W        W43234  10.896  14.288  14.641 -0.1738 -0.0022 -0.2009
26387W        W43235   1.832  14.958  13.762 -0.3341 -0.1690 -0.0221
26388W        W43236   1.225  12.655  12.621 -0.0918 -0.2221 -0.2007
26389W        W43237   0.441  16.782   4.826  0.0091 -0.1118 -0.2242
26390W        W43238   5.924   4.512   4.550 -0.0721 -0.0640 -0.3021
26391W        W43239  10.295  13.391   3.296  0.1935  0.1747 -0.2614
26392W        W43240   1.445  12.958   2.261  0.0162 -0.0526  0.1480
26393W        W43241   1.148  15.191   2.931 -0.0741  0.2177  0.2366
26394W        W43242   7.586   3.462  14.869  0.2788 -0.0349  0.2548
26395W        W43243  12.035   5.037   1.254  0.1501  0.0657 -0.0148
26396W        W43244   6.528   2.805   0.069 -0.1896 -0.1216 -0.1897
26397W        W43245   0.142   0.660  16.282  0.1966  0.0732  0.0251
26398W        W43246  15.125  10.128   0.807 -0.1196  0.0513  0.1761
26399W        W43247   6.764  12.878   2.672 -0.1688 -0.0175 -0.0184
26400W        W43248   1.318  15.051  15.464  0.1065  0.0736  0.1838
26401W        W43249  11.953   4.012   1.937 -0.0427 -0.2438  0.2103
26402W        W43250   0.353   2.702   3.851 -0.1737 -0.1016 -0.0650
26403W        W43251  16.230   1.219   1.244  0.2371  0.3774  0.0157
26404W        W43252  15.636  14.890   1.828 -0.1155  0.0980 -0.1224
26405W        W43253  11.560   2.789  13.368 -0.0489  0.1583 -0.1627
26406W        W43254   8.469  13.575   5.554  0.0769  0.0049 -0.0101
26407W        W43255  15.974   2.479  16.274  0.0465 -0.0527  0.2494
26408W        W43256   9.520  14.722  17.628 -0.0393 -0.1865  0.0498
26409W        W43257  12.063   0.494  16.602  0.0684  0.2190 -0.1030
26410W        W43258   6.963  11.216  17.216  0.0280 -0.0511  0.5498
26411W        W43259  14.948   7.683   3.413 -0.1028  0.0987  0.3071
26412W        W43260  14.604  15.766   1.355 -0.1496  0.2449  0.1057
26413W        W43261  11.196   9.229  14.687  0.1079  0.0506 -0.2060
26414W        W43262   4.651   0.765  14.065 -0.2129  0.1176  0.2217
26415W        W43263  12.129   6.259   4.532  0.1888  0.0718 -0.3066
26416W        W43264   9.798   6.883  13.693  0.2092  0.3559 -0.0023
26417W        W43265   5.567   6.509  14.790  0.1592  0.1117  0.2659
26418W        W43266  14.582   5.260  16.850  0.1753  0.0012 -0.0163
26419W        W43267  14.550  11.113   0.496  0.3526  0.1070  0.0823
26420W        W43268   2.584  15.211   0.685 -0.2500  0.0625  0.0451
26421W        W43269   9.925   2.641   2.885  0.0649 -0.1593 -0.1199
26422W        W43270   1.581  12.704   0.515 -0.1929 -0.3591  0.1067
26423W        W43271   5.580   3.399   3.868 -0.1702  0.0774  0.1792
26424W        W43272   3.006  10.804   4.566  0.2679 -0.0138  0.2516
26425W        W43273   9.424  16.991   0.426 -0.0264 -0.0842  0.1299
26426W        W43274   2.674   2.108  16.722 -0.5429 -0.1644 -0.0868
26427W        W43275  13.576   9.180   2.414 -0.0086 -0.0977 -0.0778
26428W        W43276  13.815  13.323   3.255  0.0136  0.0378 -0.1637
26429W        W43277   9.567   9.244   4.976 -0.0324 -0.0552 -0.2438
26430W        W43278  13.673  10.138   1.008  0.1793 -0.0364  0.1727
26431W        W43279  14.334   9.730   0.018  0.2489 -0.0915 -0.1395
26432W        W43280  16.178  10.455   6.594  0.0841 -0.1852 -0.0198
26433W        W43281  16.204   2.782  12.469 -0.2118 -0.2018 -0.0542
26434W        W43282  10.131   8.546   0.242 -0.2935  0.3164 -0.1543
26435W        W43283   6.148   1.912  14.681  0.1036 -0.1645  0.1517
26436W        W43284   2.169  11.395   4.230  0.1692  0.0398  0.0706
26437W        W43285   2.006   4.393   3.924 -0.2953 -0.2267  0.0471
26438W        W43286   7.819   0.526   4.601 -0.0825  0.1187 -0.0235
26439W        W43287  16.001   7.017  13.610 -0.2746 -0.0034  0.1883
26440W        W43288  14.762  13.612   0.979  0.0016 -0.1264 -0.0120
26441W        W43289   7.478  11.992   0.449 -0.0407  0.0171  0.0418
26442W        W43290   6.735  15.731  15.478 -0.0742  0.1899  0.0292
26443W        W43291   8.165   0.466  12.036  0.1415  0.1988  0.0116
26444W        W43292   4.933   0.464   2.664 -0.0314 -0.1067  0.0026
26445W        W43293  13.102   2.700  14.453 -0.0665  0.1071 -0.1841
26446W        W43294   6.170   4.934  15.526  0.0059 -0.1084  0.1698
26447W        W43295   9.151  16.564   0.075 -0.1642  0.0177  0.0081
26448W        W43296   0.934  14.704   3.491  0.3363  0.1137  0.1029
26449W        W43297   7.962   5.625  16.401  0.3017  0.2071  0.3065
26450W        W43298   2.640   5.919   2.286  0.0457 -0.1530 -0.0019
26451W        W43299   6.886  10.862  13.496 -0.1048 -0.0922 -0.2171
26452W        W43300   6.392   1.998   3.953 -0.0388  0.1769 -0.1426
26453W        W43301   8.729   3.358  14.766 -0.0305 -0.3549  0.3014
26454W        W43302   8.042  15.658  12.542 -0.1758 -0.0070 -0.0381
26455W        W43303  10.718  12.940  12.365  0.0684 -0.0948 -0.2613
26456W        W43304   3.742  15.775  17.316  0.2844 -0.1353  0.1047
26457W        W43305   9.545   3.119  15.157  0.0012  0.2181  0.2161
26458W        W43306   7.537   7.333   0.887  0.2028  0.0736  0.0325
26459W        W43307   0.728   6.674  12.956  0.0485 -0.2033  0.0350
26460W        W43308   3.622  15.395   5.014  0.0656 -0.0209  0.0075
26461W        W43309   2.499   1.824   3.453 -0.0325 -0.2956  0.1022
26462W        W43310   7.705   5.901   3.076  0.0497  0.2390 -0.2236
26463W        W43311   5.153   5.365   1.556 -0.1671 -0.1495 -0.0135
26464W        W43312  15.770  12.221  14.064 -0.0934 -0.0768  0.1907
26465W        W43313  17.001  14.644   0.045 -0.0240 -0.0212 -0.2268
26466W        W43314   2.465  13.802   2.504 -0.0169 -0.1608 -0.0010
26467W        W43315  10.225  15.407  14.132  0.0852 -0.0028  0.0332
26468W        W43316  16.683   4.474   5.847 -0.1180 -0.0702 -0.2499
26469W        W43317  16.272   9.786  13.106 -0.0565  0.1750  0.2554
26470W        W43318   0.319   9.003  15.003 -0.1869 -0.2132  0.0094
26471W        W43319   7.603   8.776   2.878 -0.0954  0.2424  0.0293
26472W        W43320  13.876   4.863  11.920  0.0459  0.0386  0.0346
26473W        W43321  16.447   4.510  14.780  0.0193 -0.1591 -0.3011
26474W        W43322  15.799   2.556   3.786 -0.1240 -0.0118  0.2619
26475W        W43323   6.252   6.791  15.817 -0.0560 -0.2207  0.0672
26476W        W43324   8.662  11.125   2.585 -0.0212 -0.1661  0.2137
26477W        W43325  14.642   1.754   3.307 -0.0787 -0.1129  0.0682
26478W        W43326   8.041   9.476  15.020 -0.0561  0.0991  0.2890
26479W        W43327   2.020   0.951  12.516  0.1423  0.0835 -0.2235
26480W        W43328  13.696   9.751  13.336  0.0287  0.0036 -0.1552
26481W        W43329   6.000   5.369   1.124  0.5306 -0.0115 -0.1562
26482W        W43330   5.220   0.026   2.088  0.1778 -0.0573 -0.0260
26483W        W43331   7.388   0.659   4.251 -0.0648  0.0742  0.5209
26484W        W43332  16.489   2.720  13.704 -0.2328 -0.1558 -0.0550
26485W        W43333  14.359   1.465   1.248 -0.3130  0.1235 -0.1232
26486W        W43334  10.456  10.277  17.311 -0.2823 -0.0507 -0.1379
26487W        W43335   3.522   0.487  17.772  0.2074  0.1284 -0.5592
26488W        W43336  10.330   3.344   0.518  0.4206 -0.0821 -0.1622
26489W        W43337   5.905   0.980  14.025  0.0009 -0.1168 -0.0941
26490W        W43338  10.465   2.582  15.201  0.0300  0.0450 -0.0150
26491W        W43339   0.608   5.486   3.551  0.1520  0.0164  0.2287
26492W        W43340   7.589   5.918   6.374 -0.0845  0.1126 -0.0823
26493W        W43341   3.987   9.270  13.985  0.0949 -0.3658 -0.1723
26494W        W43342   1.757   0.885  13.012 -0.3092  0.1179 -0.2283
26495W        W43343   4.075   7.105  14.043 -0.2011 -0.0032 -0.2443
26496W        W43344  11.695   9.412   5.002 -0.1846 -0.2552 -0.2150
26497W        W43345  16.822  12.287   0.752 -0.1904 -0.2172  0.1400
26498W        W43346  11.652   4.319   2.657 -0.2096  0.0516 -0.0212
26499W        W43347  15.312   8.088   1.768  0.2373 -0.1467 -0.2153
26500W        W43348  10.344   9.936  15.914  0.2305 -0.4076  0.4472
26501W        W43349  10.130  16.810  14.027  0.0680  0.1322 -0.1070
26502W        W43350  13.542   9.504   4.302  0.2448  0.0846 -0.1387
26503W        W43351  14.168   7.736   2.375  0.3279  0.1099  0.0337
26504W        W43352  11.195  16.582   2.712 -0.0417  0.2996 -0.2037
26505W        W43353   8.350   1.886   3.053  0.0159  0.0277 -0.0829
26506W        W43354   8.491   1.759  17.501 -0.1987  0.2620  0.0244
26507W        W43355  10.539   1.198  17.112  0.2615 -0.2604 -0.2325
26508W        W43356  10.838  15.246  16.683  0.1080 -0.0808  0.0278
26509W        W43357  16.396   4.493  15.308 -0.1121  0.2603 -0.0438
26510W        W43358  13.882  12.722  14.344 -0.0561  0.1885  0.0493
26511W        W43359  13.316   3.434  15.074  0.0971  0.2662 -0.0182
26512W        W43360  11.231   9.359  17.122 -0.1450  0.1043  0.1250
26513W        W43361   7.180   6.114   1.088  0.1190 -0.1208 -0.1192
26514W        W43362   2.696   5.144   3.814 -0.1464  0.1710 -0.2575
26515W        W43363   7.090   0.782   4.638 -0.1725 -0.0869 -0.0737
26516W        W43364  10.434   9.868   0.701 -0.0589 -0.2834 -0.0334
26517W        W43365   5.905   0.431  17.324  0.2720  0.3126  0.1077
26518W        W43366   4.322   1.149   3.743 -0.0101 -0.0420  0.2665
26519W        W43367   7.669   0.782   5.380  0.0190 -0.0827  0.1737
26520W        W43368   8.716   4.708  17.089  0.1062 -0.1944 -0.2494
26521W        W43369   7.200  14.958   0.969 -0.1659 -0.1411  0.0794
26522W        W43370   0.275   7.694   6.588  0.0666  0.0678 -0.0507
26523W        W43371   8.801  11.945  17.067 -0.0051  0.2022 -0.1857
26524W        W43372   2.830  14.412  14.706 -0.0151 -0.2988 -0.3863
26525W        W43373   2.933  11.858  12.779 -0.0352 -0.0411  0.0865
26526W        W43374  10.426  15.778   3.202 -0.0304 -0.2792 -0.0363
26527W        W43375   3.492  13.247  12.200  0.0509 -0.0748  0.0480
26528W        W43376  17.007  16.843  16.308 -0.0744 -0.1199 -0.1410
26529W        W43377   4.024   0.584   3.096 -0.1421  0.4985 -0.1225
26530W        W43378  15.811   3.979   2.740  0.0557  0.1567  0.0895
26531W        W43379   9.063  15.233  17.462  0.2128 -0.0815  0.1832
26532W        W43380  16.075   7.901  14.801 -0.2840  0.0540 -0.5103
26533W        W43381  15.407   6.924   1.845 -0.0080 -0.0395 -0.1264
26534W        W43382   3.372  16.713  12.735  0.0328 -0.0069 -0.2423
26535W        W43383  12.454  15.942   4.677 -0.1202  0.0112 -0.1463
26536W        W43384  11.357  16.382  14.742 -0.1449  0.1490 -0.2230
26537W        W43385  16.158  11.804  17.635  0.1679  0.2080  0.1163
26538W        W43386   6.809   9.530  15.990 -0.0661 -0.0174 -0.2339
26539W        W43387   6.568   0.772   0.884  0.0552  0.0869  0.0151
26540W        W43388   2.850  15.693   5.365  0.0462 -0.2456 -0.1396
26541W        W43389  13.288  16.630  15.630  0.4199  0.1063  0.1154
26542W        W43390  13.142   0.020   0.784  0.3073 -0.2102  0.0633
26543W        W43391   4.629  10.809  15.897 -0.0141  0.1261 -0.1849
26544W        W43392   5.228  12.986   0.184 -0.0601  0.0740  0.3091
26545W        W43393  14.977   8.751  12.598 -0.1491  0.2353 -0.2119
26546W        W43394  15.422   9.901   6.090 -0.0989  0.0661 -0.0507
26547W        W43395   0.916   2.185   2.969  0.0248  0.0814  0.1344
26548W        W43396   4.951  12.105   5.330 -0.2610 -0.2743  0.1738
26549W        W43397   6.169  16.353   4.979 -0.1776  0.2052  0.0211
26550W        W43398   1.364   1.569   0.197 -0.2232  0.0756  0.0867
26551W        W43399  13.077  12.928  16.844  0.3197 -0.1340 -0.0524
26552W        W43400   2.423  14.599  12.485 -0.2041 -0.0504 -0.2050
26553W        W43401  16.135   1.549   2.809  0.0542 -0.1738 -0.1857
26554W        W43402   1.441  16.893   4.299 -0.0089 -0.2099  0.0812
26555W        W43403  12.677  11.912   1.385 -0.4567 -0.2524  0.0705
26556W        W43404   4.304   6.268   4.663  0.1551 -0.1078 -0.0822
26557W        W43405  10.102  14.942  14.482 -0.0183  0.3170  0.3722
26558W        W43406   8.830  13.578   4.478  0.2499  0.1116  0.0653
26559W        W43407  14.129  11.375   6.267  0.2864 -0.0427 -0.1303
26560W        W43408  10.974   6.387   0.510 -0.2278  0.0695  0.0861
26561W        W43409   4.632   8.410  13.079 -0.1148  0.0614 -0.2742
26562W        W43410   9.544   5.255  17.150 -0.0534  0.0559 -0.1114
26563W        W43411   5.216   5.374  16.503  0.1400  0.3049  0.0193
26564W        W43412  12.741   7.015  13.710  0.0094 -0.2135  0.3398
26565W        W43413  12.258  12.901   2.618 -0.1045 -0.1375  0.1745
26566W        W43414   5.957  12.441   1.455  0.1555 -0.1596 -0.0264
26567W        W43415  13.780  13.117  17.020  0.0749 -0.2893 -0.2135
26568W        W43416   5.244  10.830   1.100  0.2326 -0.0554 -0.3608
26569W        W43417   1.900  16.723  15.194 -0.1786  0.3169  0.1603
26570W        W43418  13.215   6.988   0.349  0.2136  0.1860 -0.0544
26571W        W43419   1.458  16.698   2.096 -0.2385  0.0407 -0.0019
26572W        W43420   7.228  13.847  17.751  0.0823 -0.1133 -0.0343
26573W        W43421  13.086  16.543  13.611  0.0257 -0.0696 -0.1022
26574W        W43422   7.710  13.382   3.889  0.1171  0.0365 -0.3062
26575W        W43423  12.866   8.154  14.543  0.0433 -0.2331  0.2184
26576W        W43424   0.935   7.354   0.553  0.0733  0.1943 -0.3944
26577W        W43425   8.134   1.464  16.335  0.1982 -0.1376 -0.2282
26578W        W43426  15.174  14.214   5.376 -0.0164 -0.0122 -0.0753
26579W        W43427   5.611   8.356   3.872  0.1559  0.1202 -0.1908
26580W        W43428   0.087   0.458   1.583  0.0551 -0.0620 -0.0731
26581W        W43429  15.877   7.737  12.735 -0.0866  0.0526  0.0511
26582W        W43430   9.579   6.622  17.708  0.0371 -0.1355  0.1114
26583W        W43431  10.438  16.984   3.072 -0.2442 -0.2220 -0.0424
26584W        W43432   6.369  16.216  15.842  0.1809  0.0902 -0.4889
26585W        W43433  13.299   7.454  15.008  0.0084  0.0941  0.0557
26586W        W43434   0.120   2.378   3.519  0.0343 -0.1519  0.0324
26587W        W43435  10.258   0.479  12.114  0.2245 -0.0466 -0.0816
26588W        W43436   0.562   6.861  12.488  0.1588  0.0282 -0.1049
26589W        W43437  11.741  10.636   4.926 -0.2042 -0.1229  0.0895
26590W        W43438   3.047  13.238  13.236 -0.2579  0.3002 -0.1135
26591W        W43439   1.314   3.556  17.313  0.2387  0.1962 -0.0190
26592W        W43440  14.315  14.431  12.355 -0.1820 -0.1101 -0.1472
26593W        W43441   3.812   2.893   4.816 -0.0058 -0.2150  0.0793
26594W        W43442  15.017   4.354   4.067 -0.2564  0.0094  0.0013
26595W        W43443   0.702   5.307  15.751 -0.1603 -0.2187  0.0814
26596W        W43444   1.028   8.837   3.504 -0.5950 -0.1726  0.3094
26597W        W43445   3.385   3.333  15.436 -0.1629 -0.0308  0.4222
26598W        W43446  14.936   7.889  15.281 -0.2027 -0.1361  0.1726
26599W        W43447  14.395  16.901  15.534  0.0247 -0.0204 -0.4862
26600W        W43448   6.607  12.092  12.139  0.2143 -0.0257  0.5108
26601W        W43449  16.863  14.785   1.259 -0.3262 -0.1042  0.1772
26602W        W43450   0.795  15.912  13.625 -0.2683  0.0006  0.2684
26603W        W43451   7.438  16.754  17.279  0.0491 -0.2637  0.1954
26604W        W43452   5.942   9.619   1.059 -0.0776  0.1315 -0.1536
26605W        W43453   7.300  16.572  12.796 -0.3523  0.1521 -0.2037
26606W        W43454   0.442   6.105  12.355  0.0585  0.1402  0.0953
26607W        W43455   9.573   2.148  17.760 -0.0969  0.0600  0.0388
26608W        W43456   1.182  13.111  17.753  0.2432 -0.1526  0.3557
26609W        W43457  15.975  15.379   2.428  0.0603  0.1418  0.1487
26610W        W43458   3.517   2.780   0.551 -0.2569  0.0362 -0.2559
26611W        W43459   2.647   0.614  17.054  0.1222 -0.0487  0.4074
26612W        W43460   4.299   7.456  14.588  0.3568 -0.2982 -0.2075
26613W        W43461   3.312  14.092  13.255 -0.1338 -0.3099  0.2063
26614W        W43462   7.818   5.952  16.064  0.0339  0.1106 -0.0410
26615W        W43463   6.785   5.089  12.715 -0.1803  0.1978  0.0293
26616W        W43464  15.437  16.229  14.582 -0.1462 -0.2089 -0.4432
26617W        W43465   8.018   9.035  14.742 -0.2972 -0.0222 -0.1378
26618W        W43466  11.915  13.884   2.394  0.3462 -0.0560 -0.2424
26619W        W43467  12.658  14.444  14.571  0.1437  0.2027  0.1429
26620W        W43468  11.153   3.707   4.334 -0.1248  0.0010 -0.0037
26621W        W43469   3.933   5.132   3.768  0.2057 -0.2142  0.0605
26622W        W43470  15.733   4.761  16.532 -0.1881 -0.3388  0.0790
26623W        W43471  10.651  15.657  16.523 -0.1107  0.0780 -0.0561
26624W        W43472   6.333  17.031   1.131 -0.1532 -0.3848  0.0040
26625W        W43473   3.472  14.805   5.437 -0.1238  0.2976 -0.3636
26626W        W43474   7.617   6.319  16.969 -0.0114 -0.1844  0.0973
26627W        W43475  13.084   7.068   3.964  0.2576  0.1854  0.1078
26628W        W43476   5.068  10.367   3.263  0.0820 -0.1029 -0.0653
26629W        W43477   8.905  14.894   1.404 -0.0135  0.2667  0.1084
26630W        W43478   5.199  12.337   2.427  0.1627  0.1774 -0.2173
26631W        W43479  11.749  15.289   1.376  0.1066  0.1432 -0.3443
26632W        W43480  15.621   4.932   5.330  0.3866  0.3130 -0.3365
26633W        W43481   0.148   0.313   5.562 -0.1993 -0.4969 -0.2198
26634W        W43482  10.178   5.277   1.154 -0.0078  0.0387  0.1312
26635W        W43483  14.573   6.562   1.431 -0.0558 -0.1799 -0.0564
26636W        W43484  12.938   1.404   2.103  0.0024 -0.0902  0.0807
26637W        W43485   7.208   6.903  13.155  0.1924  0.1516  0.0173
26638W        W43486   8.441  10.473  17.662  0.2883  0.4095  0.2004
26639W        W43487   7.884   0.876  13.653 -0.1121 -0.2665 -0.0320
26640W        W43488  14.455  11.020   4.572  0.0041  0.1361 -0.2552
26641W        W43489   1.870  14.872   0.569  0.1526 -0.1730  0.2966
26642W        W43490   8.576  16.061   1.802  0.0775 -0.2801 -0.1881
26643W        W43491   8.086  15.129  14.627 -0.1832  0.1131  0.0249
26644W        W43492   8.245   4.276  12.326  0.0102 -0.1142 -0.0282
26645W        W43493   7.412   0.841  12.546 -0.2159  0.0848 -0.0026
26646W        W43494   9.738   2.858  14.750  0.1668 -0.0339 -0.0792
26647W        W43495   1.258   0.677   1.140 -0.1800  0.0169 -0.3214
26648W        W43496   6.602   5.029  13.408 -0.2187 -0.0910  0.3152
26649W        W43497   6.579  13.553  12.225  0.1126 -0.2561  0.3081
26650W        W43498   5.336  13.061   5.159 -0.0514 -0.1484 -0.2400
26651W        W43499   6.389   7.122   1.799 -0.0890 -0.2475 -0.0366
26652W        W43500   7.780   9.750   0.447  0.0319 -0.0882 -0.1197
26653W        W43501   6.904   8.858  15.459  0.0748  0.2227 -0.3422
26654W        W43502   9.205  13.367  14.703 -0.1115  0.2178  0.2340
26655W        W43503  15.422  15.989   3.566  0.0392 -0.0125 -0.2996
26656W        W43504   4.544  13.375   5.387 -0.4063 -0.3546  0.0680
26657W        W43505  14.344   3.176   0.315 -0.1707 -0.1231  0.0397
26658W        W43506   5.126  12.778  16.470 -0.1129  0.0883  0.0544
26659W        W43507   6.891   5.079  14.767 -0.1167  0.0822  0.0541
26660W        W43508  13.716   5.788  17.682 -0.2074 -0.0693  0.1510
26661W        W43509  15.579  13.169  12.152 -0.1583 -0.1348  0.0999
26662W        W43510   8.530   6.657  13.291 -0.0879 -0.0944 -0.2213
26663W        W43511   9.303   6.727  13.734  0.2180  0.0313  0.0894
26664W        W43512  14.752   3.546   6.385  0.0705 -0.0021 -0.3472
26665W        W43513  16.679   9.914   5.164 -0.0340 -0.1288 -0.0782
26666W        W43514   8.135   2.197  11.650  0.0549  0.2818 -0.0554
26667W        W43515   2.101   6.984  13.035  0.2244  0.1809  0.2771
26668W        W43516  12.421   7.888  16.438 -0.2238 -0.2876  0.0134
26669W        W43517  13.942   1.042   0.102  0.2614 -0.0807  0.0269
26670W        W43518  13.680   3.751  17.753  0.0710 -0.0930 -0.0208
26671W        W43519   8.254  14.148   1.531 -0.0599 -0.2052  0.1347
26672W        W43520   1.900  16.402  13.499 -0.1361 -0.0818 -0.0161
26673W        W43521   8.989  15.209  14.754 -0.2139 -0.0281 -0.1146
26674W        W43522  13.950   0.340   1.439 -0.0171 -0.1072 -0.1404
26675W        W43523   4.435   3.624  15.598 -0.2996 -0.1859 -0.1031
26676W        W43524  10.219   0.008  10.854 -0.0208 -0.0925 -0.1406
26677W        W43525   2.248  14.656  13.842 -0.1901 -0.1103 -0.2857
26678W        W43526   7.630   9.067   4.771 -0.0547  0.1386  0.4505
26679W        W43527  11.165  11.835  17.061  0.2146  0.0900 -0.0087
26680W        W43528   4.182  16.536   3.970 -0.1009  0.3954  0.1719
26681W        W43529   1.757  11.037  16.806 -0.2193  0.0497  0.0272
26682W        W43530  14.270   1.506   0.321  0.0949  0.1703 -0.0387
26683W        W43531   3.768  16.763   0.021  0.1364 -0.0120 -0.0595
26684W        W43532   0.126  14.620   4.942  0.1570 -0.1516 -0.0948
26685W        W43533   7.371   0.950   3.301 -0.1766  0.0873 -0.1189
26686W        W43534  10.714  15.373   4.456 -0.3048  0.1541  0.0107
26687W        W43535   7.723   7.310   4.290 -0.1510 -0.4033 -0.1303
26688W        W43536   7.620   6.780  12.470  0.1845  0.2469  0.2563
26689W        W43537   0.903   5.972  12.526 -0.1486  0.1590 -0.0712
26690W        W43538  12.595  10.989  12.498  0.2095  0.0951  0.1363
26691W        W43539  14.308   7.216   2.633  0.0888  0.0380 -0.1263
26692W        W43540  14.857  16.664  17.280  0.1179 -0.0802 -0.3480
26693W        W43541   6.465  15.879   0.524  0.1653  0.1101 -0.0450
26694W        W43542   1.320   0.702  17.519 -0.0678  0.2610  0.0066
26695W        W43543  12.517  14.236   4.024  0.3287 -0.1180  0.0716
26696W        W43544  10.200   0.548   1.268  0.0124 -0.1738 -0.1212
26697W        W43545  15.725  15.942  12.597  0.0029  0.1471 -0.0110
26698W        W43546   3.643  14.291  16.421  0.0353 -0.1493  0.0156
26699W        W43547  16.167   2.429   2.917 -0.0933  0.1487 -0.1315
26700W        W43548   9.730  15.862   5.544  0.1194 -0.0066  0.1033
26701W        W43549  13.063  15.852  16.015  0.1675 -0.1349 -0.0237
26702W        W43550   6.952   6.975   2.998 -0.2417  0.1518 -0.2599
26703W        W43551   8.221  16.713   3.182  0.1269  0.2977 -0.0540
26704W        W43552  10.182   1.338  14.025  0.2041  0.0785 -0.1801
26705W        W43553   1.653   7.362   4.359 -0.1943  0.1534 -0.0621
26706W        W43554  10.914   7.845   1.033  0.0257  0.2279 -0.2476
26707W        W43555  12.689   0.908   4.900 -0.1563  0.2007  0.1649
26708W        W43556  16.040  12.497  16.411  0.0396 -0.0616  0.2160
26709W        W43557   0.665   4.732  17.155 -0.1277  0.0648  0.0572
26710W        W43558  13.126  14.832  12.433  0.0824  0.0834 -0.0485
26711W        W43559   9.837  11.550   0.953 -0.1095 -0.0138  0.0733
26712W        W43560  11.274  11.553   2.404 -0.0453 -0.0962 -0.3686
26713W        W43561   4.192   3.648   2.079 -0.4017  0.1184  0.1229
26714W        W43562  11.803  13.577   4.144 -0.1766 -0.3166  0.1171
26715W        W43563   1.242   9.212  12.758 -0.2958 -0.2222 -0.3074
26716W        W43564  14.963   6.841  12.540 -0.1592 -0.1141  0.1394
26717W        W43565   7.231   3.199   0.042 -0.2080 -0.1665 -0.1144
26718W        W43566   2.436  10.632   5.624 -0.1976  0.3030 -0.0717
26719W        W43567  10.051   7.099   0.786  0.2412 -0.0857  0.1351
26720W        W43568   6.944   6.403   3.299 -0.0884  0.0794 -0.0934
26721W        W43569  16.621   6.792  16.266  0.0978 -0.1894  0.1114
26722W        W43570  10.371   3.709  15.651  0.0711 -0.1010  0.2676
26723W        W43571   5.640  14.271   2.644  0.1115  0.1850 -0.2897
26724W        W43572   9.609   0.455  17.163 -0.0900 -0.1851 -0.0111
26725W        W43573  14.344  16.603   3.134  0.3915  0.0237  0.0441
26726W        W43574  13.000  14.782  13.637  0.2027  0.0083 -0.1085
26727W        W43575   7.896   9.296   0.531  0.0450 -0.0097 -0.2694
26728W        W43576   8.055   1.784  15.287 -0.0679 -0.0504  0.0133
26729W        W43577   0.524   1.635  12.161 -0.2402  0.1173 -0.2201
26730W        W43578  16.055   4.429  12.166  0.1051  0.1343 -0.1002
26731W        W43579  10.478  10.638  16.497  0.2338  0.0477 -0.0647
26732W        W43580   2.921  10.680  16.486  0.2436 -0.1119 -0.1737
26733W        W43581   6.481  16.433  13.132 -0.3589 -0.1100  0.0688
26734W        W43582   7.718   1.850   2.290 -0.1702  0.0242  0.3795
26735W        W43583  10.993   3.678  12.039 -0.2247 -0.0781  0.3499
26736W        W43584  10.655   1.404   0.393 -0.1121  0.0780  0.1451
26737W        W43585  13.998   4.420  14.962 -0.3796  0.0295  0.1844
26738W        W43586   9.244  10.283  13.409 -0.0391 -0.2801  0.0645
26739W        W43587   9.896   7.413  12.858  0.1144 -0.4741  0.1195
26740W        W43588   0.762   8.482   0.239  0.1559  0.1199  0.1396
26741W        W43589   9.373   4.245  13.239 -0.1537  0.4280  0.0191
26742W        W43590  16.448   2.061   3.130 -0.0338 -0.2064 -0.1356
26743W        W43591  10.018  10.810   0.480  0.0477 -0.2948 -0.1154
26744W        W43592   8.584   0.437  17.432 -0.1935 -0.0774 -0.1589
26745W        W43593   8.456  11.963   3.535  0.1331 -0.1254 -0.3207
26746W        W43594   3.318  13.044  17.510  0.2120  0.1378 -0.1835
26747W        W43595   6.636  14.490  13.069  0.1679  0.3241  0.0685
26748W        W43596   5.422  10.696   0.634  0.1654 -0.0502  0.0350
26749W        W43597  11.844  14.321   3.848  0.0128  0.0470 -0.0520
26750W        W43598  12.537   8.915   1.357 -0.1056 -0.2172 -0.0143
26751W        W43599   3.175  15.916  15.576  0.0076  0.0670 -0.3087
26752W        W43600  12.715   1.342   4.688  0.1509 -0.0257  0.1347
26753W        W43601   5.859   4.638  14.285  0.3597  0.1083  0.2071
26754W        W43602   7.021  15.416  16.222  0.0686  0.2378  0.0549
26755W        W43603  13.322  11.763  16.122 -0.2078 -0.0241 -0.0523
26756W        W43604  15.994  10.600   2.670  0.2109 -0.0008 -0.2109
26757W        W43605   0.530   8.868  12.592  0.0846  0.0638  0.0439
26758W        W43606   4.431   2.367   0.949 -0.0771 -0.3154 -0.1695
26759W        W43607   3.902  15.089   0.514  0.1687 -0.1163 -0.2396
26760W        W43608   2.508  11.079  15.089  0.0289 -0.7203  0.2198
26761W        W43609  14.994  15.480  12.020  0.1477  0.0572  0.0443
26762W        W43610  12.579  14.431   3.260 -0.1189 -0.0219 -0.2347
26763W        W43611   4.014   1.273  13.610  0.0698  0.1237  0.1992
26764W        W43612  16.466   9.470   2.898  0.4584 -0.1403  0.2869
26765W        W43613  10.675   7.170  15.767 -0.1863 -0.2286 -0.3141
26766W        W43614  11.907  13.405  13.893 -0.0569 -0.1654 -0.1018
26767W        W43615   8.215   9.615  13.431  0.1266  0.0141 -0.2804
26768W        W43616  16.026   3.972  16.705 -0.3042  0.0068 -0.1218
26769W        W43617   7.834   7.556  15.722 -0.1784 -0.1667 -0.3731
26770W        W43618   7.727  17.035   1.623  0.2475 -0.2077  0.1464
26771W        W43619   2.522   3.520  16.888 -0.0322  0.1536 -0.0966
26772W        W43620   6.118  12.147  14.022 -0.0559 -0.1361 -0.3571
26773W        W43621   5.269  15.017   4.384  0.1370 -0.1364  0.1807
26774W        W43622  10.146  15.832   0.763 -0.0989 -0.1002 -0.0285
26775W        W43623  16.910   9.169   0.183  0.0361 -0.1166 -0.0278
26776W        W43624  11.372  11.433  13.559  0.0701  0.0580  0.1047
26777W        W43625   3.068  16.526  15.675  0.2673 -0.1494  0.0589
26778W        W43626   7.608  11.913  14.929  0.0385 -0.1372  0.4411
26779W        W43627   9.087  14.293  14.547 -0.2212  0.0733 -0.2205
26780W        W43628  15.244   7.688   0.132  0.0280  0.1557 -0.0193
26781W        W43629   4.995   0.116   3.842  0.1172 -0.0349  0.0932
26782W        W43630   9.832  13.422  12.452 -0.0209 -0.2922 -0.1433
26783W        W43631   8.847   3.023  11.842  0.0054  0.0416  0.2344
26784W        W43632   3.545  11.030  15.382 -0.0687  0.0321  0.1727
26785W        W43633  14.024   7.474   4.393 -0.1114  0.1883 -0.0860
26786W        W43634  10.297   7.545  15.005  0.0409 -0.0454 -0.0818
26787W        W43635   7.690  12.854  11.972  0.3031 -0.0127 -0.0063
26788W        W43636   4.392  11.193  12.133  0.2295 -0.1289 -0.0816
26789W        W43637  13.886   1.539   2.951  0.1138  0.1577  0.2132
26790W        W43638  15.281   7.136   1.380  0.2926  0.1942 -0.2326
26791W        W43639  14.494   0.394   3.116  0.0008 -0.1587 -0.1943
26792W        W43640  12.782  12.756   5.538  0.0745  0.1125 -0.1228
26793W        W43641  16.215   7.039   4.151 -0.1370  0.1055 -0.0256
26794W        W43642  12.502  14.135  16.306 -0.0460 -0.2602  0.0664
26795W        W43643   6.900  13.500  15.528  0.3476  0.0239 -0.0305
26796W        W43644   7.251   5.295  15.085  0.0492 -0.0702 -0.0564
26797W        W43645   9.563   6.901   0.765 -0.1961  0.0530 -0.0963
26798W        W43646   4.328  11.782   4.633 -0.1860 -0.1438  0.1204
26799W        W43647  11.932  15.424   0.188  0.0163 -0.0765 -0.0091
26800W        W43648   7.742   3.422   0.461  0.2346  0.0591  0.1011
26801W        W43649  13.468   3.859   1.395 -0.2221  0.1440 -0.0747
26802W        W43650   2.259   1.214   1.735 -0.0802 -0.1609  0.2147
26803W        W43651  15.914  16.671   0.423  0.0938 -0.0786  0.1901
26804W        W43652  14.755   0.441  13.153  0.0709  0.0990  0.2948
26805W        W43653   6.980  16.308  13.199  0.1940  0.1003 -0.0271
26806W        W43654   3.881  11.263   3.633  0.1677 -0.1151  0.0281
26807W        W43655  13.867   9.348   3.328 -0.3455  0.1644  0.1452
26808W        W43656   7.956   3.098  14.902 -0.0693 -0.0809  0.0820
26809W        W43657   6.043  12.934   6.805  0.1208 -0.1406  0.1546
26810W        W43658   4.719  15.643   0.363 -0.2025 -0.1232 -0.1738
26811W        W43659   1.774   7.971  13.327 -0.1882  0.1218  0.1142
26812W        W43660   1.371   7.984   5.002 -0.2983 -0.1845 -0.2113
26813W        W43661   5.134   6.571  13.013  0.0787 -0.0928 -0.1259
26814W        W43662  13.043   7.265   2.771 -0.1732 -0.1537 -0.0711
26815W        W43663  12.244   7.870   5.800 -0.2996  0.1988 -0.0653
26816W        W43664  14.989   8.286  16.131  0.0752  0.1105  0.1295
26817W        W43665   2.742  14.110   2.967  0.0651 -0.0602 -0.5458
26818W        W43666   5.359  15.622  16.511  0.2512  0.1120 -0.2219
26819W        W43667   6.692   0.765  15.975 -0.0048  0.0520 -0.1025
26820W        W43668  15.862  12.556  15.403 -0.2126  0.2862 -0.1747
26821W        W43669  13.901  14.443  14.514 -0.0726 -0.0966 -0.0256
26822W        W43670  12.237  11.717   5.153  0.0862 -0.0088 -0.0243
26823W        W43671   2.334   6.712  16.349 -0.0820  0.0946 -0.0763
26824W        W43672  12.340   2.438   0.441  0.0650 -0.0893  0.4096
26825W        W43673  10.962  11.009  15.766 -0.0659  0.1085  0.0124
26826W        W43674  13.725   8.774  16.419 -0.1012 -0.2757  0.1564
26827W        W43675  14.235   0.903   1.935  0.1602 -0.0144 -0.1693
26828W        W43676  15.549   5.814   5.228 -0.1985  0.0991 -0.2268
26829W        W43677   2.358   1.280  16.524 -0.2775  0.4794  0.2599
26830W        W43678  10.465  11.066  14.097 -0.1709 -0.0086 -0.1549
26831W        W43679   6.649   5.583   5.361  0.1146  0.0012  0.1271
26832W        W43680  11.040  14.826   0.939 -0.1104  0.0769  0.1655
26833W        W43681   7.660   6.166  13.240 -0.2354 -0.1037  0.1657
26834W        W43682   8.758   0.432  15.952 -0.1160  0.2727 -0.1616
26835W        W43683  14.899   4.675   3.693 -0.1378 -0.0197  0.1565
26836W        W43684   0.821  13.080   3.627 -0.2131  0.2706  0.2615
26837W        W43685   5.425   8.807   4.757 -0.1688 -0.1198  0.0296
26838W        W43686  11.697  14.441  14.205  0.0320  0.0490 -0.1137
26839W        W43687   9.346  15.552   5.512  0.0789 -0.1295 -0.0950
26840W        W43688   6.337  16.319   3.497  0.1328 -0.3001  0.0486
26841W        W43689   2.343  15.673  17.785  0.1435 -0.0803 -0.0238
26842W        W43690   7.034  11.736  14.935 -0.1056  0.0069 -0.1162
26843W        W43691   6.557  10.312   5.320  0.0329  0.0817  0.1146
26844W        W43692   9.213   9.645  15.086 -0.3183 -0.3200 -0.2804
26845W        W43693   1.414   7.066   5.343 -0.2420 -0.1353 -0.0100
26846W        W43694   3.962  12.151   5.535  0.1835  0.2009 -0.0245
26847W        W43695   5.874   4.181  15.146  0.2785 -0.0112  0.0811
26848W        W43696  13.329   7.890  15.921  0.0512 -0.3788  0.1990
26849W        W43697   7.863  13.045   4.285  0.4405  0.0062  0.1285
26850W        W43698  14.315   2.765  13.024  0.1384 -0.1557 -0.1828
26851W        W43699  16.856  13.800  17.659 -0.2331  0.1905  0.3451
26852W        W43700  15.154  16.444   2.840  0.0958  0.1668  0.1408
26853W        W43701   8.176   8.711  15.147  0.1680 -0.2739 -0.0855
26854W        W43702   8.309   1.610   5.568  0.0201  0.2515  0.1157
26855W        W43703  13.140   9.689  16.430  0.0019  0.2107  0.1506
26856W        W43704   0.196   3.476  13.697  0.0397 -0.1817 -0.2292
26857W        W43705  16.198  16.733  15.086  0.1509 -0.1893  0.2084
26858W        W43706   6.265  14.249  15.364  0.2749  0.0566 -0.1318
26859W        W43707   3.179  12.263  11.862 -0.2749 -0.0669 -0.1979
26860W        W43708  15.368  11.808   3.811 -0.5152  0.1213  0.0158
26861W        W43709  14.900  10.591   2.147  0.0262  0.1075 -0.1480
26862W        W43710   8.138  15.010  16.526 -0.3377  0.0979  0.0614
26863W        W43711   3.280   6.345  11.706  0.1830  0.1069 -0.2329
26864W        W43712  13.826   8.050  16.019 -0.0872  0.1533 -0.1771
26865W        W43713   2.016  11.356  11.863 -0.1000  0.1469 -0.2097
26866W        W43714   8.215  15.205  11.711  0.5147 -0.0128 -0.0510
26867W        W43715   1.608   6.794  12.793 -0.1472  0.1525  0.4391
26868W        W43716  15.766  11.229   3.004 -0.0790  0.2054  0.0247
26869W        W43717  11.861   1.619  14.117  0.1867  0.3381 -0.0360
26870W        W43718   8.384  14.351   4.714  0.0464 -0.0229 -0.0486
26871W        W43719   9.904  16.555  12.843 -0.0185 -0.6047  0.0520
26872W        W43720   8.012  12.992   0.551  0.0413  0.0737 -0.0459
26873W        W43721   1.107   9.111   3.050  0.0608  0.1760  0.4043
26874W        W43722  10.198  12.335  12.779 -0.0209  0.0108 -0.0343
26875W        W43723  13.156   2.991   5.671 -0.0291 -0.0650  0.2443
26876W        W43724   7.547   7.597  13.626  0.1791 -0.2616  0.1842
26877W        W43725  15.145  11.404   1.727  0.0391  0.0602 -0.0981
26878W        W43726  13.087  13.769  17.442 -0.1134  0.0813 -0.1656
26879W        W43727   8.409  16.128   2.543 -0.0523 -0.2937 -0.2346
26880W        W43728  10.060  16.416   0.576  0.0257  0.0299  0.0343
26881W        W43729   9.435   5.503   0.715 -0.1085  0.1183 -0.1477
26882W        W43730  16.641  11.146  16.754 -0.1682 -0.0147 -0.1152
26883W        W43731   3.847  15.718   2.218  0.0792 -0.0085 -0.0916
26884W        W43732   5.405   7.844   3.716  0.3531 -0.1761 -0.0374
26885W        W43733   7.968  12.472   0.396  0.1326 -0.0947 -0.3553
26886W        W43734   4.681  12.257   0.118 -0.1369 -0.1579 -0.1194
26887W        W43735   8.016   2.224   0.719 -0.3134  0.3397 -0.4828
26888W        W43736   3.197   6.648   3.653  0.0871 -0.1019  0.1289
26889W        W43737   2.731  15.162   3.451 -0.0797 -0.2408  0.0659
26890W        W43738   6.007  11.698  14.282 -0.2259 -0.0218  0.0331
26891W        W43739   3.317   7.060   4.417  0.2600 -0.2110 -0.2049
26892W        W43740  14.364  15.338   2.897  0.0915  0.1587 -0.4464
26893W        W43741   7.943   0.150   5.895 -0.2354 -0.1587  0.1854
26894W        W43742   6.002  13.042  14.755  0.1264  0.0917  0.2022
26895W        W43743  11.613  11.007  14.950  0.1000 -0.0442  0.1239
26896W        W43744  14.280   7.802   2.900 -0.4453  0.3790 -0.0282
26897W        W43745  16.154  12.013   2.819  0.0856  0.2107 -0.3877
26898W        W43746  15.531   0.304  16.303  0.0211  0.0959  0.0172
26899W        W43747   4.616  12.061  12.640  0.0276  0.0925  0.0953
26900W        W43748  10.386   3.865  16.640 -0.1832 -0.0024  0.0193
26901W        W43749   1.682   6.399   5.929  0.0200  0.0204  0.2330
26902W        W43750   5.334  10.017   5.108  0.2102 -0.1913 -0.0348
26903W        W43751   8.800   9.672  17.696 -0.1247  0.0288 -0.2189
26904W        W43752   8.643  16.745  13.203  0.2491 -0.0590 -0.3719
26905W        W43753  11.708   3.217   2.164 -0.2585 -0.0359  0.0359
26906W        W43754   2.788   0.846  14.051  0.0560  0.1217 -0.1519
26907W        W43755   5.403   9.879  12.730  0.0271 -0.0010  0.0355
26908W        W43756   2.205   0.969  15.582 -0.0715 -0.0500 -0.3162
26909W        W43757   1.693  13.169  13.067 -0.0404 -0.1763  0.2686
26910W        W43758  15.249  14.569  17.587 -0.0044  0.2609  0.0354
26911W        W43759   0.385   6.780  14.194  0.2315  0.3327  0.0255
26912W        W43760  11.808   6.186   5.002 -0.1921 -0.1438  0.0819
26913W        W43761  15.951  15.110   2.873  0.1041 -0.0483 -0.2185
26914W        W43762   7.244   0.528  14.047  0.1188 -0.3037 -0.0527
26915W        W43763  12.149   8.528  15.972  0.1039 -0.1700  0.0075
26916W        W43764   0.733  13.662  15.140 -0.2221 -0.0943  0.2296
26917W        W43765   2.185  13.245  12.854  0.0728  0.4257  0.1936
26918W        W43766  14.982   0.457  11.394  0.0935 -0.1540 -0.2257
26919W        W43767  12.377  12.104  13.374  0.0602 -0.2219  0.0493
26920W        W43768  11.482   4.162   3.833 -0.1425  0.3562 -0.0081
26921W        W43769  10.229   8.604   3.428  0.1481  0.0797  0.1072
26922W        W43770  16.180   9.706  13.615 -0.0210  0.0490  0.3161
26923W        W43771   3.827   6.678  14.126 -0.3101 -0.0137 -0.2304
26924W        W43772   2.908  15.270  13.619  0.1312  0.0282  0.2252
26925W        W43773  13.165  10.973  15.676 -0.0701  0.1520  0.1992
26926W        W43774  12.472   3.333  12.554 -0.1625  0.4719  0.0040
26927W        W43775   4.436   0.494   0.530  0.0864 -0.1840  0.2018
26928W        W43776   0.904  12.007   3.270 -0.2414  0.3360  0.0943
26929W        W43777  16.129  15.193  17.497 -0.2110  0.0470  0.1847
26930W        W43778   8.735  12.264  12.440  0.2215  0.0975  0.0696
26931W        W43779   7.286   7.815  12.862 -0.2269  0.1669 -0.0276
26932W        W43780  13.603  15.786  16.183  0.0947 -0.1538 -0.0139
26933W        W43781   8.815   5.153  13.396 -0.1147 -0.3934 -0.1034
26934W        W43782  16.241  11.088  17.135  0.0552  0.1490  0.4285
26935W        W43783   6.767   7.940   5.680  0.0926 -0.0139  0.0782
26936W        W43784  12.200   1.714   2.311 -0.1101  0.1118 -0.0284
26937W        W43785   3.094  12.781  12.864 -0.0089  0.1490 -0.0234
26938W        W43786   2.730   4.991   2.070 -0.0522 -0.0564 -0.1815
26939W        W43787   4.626   7.334  17.151  0.0427  0.0843  0.2276
26940W        W43788   7.394  16.747   1.343  0.2025  0.0895 -0.0821
26941W        W43789  11.691  11.837  12.847 -0.1033  0.1858 -0.0532
26942W        W43790   3.043  15.157   0.976 -0.0934  0.1675  0.0672
26943W        W43791   0.818  13.762   5.898 -0.1005  0.4850  0.0146
26944W        W43792  10.578  13.156  15.277  0.0070  0.1229 -0.1986
26945W        W43793  10.578   0.314  15.904 -0.2982  0.2023 -0.2935
26946W        W43794   4.079   0.954  17.159  0.2958  0.0098  0.1133
26947W        W43795  14.282  15.848   2.729 -0.3629  0.0724  0.0535
26948W        W43796  13.637   9.406   0.196 -0.2609 -0.2259  0.0610
26949W        W43797   8.856   7.310  12.221 -0.1262  0.0619 -0.1342
26950W        W43798   3.489   4.020  17.089  0.2438  0.0042 -0.0561
26951W        W43799   9.305   7.560   0.093  0.0300  0.0134 -0.0917
26952W        W43800   4.724   8.107  12.096 -0.0813  0.4242 -0.0594
26953W        W43801   2.388   4.591  15.265 -0.2362  0.2670  0.0454
26954W        W43802  14.643   4.147   5.864 -0.0172 -0.1683 -0.1391
26955W        W43803  13.348   5.401   5.431  0.0137  0.4494  0.3059
26956W        W43804  16.416  13.099  15.587 -0.1045  0.0214  0.1407
26957W        W43805   7.995   0.419  13.462  0.0590  0.0824 -0.2744
26958W        W43806  15.894  13.921  12.397 -0.2721  0.1818  0.0893
26959W        W43807  15.031   0.306   4.661  0.4081  0.0374  0.2569
26960W        W43808   7.781   0.782   0.103  0.0261 -0.2083  0.0412
26961W        W43809   0.519  12.376  13.194  0.1005 -0.0918  0.0502
26962W        W43810   6.368   6.123   3.896  0.1370 -0.1899 -0.0681
26963W        W43811   4.638   6.215  14.063  0.1140  0.1053  0.0613
26964W        W43812  13.451   9.289  17.465 -0.0882 -0.2129  0.0149
26965W        W43813  12.565   4.178  15.284  0.4603  0.2999  0.0364
26966W        W43814  17.004   3.418   4.567 -0.0360 -0.0027 -0.1677
26967W        W43815  15.840  11.497   0.419 -0.1890 -0.3552  0.1821
26968W        W43816  11.909   2.480   0.683 -0.0734 -0.2150 -0.2161
26969W        W43817   5.158   4.852  16.762  0.4484  0.0199  0.3258
26970W        W43818  12.735  10.610   4.758 -0.3563  0.0353  0.0339
26971W        W43819   7.689   9.902   1.479 -0.2368  0.2564  0.0140
26972W        W43820  16.571   4.967   5.064  0.0444  0.0305  0.3106
26973W        W43821  11.771  12.287  16.784  0.0933 -0.1666 -0.0970
26974W        W43822   8.335  13.656   0.650 -0.0360  0.2358 -0.0169
26975W        W43823   8.495   6.368  16.109 -0.0075 -0.2034  0.1074
26976W        W43824   8.975   2.127  16.410 -0.1461  0.1159  0.2301
26977W        W43825   1.029  16.095  12.782 -0.2478  0.0345  0.0551
26978W        W43826   4.732  12.660  14.700  0.1492 -0.0779  0.1935
26979W        W43827  16.822   3.846  13.044  0.0999  0.1276 -0.4494
26980W        W43828  12.518  15.518  13.688 -0.0052 -0.2029  0.1697
26981W        W43829   1.814  10.251   3.694 -0.0687  0.0474  0.0315
26982W        W43830   3.557   9.000  15.640  0.2207  0.1023 -0.0312
26983W        W43831   9.323   6.587   2.027  0.0905  0.0198 -0.0939
26984W        W43832   2.558   2.879   0.200  0.0386 -0.4319 -0.3093
26985W        W43833   4.599  14.508  16.236  0.0921 -0.0604 -0.2385
26986W        W43834   5.345   3.953  17.050 -0.1010  0.3195 -0.0375
26987W        W43835   0.112   4.710  14.207 -0.1525  0.1150  0.1346
26988W        W43836  13.723  12.609  14.996 -0.0413  0.0848 -0.0664
26989W        W43837  10.863   8.142   0.562 -0.0533  0.1391 -0.0374
26990W        W43838   7.618  15.868   1.822 -0.0810 -0.2070 -0.2494
26991W        W43839   6.448  12.268   2.024 -0.1159 -0.2006  0.4361
26992W        W43840   4.488   3.984  12.985 -0.0340 -0.1259 -0.0459
26993W        W43841   6.146  15.024   3.468 -0.0781  0.4290  0.0725
26994W        W43842  15.292   8.716   0.001  0.2413  0.0495  0.2721
26995W        W43843  15.082   0.675   2.346 -0.2278  0.0194 -0.1826
26996W        W43844  14.085  11.369  12.842 -0.1307 -0.0791  0.1862
26997W        W43845   3.414  15.869  16.949 -0.0213 -0.2900  0.2301
26998W        W43846  11.496   4.933   2.530  0.2340  0.0986 -0.1564
26999W        W43847   2.236   5.497   1.615  0.0770  0.0392  0.1071
27000W        W43848   0.401   1.178  16.196 -0.1849  0.1677 -0.2894
27001W        W43849   4.665  16.782  15.499 -0.0109 -0.2154 -0.0009
27002W        W43850  16.707   9.855  17.559  0.0048 -0.0710 -0.1554
27003W        W43851   0.832  13.161   2.345 -0.2458  0.2146 -0.0832
27004W        W43852  13.470   1.643   2.762 -0.0330 -0.0362 -0.2819
27005W        W43853  10.341  12.218   2.135 -0.2232 -0.2421  0.0456
27006W        W43854  16.043   1.938  11.474  0.0403  0.1557  0.0198
27007W        W43855   8.909   6.232   4.783 -0.0977  0.0952  0.1242
27008W        W43856  15.980  13.528  14.076 -0.1596  0.0010 -0.3096
27009W        W43857   5.471   3.853   5.104 -0.0351  0.2075  0.1116
27010W        W43858   9.677  16.616  15.261 -0.0379  0.1681 -0.0347
27011W        W43859  10.468   6.155   1.289 -0.0435  0.0799 -0.1226
27012W        W43860  13.249  11.943  17.181 -0.1694  0.1509  0.0298
27013W        W43861  13.092   4.139  12.899  0.2146 -0.1232  0.0587
27014W        W43862  10.831  16.480  13.518 -0.1694  0.2258 -0.1408
27015W        W43863  15.520  14.640  17.107  0.3413 -0.0057 -0.0270
27016W        W43864  10.163   0.138   3.438 -0.0145 -0.2519 -0.0438
27017W        W43865   3.127   3.773   4.695  0.3266 -0.4140  0.2524
27018W        W43866   5.931   6.590   5.659 -0.1659  0.4482  0.0716
27019W        W43867  12.041   7.260  14.323  0.1239  0.0298  0.2144
27020W        W43868   3.689   7.649  16.676 -0.2657  0.1651  0.0366
27021W        W43869   7.253   8.620  12.354 -0.0056 -0.0983  0.0862
27022W        W43870   4.612   1.078   0.159  0.2414 -0.1988 -0.2413
27023W        W43871   8.086   9.924   1.776  0.1512 -0.0332 -0.0714
27024W        W43872  10.355   4.444  12.140  0.0796 -0.2711  0.0216
27025W        W43873   9.808   7.978  13.817  0.1219 -0.2295  0.2012
27026W        W43874   0.805  15.657   1.432 -0.2975 -0.4933 -0.3233
27027W        W43875   6.939   1.734  13.244  0.4080  0.0450  0.1401
27028W        W43876   4.717   6.775   2.567  0.1104 -0.2657  0.1037
27029W        W43877  13.635   1.610   2.276 -0.0225 -0.0981  0.0657
27030W        W43878   4.806   9.369  14.209 -0.3609 -0.1472  0.1501
27031W        W43879  10.836  11.667  13.508 -0.0512 -0.0623 -0.0367
27032W        W43880   6.121  11.241  14.677  0.0143  0.1488 -0.0419
27033W        W43881   3.856   4.758   0.934  0.0475 -0.2022  0.1840
27034W        W43882   8.251  14.649  12.976 -0.2913  0.0995 -0.0601
27035W        W43883   5.856  10.958   0.726 -0.1377  0.0233  0.2442
27036W        W43884   8.472   6.102   3.357 -0.0780 -0.0190  0.1696
27037W        W43885   6.960   6.517   1.761 -0.0187 -0.1144  0.2004
27038W        W43886   1.677   1.084  17.178 -0.0347 -0.2083 -0.0857
27039W        W43887  15.320  17.048  15.087  0.0993 -0.0918 -0.0767
27040W        W43888  12.782   7.733  16.895  0.1840  0.2287 -0.0499
27041W        W43889  11.396   3.963  12.210  0.0516  0.4998  0.0204
27042W        W43890   1.776   9.957  17.689  0.0905  0.3138 -0.1746
27043W        W43891  12.023   3.371   4.102 -0.0986  0.2138 -0.1778
27044W        W43892   1.613  12.252   4.103  0.0594 -0.2359 -0.0852
27045W        W43893  10.154   1.299   0.365 -0.0119  0.0223 -0.0525
27046W        W43894   4.728  10.955  16.380  0.0658  0.1727  0.0051
27047W        W43895  14.549  14.430   0.531  0.1102  0.2065 -0.0253
27048W        W43896   1.047  14.856   2.566  0.1395  0.2009  0.0642
27049W        W43897   1.359  15.486   3.284  0.2642 -0.0602  0.0343
27050W        W43898   8.749   2.565   1.038 -0.1458 -0.0543 -0.1447
27051W        W43899   4.113  14.744   3.661 -0.0037 -0.1454  0.1318
27052W        W43900  14.218  17.027   4.848  0.0774  0.1929  0.1875
27053W        W43901  14.823   2.030   1.655  0.0501  0.1211  0.2253
27054W        W43902   6.186   3.037   3.485 -0.0101 -0.1695 -0.2162
27055W        W43903   4.311   2.344  12.886  0.0858  0.1345  0.3691
27056W        W43904  14.578  11.482  14.287  0.0458  0.0848 -0.1489
27057W        W43905  11.787  15.553   0.722 -0.1338  0.1249  0.1241
27058W        W43906  13.275   4.454  17.206  0.1966  0.3228  0.1386
27059W        W43907   3.976  16.497   4.429  0.0330 -0.0675  0.0140
27060W        W43908   5.128  11.163   1.502 -0.2046 -0.1518 -0.2733
27061W        W43909  14.147   1.421  13.783  0.2380  0.3066  0.0500
27062W        W43910   5.490   8.515   5.402 -0.1529 -0.0201  0.1184
27063W        W43911  12.527   6.227  13.697  0.2292 -0.0999  0.0955
27064W        W43912  10.854   2.131   4.564 -0.1245 -0.0328 -0.1720
27065W        W43913  15.685   5.686  13.676  0.1950  0.3174  0.1161
27066W        W43914   2.135   4.454  15.649 -0.0403  0.0808 -0.0963
27067W        W43915  16.109  13.895  13.735 -0.1409  0.3058  0.2832
27068W        W43916   1.244   1.303   2.115  0.1827  0.2898  0.0426
27069W        W43917   7.024   5.294  13.768 -0.2013 -0.0728  0.0393
27070W        W43918   8.751   7.005  16.671 -0.1991  0.0323 -0.2191
27071W        W43919   8.256   7.778  15.225  0.0791 -0.1466  0.1598
27072W        W43920   6.732   6.336  16.606 -0.0549  0.2944 -0.0338
27073W        W43921  15.654  14.355  15.105  0.0434 -0.2503 -0.0465
27074W        W43922  17.054  11.184   3.753  0.0671 -0.0551 -0.2071
27075W        W43923   4.247  15.925   4.359 -0.1308 -0.1031  0.2864
27076W        W43924   3.683   0.509  15.411 -0.1317  0.1879  0.0574
27077W        W43925  12.389   4.995  17.638  0.0635 -0.2192  0.2170
27078W        W43926  15.007  13.039   4.920  0.1204 -0.1140 -0.3397
27079W        W43927   0.173   8.139  16.279  0.1113 -0.1386  0.1902
27080W        W43928   2.648  10.261  17.470  0.0720  0.1960  0.0537
27081W        W43929  14.781  16.955   2.410  0.2888  0.2645  0.1009
27082W        W43930  10.384   7.226  16.737 -0.1891  0.0324 -0.0093
27083W        W43931   6.169   0.467   2.672 -0.1132  0.1364  0.0292
27084W        W43932  16.690   5.406  15.699 -0.2361 -0.1424 -0.0322
27085W        W43933  10.190   6.283   2.636 -0.3945 -0.3046  0.4027
27086W        W43934  11.366  15.590  14.675 -0.1428 -0.1189  0.1578
27087W        W43935   7.421   2.720  15.920 -0.1364  0.0742 -0.0051
27088W        W43936   3.473  11.294   2.299  0.0763 -0.0895 -0.1499
27089W        W43937   0.990  10.433   2.286 -0.1306 -0.0681  0.0649
27090W        W43938  13.578   0.207   1.054  0.1021  0.0640 -0.1006
27091W        W43939   2.903   4.462  17.575  0.1130  0.3380 -0.0219
27092W        W43940  16.603   1.344  16.747  0.0377  0.0201 -0.2507
27093W        W43941   9.173   0.763  16.669  0.0126  0.0859  0.1564
27094W        W43942  12.937  16.858   6.477  0.0709  0.1444 -0.0318
27095W        W43943   0.674   2.689   4.679 -0.0428  0.0974 -0.3386
27096W        W43944   7.078   0.398  14.513 -0.0947  0.2455 -0.0071
27097W        W43945   2.174   2.722   5.163 -0.0181 -0.1247 -0.0557
27098W        W43946  10.883   6.333  15.709  0.0895  0.0556 -0.0574
27099W        W43947  16.179   8.933  17.612 -0.1207 -0.0679  0.0358
27100W        W43948   4.091   1.242   5.289  0.2893  0.0905  0.1070
27101W        W43949   5.729  13.333   1.024  0.1494  0.0254  0.2393
27102W        W43950   3.755  13.881   3.903  0.0869  0.0661  0.1006
27103W        W43951   7.465  16.289   5.529  0.0069  0.1845 -0.1459
27104W        W43952   9.913  11.692  14.875 -0.0199 -0.0487 -0.2547
27105W        W43953  15.307   5.031   4.085  0.0890  0.1917  0.0879
27106W        W43954   2.620   7.871   2.981  0.1308 -0.0047  0.0732
27107W        W43955  15.589  14.333   2.484  0.0755 -0.2216  0.1532
27108W        W43956  14.119  11.519  17.144  0.1643 -0.4550 -0.0266
27109W        W43957  14.190   3.626  12.669  0.2035 -0.5534  0.0082
27110W        W43958  15.906   3.708   3.702  0.3798 -0.4151 -0.3244
27111W        W43959   8.337   1.240  14.436  0.1631 -0.4842  0.2589
27112W        W43960  16.563  16.020   0.852  0.1066 -0.1129  0.1050
27113W        W43961  12.815   3.484   1.162 -0.0253 -0.1531  0.2123
27114W        W43962   2.796   3.682  13.566 -0.0112 -0.1119  0.2663
27115W        W43963   0.551  16.562  12.220  0.0787 -0.3545 -0.2180
27116W        W43964  11.389   2.908   2.673 -0.2573  0.2475  0.0451
27117W        W43965  15.167   8.058  16.537  0.0897  0.3457 -0.2849
27118W        W43966   9.317   6.870  15.620  0.1055  0.0459  0.1890
27119W        W43967   2.121   4.806   5.926  0.0816 -0.0066 -0.2297
27120W        W43968  12.030   4.266  14.264  0.1538  0.0541  0.1154
27121W        W43969  11.659   4.519  12.903  0.1647  0.1370 -0.3012
27122W        W43970  10.269   5.504  16.489  0.2218 -0.1410 -0.0334
27123W        W43971  13.271   9.862   0.919 -0.1484  0.3363 -0.3129
27124W        W43972   1.648  10.407  15.935 -0.2864  0.2325 -0.0944
27125W        W43973   7.142   3.086  11.298 -0.0007 -0.5286 -0.0834
27126W        W43974  14.449  13.243   1.103 -0.1120  0.0129  0.2761
27127W        W43975  15.093   9.828   3.092 -0.1358  0.0622 -0.1514
27128W        W43976   2.342  12.117  13.417  0.1586 -0.0530 -0.0589
27129W        W43977   0.396   8.412   2.502  0.0266  0.2930 -0.0086
27130W        W43978   2.828  16.503  15.215 -0.2329 -0.0152  0.0075
27131W        W43979   2.023  13.613  16.463 -0.0378 -0.2037  0.0884
27132W        W43980   2.644   0.965  11.742 -0.1652  0.0344  0.1092
27133W        W43981   6.810  10.475   0.798  0.0672 -0.0409  0.1164
27134W        W43982   2.085   0.548   4.955 -0.0653 -0.0468 -0.0789
27135W        W43983   3.883  13.304  15.326 -0.3822  0.0183  0.0523
27136W        W43984   1.530   0.269  13.653 -0.1359 -0.0035 -0.3626
27137W        W43985  14.247   2.086  13.626  0.1076  0.3771  0.0570
27138W        W43986  11.763  14.960  12.696 -0.2203 -0.0698  0.0930
27139W        W43987   7.919  14.166   4.895 -0.1626 -0.3515  0.1640
27140W        W43988   2.642  13.627  14.495 -0.0423 -0.1640 -0.1394
27141W        W43989   1.399   8.787   4.486 -0.4200 -0.0127  0.3356
27142W        W43990  11.421  15.382  15.391 -0.2342 -0.1186  0.2068
27143W        W43991  16.013  11.078   3.469  0.1494  0.2707 -0.0200
27144W        W43992   6.267   3.545  12.402 -0.3662 -0.0283 -0.0614
27145W        W43993  12.864  16.561   5.164 -0.1632 -0.1050  0.0570
27146W        W43994   4.773   0.507   1.697 -0.0076 -0.3318  0.0197
27147W        W43995  11.281   1.338   3.452  0.0637 -0.1411  0.3199
27148W        W43996   4.756  11.552   4.580  0.1159 -0.0265  0.0717
27149W        W43997   8.881   1.736   0.299 -0.1140  0.1063 -0.1870
27150W        W43998   9.880   6.255   3.068 -0.4095  0.0555  0.1108
27151W        W43999  11.778  16.306  16.092 -0.0927  0.2710  0.0464
27152W        W44000   5.385   5.917  13.721 -0.3821  0.0121 -0.0740
27153W        W44001  11.532   7.820  14.460  0.1103  0.2279 -0.0639
27154W        W44002   4.956  15.660  14.124  0.0888  0.0282 -0.0966
27155W        W44003  15.181  12.430  13.457 -0.0876  0.0253  0.4395
27156W        W44004   5.330   6.266   3.616 -0.0497  0.1983 -0.0096
27157W        W44005   6.706  14.654  13.560 -0.1379  0.0913  0.0363
27158W        W44006  14.365  11.786  11.903  0.0923  0.1109  0.2669
27159W        W44007  10.003  10.694  16.500 -0.0127  0.1943 -0.1312
27160W        W44008   5.736   2.832   0.757  0.0309  0.0374 -0.0951
27161W        W44009   4.747  14.923  14.002  0.0437  0.0608 -0.1199
27162W        W44010  15.705   7.149  12.787 -0.0282  0.1449  0.0460
27163W        W44011   0.991   9.521  17.449 -0.0706  0.2528  0.0814
27164W        W44012  16.144  15.658  14.334 -0.0452  0.0649 -0.0688
27165W        W44013  12.103   7.059  15.697 -0.0098  0.1972 -0.1296
27166W        W44014   2.960   2.023   5.327  0.2453 -0.3395 -0.0386
27167W        W44015   7.615  12.852   3.186 -0.1548 -0.2797 -0.0067
27168W        W44016   3.036  12.246   3.406  0.1315 -0.0728  0.3908
27169W        W44017   1.510   9.776   2.316 -0.0750  0.0151  0.3028
27170W        W44018   7.535  11.862   3.000 -0.3703 -0.0340 -0.0094
27171W        W44019  16.167   8.864  14.216  0.1142  0.2137 -0.0502
27172W        W44020   5.309  14.611  15.238 -0.1193  0.2515  0.4129
27173W        W44021   6.610  11.028   2.994 -0.0264 -0.5037 -0.1705
27174W        W44022   7.573  16.233  13.064 -0.1407 -0.1781 -0.1990
27175W        W44023   8.392   1.543  15.001  0.2429 -0.2289 -0.1365
27176W        W44024  13.873  15.004   0.676 -0.3208 -0.2042 -0.0859
27177W        W44025   7.618  10.274  16.916 -0.1865  0.0117  0.2118
27178W        W44026  10.701  13.690  15.388  0.1983 -0.0581 -0.0662
27179W        W44027   0.858   1.638   1.843 -0.1025  0.2275  0.1153
27180W        W44028  16.506  10.032   1.237 -0.1828  0.0401  0.0856
27181W        W44029   3.872   4.687  13.118  0.1862  0.0169 -0.4281
27182W        W44030   5.142  16.371  11.405 -0.2160 -0.0991  0.1335
27183W        W44031   6.006   1.992   2.423 -0.2063  0.0237  0.1086
27184W        W44032   5.332   7.317   3.783 -0.1631 -0.0421  0.2887
27185W        W44033   7.187  12.330  16.271 -0.2497  0.1474 -0.2037
27186W        W44034   3.883  14.648   3.197  0.2328  0.1504 -0.1525
27187W        W44035   5.995   2.758  13.051 -0.0292  0.0906 -0.1484
27188W        W44036  12.606   8.763  15.191 -0.2574 -0.0958  0.3158
27189W        W44037  11.178  16.887  12.436 -0.0708  0.4776 -0.1231
27190W        W44038   6.450  15.268  13.521 -0.1826 -0.1340 -0.2730
27191W        W44039  15.441   1.833   5.453 -0.0813 -0.0856  0.0196
27192W        W44040   4.483   0.347   3.790 -0.0071  0.0294  0.2403
27193W        W44041   9.922   9.243   0.049 -0.1461  0.1117 -0.0657
27194W        W44042   0.845   4.505  12.541  0.3956  0.1127 -0.3570
27195W        W44043   8.856  11.010  16.684 -0.1078 -0.1933 -0.0853
27196W        W44044   9.444  15.632  16.523  0.3812  0.0285  0.1139
27197W        W44045  11.202   2.270   4.227  0.1867 -0.0624 -0.3963
27198W        W44046   6.209   1.969   2.907 -0.0648  0.0889 -0.3463
27199W        W44047   3.818  14.836   5.031  0.2099 -0.0110 -0.2087
27200W        W44048  10.555   6.560  14.398  0.3635  0.3431  0.1195
27201W        W44049   5.967   9.921   2.043 -0.1117 -0.0802 -0.1155
27202W        W44050   2.233   2.858  12.553 -0.2112 -0.1125 -0.0461
27203W        W44051  13.051  14.360   2.862  0.1472 -0.2277 -0.1336
27204W        W44052   2.515   3.380  13.220  0.0231  0.3496 -0.1457
27205W        W44053   6.763   9.476  15.404  0.0598  0.0555 -0.0582
27206W        W44054   8.509   1.931  16.991  0.0903 -0.1699  0.0368
27207W        W44055   5.435  16.227   5.427 -0.0642  0.1293  0.1644
27208W        W44056   7.635   6.722   0.557 -0.2618 -0.0510  0.0854
27209W        W44057   2.186   5.041   4.023  0.1658  0.4174  0.2706
27210W        W44058  16.469   7.300  17.287 -0.0091  0.0753 -0.0253
27211W        W44059  12.322   7.066   1.557  0.2387 -0.1162  0.0304
27212W        W44060   4.493   9.392   4.164 -0.0475  0.1065  0.2633
27213W        W44061   6.645   1.133  14.718  0.1380  0.1786  0.2018
27214W        W44062  14.473  14.373   4.913  0.0632  0.2732  0.3113
27215W        W44063  16.201   4.399  17.537  0.2275 -0.1744  0.0705
27216W        W44064  11.084  12.319   1.274  0.5883  0.0051  0.2563
27217W        W44065  13.662  16.934   1.421 -0.1032  0.0451 -0.0951
27218W        W44066   3.269  11.175   1.497  0.2515 -0.1346 -0.2959
27219W        W44067   9.908   2.792  15.998  0.2165 -0.0405  0.0985
27220W        W44068   1.573   4.719  15.977 -0.4476  0.1364 -0.0718
27221W        W44069  15.846   8.313  15.519 -0.1696  0.0055 -0.2414
27222W        W44070   5.222   3.850  13.170 -0.0221 -0.1269 -0.1226
27223W        W44071   3.058  14.436   5.040 -0.3085 -0.1105  0.2069
27224W        W44072  11.723   2.177   4.208  0.0685  0.1017  0.1498
27225W        W44073   9.607  12.253  14.043 -0.1331  0.0786 -0.2763
27226W        W44074  16.831  10.482  12.491  0.2177  0.0168 -0.1898
27227W        W44075  10.278  16.632  12.536  0.1514 -0.2195 -0.0215
27228W        W44076   4.067   0.582  15.729  0.2500  0.0472  0.2577
27229W        W44077  10.063   0.544   2.468  0.0518 -0.3121 -0.0983
27230W        W44078  12.149  14.551  14.551 -0.2911  0.0292  0.0927
27231W        W44079  16.373   0.947   2.246  0.3699 -0.2127 -0.0447
27232W        W44080  14.439  10.938  17.019 -0.0404 -0.2884 -0.2518
27233W        W44081  14.935  15.720  15.118  0.0225 -0.3780  0.1679
27234W        W44082   0.351   9.268   0.304 -0.2434  0.0416  0.0434
27235W        W44083   0.721   7.255   3.363 -0.3641 -0.4532 -0.2399
27236W        W44084   0.280  16.067  14.750 -0.0657  0.1630 -0.4184
27237W        W44085  15.880  13.346   4.338 -0.0083  0.0993  0.1356
27238W        W44086   6.779  11.307   4.189  0.2627  0.0951 -0.1741
27239W        W44087   7.644   2.653  12.017 -0.2144 -0.3216 -0.2051
27240W        W44088  12.501   9.634   2.507 -0.0480 -0.0395 -0.1209
27241W        W44089   6.133   6.357  14.071 -0.3878  0.1728 -0.2134
27242W        W44090  12.788  11.164  13.158  0.2762 -0.0525  0.1976
27243W        W44091   8.941  17.020   0.173 -0.0102 -0.0501  0.0465
27244W        W44092   3.645   9.958   3.621  0.1527 -0.1106  0.0695
27245W        W44093   1.952   4.948  15.276  0.1348 -0.0552 -0.1034
27246W        W44094   6.786  12.567   1.756  0.1535  0.2091  0.0805
27247W        W44095  15.961   0.985  14.185 -0.0062  0.0491 -0.2573
27248W        W44096   9.647  10.178  17.494  0.1095  0.2969 -0.2437
27249W        W44097   4.466  12.674  15.128 -0.0628  0.1258  0.1997
27250W        W44098  15.558  16.640  13.739 -0.0567 -0.0146 -0.2049
27251W        W44099   1.787   5.220   4.950  0.1299 -0.2168 -0.2599
27252W        W44100  12.580   0.338  16.633 -0.2461  0.1078  0.1023
27253W        W44101   4.409   6.678  14.021 -0.1633  0.2471  0.1298
27254W        W44102  14.973   3.185   5.089  0.1789  0.1580 -0.1617
27255W        W44103   6.930   1.534  14.657  0.1136  0.0570 -0.1983
27256W        W44104   5.530   0.781   4.024  0.3131  0.0061 -0.1758
27257W        W44105   3.965  11.051   4.116 -0.1886  0.2022 -0.2111
27258W        W44106  12.611   8.607  16.213  0.0900  0.0698  0.2830
27259W        W44107   5.698   1.358   5.625  0.0716  0.2635  0.0997
27260W        W44108   5.335  14.276  15.762  0.0083  0.1402  0.0282
27261W        W44109   8.828  13.714  13.687 -0.0057  0.1114 -0.0581
27262W        W44110   6.875   4.706  17.015  0.1030  0.0015 -0.0218
27263W        W44111   9.935   0.008   5.332 -0.3311  0.0918 -0.0039
27264W        W44112  11.429   2.485  12.194  0.0534  0.0595  0.0211
27265W        W44113  10.245   8.772  13.183  0.2624  0.0307 -0.2288
27266W        W44114  17.029  16.152   2.287  0.2763 -0.2145 -0.2390
27267W        W44115  16.128   7.107   5.142 -0.0020 -0.2035 -0.1469
27268W        W44116   8.959   8.010  12.256  0.0276  0.0626  0.0818
27269W        W44117   4.286   1.244   4.299 -0.2345  0.3044 -0.2792
27270W        W44118  14.450  12.091   0.555  0.2807 -0.2370 -0.1712
27271W        W44119   0.036   9.714  17.350  0.1589 -0.0096  0.2071
27272W        W44120   3.154   1.318  16.689  0.1120 -0.2392  0.1204
27273W        W44121   8.976   7.885   1.903  0.0638  0.2013 -0.1486
27274W        W44122  11.455   5.132   0.026  0.0851 -0.0373  0.0084
27275W        W44123  12.248   2.131   0.830  0.2078 -0.2518  0.0593
27276W        W44124   0.075  14.439   5.489 -0.0921  0.0989  0.3304
27277W        W44125  16.741   5.448   1.482 -0.0485 -0.0507 -0.2151
27278W        W44126   7.674   8.429  13.562 -0.0754  0.0845 -0.1493
27279W        W44127  11.562   8.863   2.261  0.2351  0.0216  0.0663
27280W        W44128  13.183  16.670   1.765  0.3117  0.0765 -0.1226
27281W        W44129  12.087   9.564  17.231  0.0579  0.1249 -0.3423
27282W        W44130  15.049   4.362  16.823 -0.0180 -0.0124  0.1738
27283W        W44131   1.421   4.531   2.839  0.1116  0.1663 -0.1191
27284W        W44132   4.825   6.877  13.310  0.0256 -0.2262 -0.1341
27285W        W44133   7.521   4.048   4.541  0.3247  0.1490 -0.3517
27286W        W44134  16.212  16.236   3.922  0.4764  0.0293 -0.0980
27287W        W44135   1.512   0.548   2.676 -0.0512  0.0291  0.0403
27288W        W44136  16.160  10.624  13.100  0.1456 -0.2271 -0.0983
27289W        W44137  14.425   1.383  11.814  0.2384 -0.1725 -0.3669
27290W        W44138  15.952   8.472  17.590 -0.0609 -0.0554 -0.0893
27291W        W44139  12.454   8.144  15.800  0.0519 -0.1230 -0.1810
27292W        W44140  11.866   1.506   5.091 -0.0348  0.0432  0.1918
27293W        W44141  13.563  13.573  15.243 -0.0020 -0.3059 -0.5394
27294W        W44142   5.042  16.667  14.009  0.1485 -0.0596 -0.3684
27295W        W44143   7.789  14.236   1.756  0.2561  0.2977 -0.2398
27296W        W44144  16.073   3.931  12.389  0.0604  0.1805  0.1576
27297W        W44145  11.613   6.494  14.091 -0.0063 -0.2566  0.2323
27298W        W44146   5.991   1.442   4.491  0.2443 -0.0599 -0.0800
27299W        W44147   7.148   7.617   0.724 -0.0788 -0.2296  0.0113
27300W        W44148   8.099  14.466  14.002  0.0440  0.0443 -0.0340
27301W        W44149  12.100  13.415   2.461 -0.1475  0.2315 -0.1785
27302W        W44150   0.925  11.197  16.280 -0.0324  0.3056 -0.2193
27303W        W44151   8.522  13.853  14.463  0.1409 -0.0638 -0.0582
27304W        W44152   2.414  16.311  15.984 -0.1349  0.0690  0.0016
27305W        W44153   8.428  16.502   2.191  0.0067 -0.0951 -0.2894
27306W        W44154   6.826   2.261  12.127 -0.0990 -0.0747 -0.0678
27307W        W44155   3.873   7.730  17.658  0.1192  0.1083  0.0422
27308W        W44156   3.738  11.270   2.695  0.2754  0.1991  0.0781
27309W        W44157   2.174   5.385   2.117  0.2570 -0.1824 -0.0704
27310W        W44158   3.694   9.315  13.567 -0.0180 -0.0479 -0.0281
27311W        W44159   9.560  15.073   4.839 -0.0429 -0.0550  0.1482
27312W        W44160  12.702  16.734  17.617 -0.0913  0.1644  0.0679
27313W        W44161   4.934  14.579  15.472  0.2241  0.1706 -0.3188
27314W        W44162   6.656   5.415  15.091  0.0390  0.3053  0.0661
27315W        W44163   7.666  12.742   0.820  0.1624  0.2718  0.0201
27316W        W44164   4.615   1.391   2.334  0.1124 -0.0591 -0.0181
27317W        W44165   3.966   1.145  14.516  0.0960  0.1998 -0.1760
27318W        W44166  16.182  14.309   3.868  0.1177 -0.1119 -0.0259
27319W        W44167   9.246   8.266  13.724 -0.0737 -0.1046  0.3366
27320W        W44168   9.385   3.118  12.814 -0.0889  0.1729  0.0802
27321W        W44169  10.730   4.990  14.376  0.0539 -0.1495  0.0299
27322W        W44170  15.412   8.842   2.434  0.0399  0.1135 -0.2923
27323W        W44171   0.977   5.319  17.528  0.1252  0.3106 -0.0921
27324W        W44172   3.493  10.800  13.025 -0.3111 -0.1255 -0.1166
27325W        W44173   5.631  16.790  12.412 -0.3347 -0.1654 -0.0238
27326W        W44174  14.137  13.323   5.052 -0.1475 -0.2698  0.0953
27327W        W44175   7.188   5.292   3.957  0.0907  0.1452  0.2813
27328W        W44176  13.195   6.104   2.137  0.0921 -0.1247 -0.1861
27329W        W44177   5.820   6.764  12.347  0.0451  0.2801 -0.0985
27330W        W44178   8.423   3.963  14.957 -0.0381 -0.1952 -0.2962
27331W        W44179   6.230   2.169  17.564 -0.0657  0.2645 -0.2912
27332W        W44180   5.285  13.949   2.136  0.0870 -0.1266  0.1898
27333W        W44181  14.477  15.092  16.105 -0.1738  0.2000  0.1084
27334W        W44182   1.647   6.997   2.571 -0.1612  0.0646 -0.1915
27335W        W44183  10.347   7.718  16.660 -0.0499 -0.0188  0.2889
27336W        W44184   3.455   1.568   4.244 -0.0547  0.1619 -0.0221
27337W        W44185   4.275   9.058   3.048  0.0018  0.0729  0.1304
27338W        W44186   4.170  16.681  15.333  0.2559  0.2598 -0.0067
27339W        W44187  16.834   1.858  16.108  0.0079 -0.0303  0.0553
27340W        W44188  14.402   1.831  14.042  0.0858  0.0084 -0.0645
27341W        W44189  12.802  16.066   5.299 -0.1341  0.0130  0.0047
27342W        W44190   2.112   8.256  16.837 -0.2490 -0.0550 -0.1598
27343W        W44191  10.549   6.104  12.560  0.0277 -0.0760 -0.1546
27344W        W44192   7.407  12.980   5.578  0.0478  0.0095  0.0269
27345W        W44193   5.687  14.498   0.547  0.0227  0.0221 -0.1046
27346W        W44194   1.929   3.117   5.471  0.1589  0.1391 -0.1643
27347W        W44195  16.726  14.018   3.189 -0.0526  0.2482 -0.1058
27348W        W44196   8.230   3.525  14.701  0.1350  0.0226  0.1381
27349W        W44197   8.306  12.265   3.154 -0.1383 -0.2650  0.2232
27350W        W44198   2.265   1.340   1.207  0.0510  0.3825 -0.1196
27351W        W44199  10.060   1.210  16.893  0.1247 -0.3044  0.1462
27352W        W44200  11.335   8.663  13.514  0.3660 -0.2764  0.4689
27353W        W44201  15.118   7.822  16.971  0.1094 -0.1095 -0.1698
27354W        W44202   3.093   7.973   4.368  0.2220 -0.0558  0.0677
27355W        W44203   0.981   7.577  14.890 -0.3340 -0.0319 -0.0012
27356W        W44204   2.799  14.103  17.841 -0.1061 -0.2234  0.0953
27357W        W44205   0.532   8.750  13.405 -0.1078 -0.1027 -0.0992
27358W        W44206  16.827   0.257   1.201  0.3628 -0.0553  0.2655
27359W        W44207  10.164   3.588  12.665  0.0720  0.2775  0.0533
27360W        W44208  12.292  11.084   3.263 -0.1992  0.1570 -0.0035
27361W        W44209   6.438   3.936   0.503 -0.0726  0.1095  0.1326
27362W        W44210   8.008   0.211  14.912  0.0529  0.0597  0.0196
27363W        W44211   4.870   9.121  16.899  0.1808  0.1984  0.3371
27364W        W44212  11.761  12.770  15.049  0.0432  0.0477 -0.3600
27365W        W44213  12.408   9.838   5.223 -0.1004 -0.3912  0.2607
27366W        W44214  15.273   6.324  12.538  0.1505 -0.0798 -0.0736
27367W        W44215  14.775  11.799   0.315 -0.3426 -0.0182  0.0232
27368W        W44216   3.658  11.575   5.229  0.0296 -0.1890  0.1691
27369W        W44217   5.628   0.387  15.346 -0.1554 -0.0920  0.1737
27370W        W44218   5.888   0.121   0.393 -0.0123  0.1101 -0.0876
27371W        W44219  15.410  15.859  16.493  0.2599 -0.1586 -0.0544
27372W        W44220  12.101   0.199  15.812  0.1648 -0.0709  0.2028
27373W        W44221  12.157  10.213   5.422 -0.1979  0.0589  0.1688
27374W        W44222   2.246  11.786   3.622  0.4701 -0.1308  0.2028
27375W        W44223   9.284  14.854   2.217  0.0846  0.0437 -0.1021
27376W        W44224  11.991   4.736  16.356 -0.3354 -0.1252  0.0531
27377W        W44225  12.072  10.454   4.053 -0.0694 -0.1567  0.0394
27378W        W44226   0.051  13.459   2.454  0.0021  0.3357  0.2988
27379W        W44227  16.897   0.790  13.619  0.2006 -0.0477  0.0505
27380W        W44228  16.125  15.496   4.427  0.4359  0.0288 -0.1817
27381W        W44229   9.982   4.177   1.446 -0.0502  0.1625 -0.0678
27382W        W44230  15.894  15.411  16.124  0.1470  0.1765 -0.0553
27383W        W44231   1.078  14.358   1.007  0.1617  0.0917 -0.1640
27384W        W44232   0.824  11.690  15.002 -0.0138  0.1488  0.2613
27385W        W44233  12.007   1.477  16.138 -0.0001 -0.3717  0.0228
27386W        W44234   9.039   7.894  14.044  0.1426 -0.2840 -0.2474
27387W        W44235   8.588   0.556   3.752 -0.2510  0.2551  0.0963
27388W        W44236  14.844   8.214   4.136 -0.2141 -0.1084 -0.0644
27389W        W44237   2.818  11.267   3.606 -0.2073 -0.2135 -0.1945
27390W        W44238   7.710  16.317  13.952  0.1146 -0.0984  0.0056
27391W        W44239   3.703  11.271  14.356  0.0149  0.1232 -0.2392
27392W        W44240   4.794  15.750  15.280 -0.2484 -0.1842 -0.0498
27393W        W44241  15.193   0.717  12.540  0.0541  0.2873  0.1740
27394W        W44242  16.680  15.909  15.253  0.0846 -0.2732 -0.1712
27395W        W44243  11.003   1.643   3.130  0.1030  0.1056 -0.1480
27396W        W44244   3.436   7.971  14.969 -0.2123  0.0700 -0.1496
27397W        W44245   4.841  10.438  15.644 -0.0035  0.2930  0.3608
27398W        W44246   2.430  11.163  14.110 -0.1023 -0.0497 -0.0168
27399W        W44247   4.599   5.976   0.133  0.1671  0.3644  0.0635
27400W        W44248   4.356  14.499  12.960  0.2494  0.1293  0.0812
27401W        W44249   2.340   8.927   4.106 -0.0285 -0.1387  0.2090
27402W        W44250   8.113   4.897  12.414 -0.0771  0.3970  0.2340
27403W        W44251  11.052  11.945  12.323  0.2202 -0.1714  0.3528
27404W        W44252  13.846  17.024  12.129 -0.5142 -0.0333 -0.2408
27405W        W44253   3.057   9.388  17.633 -0.0382  0.2262  0.1612
27406W        W44254  11.562   2.622   4.956  0.0973  0.1812 -0.1050
27407W        W44255  11.448   0.262   3.170 -0.2142  0.0875  0.1544
27408W        W44256   3.512   6.857   5.104  0.1640  0.1791 -0.1847
27409W        W44257   6.314   4.211  17.261  0.1472  0.0988 -0.0528
27410W        W44258  15.423  11.887   1.593 -0.2369  0.0092 -0.1856
27411W        W44259   7.285  15.206   2.739  0.0064 -0.0667  0.1068
27412W        W44260   2.283  15.855  14.124  0.1342 -0.1213  0.1388
27413W        W44261  12.465   6.171  16.614 -0.0357  0.2114 -0.2358
27414W        W44262   6.551  11.544  16.062 -0.3766  0.0402 -0.1230
27415W        W44263   5.723  11.197  15.105 -0.2719  0.0841 -0.0170
27416W        W44264  12.693   5.146  17.234 -0.1242  0.2333 -0.0632
27417W        W44265  11.110   2.703  12.489  0.6180  0.0868  0.2201
27418W        W44266   6.583  14.160   6.476 -0.0841 -0.0705 -0.0008
27419W        W44267  10.821   6.987  17.010 -0.0802  0.0451  0.0871
27420W        W44268   8.918  16.577   3.853 -0.1029  0.5004 -0.1007
27421W        W44269   8.852  14.848   5.337  0.1180  0.0016  0.0313
27422W        W44270   3.800   0.148   3.145  0.0474 -0.1997  0.0386
27423W        W44271  11.049  13.802  17.445 -0.0136  0.0199  0.2840
27424W        W44272  10.593  11.159   4.130  0.0580 -0.1639 -0.0078
27425W        W44273  11.852  15.657  14.936  0.0822 -0.0586 -0.0455
27426W        W44274  15.795   0.479   0.946  0.0104 -0.1035  0.0104
27427W        W44275   0.574   6.749  15.880 -0.4489  0.3026 -0.2383
27428W        W44276  14.022   1.247   1.628 -0.0194 -0.2333 -0.3879
27429W        W44277   8.337   8.267  15.225 -0.0286  0.0851  0.0087
27430W        W44278   3.019  12.327   2.159 -0.0520  0.3541  0.0680
27431W        W44279   7.139  13.585   0.377  0.0437 -0.0114 -0.2479
27432W        W44280   8.656  14.356   1.016  0.1112 -0.0429  0.1286
27433W        W44281  16.267   5.847   4.714 -0.1968  0.1295  0.0886
27434W        W44282   4.168   9.187  13.296 -0.1607  0.1379  0.4671
27435W        W44283  11.999  10.771  13.948  0.0236  0.0571 -0.2734
27436W        W44284   9.239   6.863   5.509 -0.0674  0.1402 -0.2828
27437W        W44285   4.724   7.613   2.267  0.0685 -0.1025  0.0924
27438W        W44286   8.800  11.206  14.638  0.1259 -0.0200  0.0004
27439W        W44287  11.602   5.559  14.424  0.0717  0.2081 -0.2130
27440W        W44288  12.761   5.706  17.844 -0.1714 -0.2911  0.1425
27441W        W44289   4.741   9.524   5.738  0.1062  0.0685  0.2164
27442W        W44290  15.467  16.166   4.555  0.0368 -0.0570 -0.2244
27443W        W44291   1.107   7.230  16.190 -0.0339 -0.1249 -0.0892
27444W        W44292   7.819   4.686   4.993  0.3452  0.1352 -0.1551
27445W        W44293  15.548   3.530  13.058 -0.0611  0.1386  0.0559
27446W        W44294  13.206   2.551  14.992  0.1031  0.1025  0.0659
27447W        W44295  12.457   4.303   5.226  0.1822 -0.0108 -0.2146
27448W        W44296  14.039  16.241  17.479 -0.3436 -0.1784  0.1000
27449W        W44297   3.740  14.145   0.702 -0.0484 -0.1777 -0.1490
27450W        W44298  13.717   1.231  13.504  0.3339 -0.1988  0.0419
27451W        W44299   1.903  11.194  13.337  0.1050 -0.0407  0.2901
27452W        W44300  14.363  13.866   3.837 -0.1843  0.0385  0.1058
27453W        W44301  14.510  11.436   1.686 -0.2039  0.2092 -0.3820
27454W        W44302  15.238   2.506   0.311  0.2089  0.1101  0.2868
27455W        W44303   3.946   7.579   1.600 -0.1084 -0.0012 -0.0582
27456W        W44304   2.094  16.831   3.242 -0.0424 -0.0866  0.4694
27457W        W44305   1.929   8.725   0.219 -0.0713 -0.1989  0.4931
27458W        W44306   7.279  12.440   1.730  0.0374  0.0038 -0.1588
27459W        W44307   1.425  11.637   6.232  0.1307  0.2170 -0.3195
27460W        W44308   1.831   3.650  16.399  0.1134 -0.3258 -0.1090
27461W        W44309  11.031  15.754  15.468 -0.1066  0.1603  0.0015
27462W        W44310   4.498   5.365   2.232  0.0949 -0.0235  0.2225
27463W        W44311  11.132  12.720  17.341  0.2312  0.0419 -0.4124
27464W        W44312   6.511   9.557  14.864 -0.1618 -0.1234  0.0919
27465W        W44313  10.790  15.472   5.002  0.1459 -0.0261  0.0883
27466W        W44314  13.964  13.297   1.262  0.2892 -0.1022  0.0650
27467W        W44315   3.339   0.146  12.897 -0.2314  0.0280 -0.0329
27468W        W44316  16.626   5.892   5.024  0.0372  0.0842  0.1325
27469W        W44317  15.476   4.969  17.440  0.0841  0.0222 -0.3714
27470W        W44318   5.143  15.180   4.821  0.1227  0.0424  0.0292
27471W        W44319   9.036  15.702  17.741 -0.0272  0.2719  0.1853
27472W        W44320   0.451  12.224  12.722 -0.0923  0.0685 -0.1847
27473W        W44321   5.541   4.167   0.907  0.1453 -0.2342 -0.2374
27474W        W44322   5.985   8.909  12.322  0.0340  0.0703 -0.1452
27475W        W44323   0.860   7.225  12.732  0.0201  0.2760 -0.0073
27476W        W44324  15.538   0.017   4.749  0.1038  0.0144  0.2352
27477W        W44325  11.406   6.479  16.628  0.0593 -0.0546  0.0519
27478W        W44326   9.642   4.770  13.335 -0.1219 -0.0454  0.2153
27479W        W44327   4.899   2.557   3.509 -0.0451  0.0807 -0.1972
27480W        W44328   3.050   4.164  13.488 -0.2459  0.1957 -0.0258
27481W        W44329   6.215   3.716   2.176 -0.1455 -0.0780 -0.0023
27482W        W44330  14.558   7.437   3.586 -0.2306 -0.0772  0.1554
27483W        W44331   7.806   4.967   5.738 -0.0563  0.1536  0.0663
27484W        W44332  10.998   3.037  15.241  0.0373 -0.1364  0.0657
27485W        W44333   3.171   2.234  17.821  0.2677  0.4485 -0.1664
27486W        W44334   8.360   1.100   4.211  0.0147 -0.1210 -0.1451
27487W        W44335   0.944  11.733  13.140 -0.2108  0.3222 -0.0537
27488W        W44336  11.305   2.388  13.178 -0.0180  0.0848  0.0161
27489W        W44337  12.954   9.439  17.443  0.2502  0.2509  0.0796
27490W        W44338   0.084  11.602  13.362  0.3361  0.0334  0.1987
27491W        W44339  15.035   8.655   3.310  0.0956 -0.1042  0.1629
27492W        W44340  10.956   6.462   3.078 -0.2433 -0.1465 -0.0436
27493W        W44341  10.612  12.989   0.875 -0.3292  0.0150  0.3319
27494W        W44342   5.352   0.457   2.298  0.2312  0.2537 -0.1969
27495W        W44343  14.416   6.072   1.321  0.2424  0.0770  0.1153
27496W        W44344  11.850  12.781   2.310 -0.0202 -0.1588  0.0307
27497W        W44345   3.110   5.112  14.268  0.1959 -0.0149 -0.1274
27498W        W44346   5.306  15.105  16.672 -0.2304 -0.1360  0.1000
27499W        W44347  14.714   8.515  15.196  0.0590 -0.0353 -0.0410
27500W        W44348   6.417   3.643   0.127  0.1215  0.2203 -0.2070
27501W        W44349   2.034   0.374  15.901 -0.1917  0.0434 -0.2352
27502W        W44350  12.294  12.301   3.903  0.4080 -0.1752  0.1570
27503W        W44351  10.884  14.501   3.030 -0.2061  0.2609 -0.1404
27504W        W44352   5.019  17.003  17.316 -0.1529  0.0198 -0.0958
27505W        W44353  16.609  11.701   2.813 -0.0547 -0.2213 -0.0458
27506W        W44354   5.678   1.835   0.928  0.2349 -0.0953 -0.0687
27507W        W44355  10.858   9.284  16.839 -0.1942  0.2462 -0.0996
27508W        W44356   0.307   8.004  14.455  0.1211  0.3608 -0.2742
27509W        W44357  12.320  13.585  12.569  0.1479  0.0824 -0.0262
27510W        W44358   5.091   5.665  14.803 -0.3374  0.0038  0.0490
27511W        W44359   0.636   9.469   1.421 -0.2131 -0.0754  0.1663
27512W        W44360   9.040   8.903  17.111 -0.0950 -0.0410 -0.4860
27513W        W44361   7.115   9.613   0.699 -0.0295 -0.1335  0.2078
27514W        W44362  14.664  16.462  16.824  0.2880  0.1954  0.0900
27515W        W44363  15.610   7.878   0.395  0.0206 -0.3469 -0.2551
27516W        W44364   2.877   3.041  15.188  0.0030 -0.2087 -0.3165
27517W        W44365  15.133   4.474   2.990 -0.0441 -0.0855 -0.1464
27518W        W44366  16.976  16.903  12.557 -0.0466 -0.1306  0.2830
27519W        W44367  11.893  16.535  15.661  0.1443  0.1574 -0.0160
27520W        W44368  15.545   3.647   2.442  0.0003  0.0778 -0.2658
27521W        W44369   4.481  11.823   3.318 -0.1994 -0.0309 -0.2024
27522W        W44370   5.063  16.481  14.551  0.1186  0.2004  0.1799
27523W        W44371  10.225   7.386  15.902  0.0957  0.1459  0.3292
27524W        W44372  12.579  14.307   1.459  0.2591  0.1524 -0.0917
27525W        W44373   4.243   5.789  12.458  0.0003  0.1499  0.2171
27526W        W44374   5.716  11.845   4.732 -0.1345 -0.1346  0.0373
27527W        W44375  14.783   5.457  16.350 -0.1444  0.1016  0.2664
27528W        W44376  10.248  13.338  13.304  0.0311 -0.0672  0.0586
27529W        W44377   5.168  11.252  17.303  0.2513  0.1476 -0.2338
27530W        W44378  11.769  13.142   2.735  0.2181  0.1356  0.1988
27531W        W44379  15.889  11.525  15.820 -0.0175 -0.0707 -0.0723
27532W        W44380   8.969   7.464  14.875 -0.0322 -0.1338  0.1544
27533W        W44381   2.373  10.852   2.415  0.2643 -0.0504  0.2554
27534W        W44382   2.661   6.845  17.670  0.2243 -0.1224 -0.0993
27535W        W44383   3.618   6.429  17.149 -0.0754 -0.4552 -0.1893
27536W        W44384  16.045  16.814   2.571 -0.0703 -0.0883  0.1042
27537W        W44385  13.693   0.318  14.197 -0.2516  0.0342  0.3936
27538W        W44386  16.278   2.741  17.180 -0.5331  0.3226 -0.1543
27539W        W44387   5.453   4.151   3.280  0.0360  0.0707 -0.0345
27540W        W44388  13.726  13.235   5.321 -0.0187  0.0186  0.2948
27541W        W44389   6.174   8.602   2.657 -0.2328  0.0836 -0.0293
27542W        W44390   1.901   3.535  13.571 -0.1892 -0.1557 -0.0357
27543W        W44391  13.238   3.093   1.810  0.1239 -0.0483  0.0374
27544W        W44392   6.883   5.435   2.817  0.1805  0.0686 -0.0079
27545W        W44393  12.231   5.507   3.174 -0.2917 -0.1094  0.1719
27546W        W44394  11.092   1.271   2.066  0.0617  0.3039 -0.1723
27547W        W44395   9.338   9.278  17.033 -0.0988 -0.0375  0.0530
27548W        W44396   2.999  14.598  15.483 -0.0977 -0.3474  0.1468
27549W        W44397   1.474   3.637  13.780  0.0963  0.0352 -0.2460
27550W        W44398   7.392   5.349   1.085 -0.2367  0.0897 -0.0723
27551W        W44399   7.461  14.091  15.024 -0.1051  0.0931  0.3173
27552W        W44400  11.005  14.269  13.701  0.0016 -0.0245  0.1810
27553W        W44401   9.887   6.526   0.869  0.0446 -0.0196  0.1479
27554W        W44402   6.261  14.130  17.093  0.2237  0.1034  0.2111
27555W        W44403   9.345   0.944   2.142  0.1079  0.2098  0.2489
27556W        W44404  16.930   3.659   1.207 -0.3031 -0.1047  0.0444
27557W        W44405   2.584   1.213   4.571  0.2358  0.0533 -0.2334
27558W        W44406   6.127   3.257  14.880  0.1265 -0.3110 -0.0897
27559W        W44407  15.735   2.751  17.097 -0.0900  0.3324  0.3090
27560W        W44408   2.874  16.898  12.659  0.0877 -0.0804  0.1845
27561W        W44409   6.613   0.388   3.079  0.0320 -0.1235  0.0433
27562W        W44410  14.239   4.538   1.026  0.0032 -0.2011 -0.2008
27563W        W44411  13.149  10.825   2.850 -0.1907 -0.2942 -0.1684
27564W        W44412  10.076  12.668  17.431 -0.1124 -0.1805 -0.2529
27565W        W44413   4.028  16.484   2.370 -0.2395 -0.3015 -0.3799
27566W        W44414  12.968   7.230  14.252 -0.0762 -0.0341 -0.2798
27567W        W44415  14.851   4.100   2.374  0.0951 -0.1309  0.1455
27568W        W44416   5.955   8.164  12.142  0.1225  0.1119  0.0017
27569W        W44417  16.520  11.906   0.961  0.1251 -0.2652  0.0569
27570W        W44418   5.029  13.963  14.624  0.0306  0.2111  0.0118
27571W        W44419   9.630  12.855   3.348  0.1012  0.0909  0.1220
27572W        W44420   6.894   7.829  14.853 -0.0478  0.1405 -0.2650
27573W        W44421  12.055  11.084  16.406 -0.0409 -0.2640 -0.2581
27574W        W44422   9.987   9.904  14.725  0.0788 -0.1429  0.4654
27575W        W44423   8.049   8.229   5.359  0.0174  0.0115 -0.0697
27576W        W44424   0.023   7.406  15.765 -0.0772 -0.2851  0.2439
27577W        W44425   1.718   0.295  12.147  0.1343 -0.0163 -0.1001
27578W        W44426   6.261  15.934  16.237 -0.1094 -0.1216 -0.1163
27579W        W44427   1.443  13.562  17.693 -0.1022  0.0644  0.0433
27580W        W44428   3.506   7.128  16.463 -0.1069 -0.2385 -0.0893
27581W        W44429   0.454   5.861  12.807  0.0021  0.2689  0.2207
27582W        W44430  11.904  12.370  15.471  0.0758  0.4363 -0.2140
27583W        W44431   8.423  12.819  16.921  0.0470 -0.0498  0.1310
27584W        W44432  13.161   3.990  13.939 -0.2615 -0.0285 -0.1228
27585W        W44433  16.643   2.750   0.355  0.1416  0.2134  0.0102
27586W        W44434   4.844   4.216   5.055 -0.0686  0.0916  0.0222
27587W        W44435  10.638   2.916  12.277 -0.0906  0.2348  0.0906
27588W        W44436   3.515   0.105   2.622 -0.3673 -0.0263  0.1655
27589W        W44437   0.256   2.594   4.352 -0.1462  0.1435  0.1873
27590W        W44438  10.467  14.320   2.877  0.2384 -0.0030 -0.0126
27591W        W44439   7.209  10.786   2.492 -0.2577  0.2262 -0.0359
27592W        W44440  11.883  12.845   0.222  0.0772  0.2383 -0.2782
27593W        W44441  16.610  13.369  17.204 -0.2383  0.1533 -0.2909
27594W        W44442  13.268   1.488  14.101 -0.0598 -0.0275 -0.1021
27595W        W44443   1.321   7.956  12.079  0.2070  0.0735 -0.0491
27596W        W44444   9.425  12.516  13.243 -0.0764 -0.1394  0.2745
27597W        W44445   0.843   4.423   0.101 -0.2871 -0.1638  0.2470
27598W        W44446  12.558   7.295   0.745  0.1835 -0.0139  0.0910
27599W        W44447   8.524   3.424  11.727  0.0553 -0.1099  0.0986
27600W        W44448   7.366   6.527  12.085 -0.0400  0.1237 -0.0750
27601W        W44449  14.422   2.365   3.177  0.2347  0.1227  0.1160
27602W        W44450   2.921  13.434  17.207  0.2044 -0.2628 -0.2928
27603W        W44451  14.609  12.915  14.045 -0.0087 -0.2313  0.0175
27604W        W44452  12.122   2.911  15.577 -0.1296  0.0597  0.0205
27605W        W44453  14.134   0.849   1.363 -0.0434  0.1199 -0.1295
27606W        W44454   0.764  13.143   4.101  0.1012 -0.0990 -0.0243
27607W        W44455   7.829  10.137   4.119  0.2307 -0.1674 -0.2118
27608W        W44456   1.942  13.382   1.546  0.0577  0.4107  0.0443
27609W        W44457   9.701  13.817   4.813  0.0060 -0.0036 -0.0096
27610W        W44458  13.291  15.720   1.154  0.1122  0.0149  0.2410
27611W        W44459   2.866   7.796  17.707  0.0313 -0.1202 -0.0216
27612W        W44460  11.643   7.909  15.342  0.1414 -0.0183  0.0458
27613W        W44461   5.422   2.191  17.043 -0.0775 -0.0421 -0.0247
27614W        W44462   3.801  11.668   1.820 -0.0358  0.3012  0.3408
27615W        W44463  10.902   2.064  16.178  0.0021  0.0833  0.4070
27616W        W44464  10.600   0.702  17.772 -0.0922  0.1362  0.1479
27617W        W44465   2.752   0.192  12.286  0.0684  0.2261 -0.0745
27618W        W44466   2.306  13.115  14.992 -0.0959 -0.1190  0.0768
27619W        W44467  14.953   6.405  16.505  0.2255 -0.2077 -0.0136
27620W        W44468   1.497   2.364  16.625 -0.1407 -0.2517 -0.1671
27621W        W44469  14.623   5.609   2.021  0.0686  0.0576 -0.2315
27622W        W44470  14.277   2.257  13.043 -0.3023  0.0240 -0.3276
27623W        W44471  12.790   8.483   4.384 -0.0659  0.0941 -0.1226
27624W        W44472   2.844  13.024   4.039  0.2876 -0.0991 -0.0041
27625W        W44473  14.715   7.640   0.881 -0.2352  0.1633  0.1200
27626W        W44474   3.345  14.114   3.828  0.0908  0.2250 -0.1288
27627W        W44475  10.320  15.363   5.278  0.0470  0.0576 -0.1190
27628W        W44476  12.179  13.412   0.402 -0.2238 -0.1211 -0.0429
27629W        W44477   9.773   2.622   0.779 -0.0700 -0.3449 -0.0430
27630W        W44478   8.294  11.098  12.367  0.0374 -0.1962  0.1008
27631W        W44479   2.178   5.413  12.923 -0.4355 -0.1812 -0.1420
27632W        W44480  11.761  16.307  17.778 -0.0188  0.0541 -0.1465
27633W        W44481   0.024   5.983  15.735 -0.1440 -0.1654  0.1054
27634W        W44482   8.458   1.466   0.557  0.0399  0.1126  0.1370
27635W        W44483   9.295   7.640   3.539 -0.0265  0.0950 -0.0743
27636W        W44484   5.588   2.749  13.809 -0.1262  0.0424  0.2493
27637W        W44485   2.169   4.174  13.014 -0.0597 -0.1554 -0.0671
27638W        W44486  11.231  13.234   3.915 -0.0921 -0.1201  0.3937
27639W        W44487  15.512   1.668   4.465  0.1257 -0.0371  0.1948
27640W        W44488  12.436  15.946   3.059 -0.0463  0.0603 -0.2791
27641W        W44489   5.783  12.649   2.951  0.0466  0.1062 -0.1705
27642W        W44490  14.397   3.198  14.437  0.1315 -0.2295 -0.0576
27643W        W44491   6.199  14.545   0.896 -0.1075 -0.0977 -0.0888
27644W        W44492  11.520  12.905   1.533 -0.0974 -0.0142  0.0716
27645W        W44493   1.209  12.075   5.522  0.0338 -0.1306  0.0340
27646W        W44494  11.152   6.940  13.152 -0.0011 -0.1111  0.1011
27647W        W44495   5.078   7.306  16.764  0.1078  0.0752  0.1243
27648W        W44496   1.839   4.279   4.366 -0.0191 -0.0106  0.2121
27649W        W44497   4.707  14.240  17.136 -0.0255 -0.0824  0.2027
27650W        W44498   4.401  14.810  13.403 -0.2771 -0.2401 -0.2865
27651W        W44499   7.938  15.278  12.208  0.1760 -0.0207 -0.1364
27652W        W44500  10.839   2.374  12.928 -0.1511  0.1795  0.0388
27653W        W44501   6.055  13.432  13.849 -0.1892  0.0175  0.2793
27654W        W44502   0.318   1.363   2.464  0.1414 -0.0124 -0.3140
27655W        W44503  15.165  16.780  12.641 -0.2963 -0.1286  0.2071
27656W        W44504   4.867   1.749   2.094  0.1222  0.0022  0.2307
27657W        W44505  14.525   4.026   1.017  0.1693  0.0274  0.2036
27658W        W44506   0.277   8.737   4.818  0.0564 -0.1213 -0.3415
27659W        W44507   6.071   8.133   6.726  0.1347 -0.0890 -0.1533
27660W        W44508   2.015  11.226   0.829 -0.3492 -0.2811  0.0661
27661W        W44509  16.732   3.426   1.578  0.1164  0.1570  0.0720
27662W        W44510  11.137  11.407  15.414 -0.3328 -0.3092  0.1749
27663W        W44511  12.394   4.382  14.607 -0.0071 -0.1994 -0.3335
27664W        W44512   2.962   9.337  14.179  0.1251 -0.0279  0.1399
27665W        W44513  14.667   7.344  13.040  0.1342  0.2733  0.2347
27666W        W44514  14.597  10.141   1.022 -0.2987 -0.4229  0.0322
27667W        W44515   2.381   3.163  11.423  0.1530 -0.2185 -0.1946
27668W        W44516  16.034   9.389   2.662  0.4191  0.1190  0.0380
27669W        W44517   3.976   9.809  15.064  0.2779 -0.1108 -0.0326
27670W        W44518   7.710   1.504  16.079  0.1616 -0.1839 -0.1032
27671W        W44519   6.299   7.842  14.141  0.0210 -0.3221 -0.4091
27672W        W44520   0.259   7.238   2.943 -0.2658 -0.0523  0.1249
27673W        W44521   3.045   9.984  13.104  0.1950 -0.0178 -0.1720
27674W        W44522  10.564  11.289  12.691  0.2289  0.1655  0.1104
27675W        W44523  11.543  13.843   3.349  0.1473 -0.0228  0.0625
27676W        W44524   2.844  12.815  14.900  0.2138 -0.1429  0.1469
27677W        W44525   6.744   3.161   2.678 -0.0469 -0.1279  0.0173
27678W        W44526  10.914  14.703  15.030 -0.2083 -0.2363  0.1698
27679W        W44527   1.852   6.372  16.574  0.0844  0.0650 -0.0810
27680W        W44528  12.809   1.840   5.080  0.1005 -0.1191 -0.1216
27681W        W44529   7.986   1.260   3.819  0.2840 -0.0184  0.1386
27682W        W44530   6.917   6.966  17.364  0.2274 -0.2756 -0.1114
27683W        W44531   0.579  15.115   0.631  0.2198  0.3180  0.1552
27684W        W44532  12.650  14.781   4.718 -0.1353 -0.0569 -0.6081
27685W        W44533   4.401  12.166  15.882  0.3630 -0.0086 -0.1176
27686W        W44534   1.336  12.733   1.793  0.0308  0.2998 -0.0581
27687W        W44535   7.062   6.463  14.184 -0.0280  0.0647 -0.2556
27688W        W44536  13.002   1.313   3.326 -0.0890  0.2301 -0.2465
27689W        W44537   6.755  15.356   5.626 -0.1736  0.3854 -0.3343
27690W        W44538   3.288  12.557  14.263  0.3112 -0.2078  0.1483
27691W        W44539  11.983  14.997  17.762  0.0932  0.1553 -0.3888
27692W        W44540   6.424  16.936  11.902  0.0558  0.2588 -0.1835
27693W        W44541  13.297   4.434  16.687  0.0589 -0.2345  0.3680
27694W        W44542  11.257   4.577   4.715  0.2617  0.1776  0.0372
27695W        W44543  16.773  14.644  16.481 -0.0360  0.0139 -0.0459
27696W        W44544  14.249  15.891   3.961 -0.2933  0.2147 -0.2817
27697W        W44545   0.472   4.993   4.388 -0.3458 -0.2372 -0.2823
27698W        W44546  10.181  10.120   3.361 -0.1996 -0.0386 -0.0791
27699W        W44547  10.941   3.772  15.082  0.1803  0.2944  0.1821
27700W        W44548   7.693  12.970   2.341 -0.3576 -0.0572  0.0058
27701W        W44549   2.739  13.703   1.159 -0.1538 -0.0465  0.0549
27702W        W44550   7.847   5.129   1.345 -0.0085 -0.1783 -0.1121
27703W        W44551   2.599  12.893   2.783  0.2026 -0.0966 -0.2425
27704W        W44552   7.980   1.648   5.950  0.0988  0.0289  0.1531
27705W        W44553  10.824  10.728  17.313 -0.1777  0.1016 -0.1765
27706W        W44554  11.157  16.424  12.688 -0.0162  0.0564  0.1320
27707W        W44555  16.650   4.338   3.794 -0.0402 -0.2098 -0.0343
27708W        W44556   6.538   2.923  13.499  0.0932  0.0338  0.0318
27709W        W44557  11.863   3.939  14.701 -0.1007  0.0058 -0.0441
27710W        W44558   7.699  14.025  14.571 -0.2029  0.0251 -0.1292
27711W        W44559   7.852  13.411   4.850  0.2682 -0.4275 -0.0104
27712W        W44560   8.460  16.475  14.953 -0.3609 -0.1484 -0.0188
27713W        W44561   7.352  17.021   5.045  0.0433  0.0451 -0.0054
27714W        W44562   5.251   2.844   0.660 -0.1651  0.0990  0.1150
27715W        W44563  16.200   8.524   2.509 -0.0088 -0.0370  0.1037
27716W        W44564  16.627   4.722   4.110  0.1665  0.1577  0.0224
27717W        W44565   9.626   5.042   0.708 -0.0188 -0.0510 -0.4225
27718W        W44566  10.820   3.725   1.635 -0.1651 -0.0593  0.0549
27719W        W44567  16.502   7.602   3.127  0.0944  0.2734 -0.0525
27720W        W44568  12.063   0.427   0.783 -0.1360 -0.1288 -0.1264
27721W        W44569   3.989   7.628   4.057  0.0115  0.2575  0.1162
27722W        W44570   4.067   9.253   2.367  0.1723 -0.0662 -0.0050
27723W        W44571  14.689   1.368  13.157 -0.1795  0.0700  0.3626
27724W        W44572   8.172   4.426   4.708 -0.2950 -0.0467 -0.1540
27725W        W44573   1.389  13.437   3.424 -0.0894  0.0310 -0.1645
27726W        W44574  15.920  14.259  15.949 -0.2094  0.1011  0.0631
27727W        W44575   2.642  12.417   5.596 -0.0358 -0.2265 -0.0275
27728W        W44576  17.001   8.819  16.273 -0.0926  0.0783  0.0334
27729W        W44577   6.876  11.657   0.841 -0.0473  0.1555  0.3796
27730W        W44578   0.648   7.935   2.555 -0.0745 -0.3384  0.2822
27731W        W44579   1.485   8.803  15.292  0.0068  0.0277 -0.1339
27732W        W44580   9.862  12.129   2.243 -0.0355 -0.1015  0.1284
27733W        W44581   5.773  12.018   3.714  0.0637 -0.0880 -0.0860
27734W        W44582   7.773  13.098  14.449  0.2589  0.0944  0.2558
27735W        W44583   2.998   7.400  12.623 -0.0172 -0.2149 -0.1645
27736W        W44584   6.688  16.978   5.805  0.0681 -0.1728  0.0797
27737W        W44585   3.778   4.763  16.502 -0.0736 -0.1387 -0.3334
27738W        W44586  13.607   8.965  14.895  0.0572  0.1792  0.0734
27739W        W44587   7.946  11.455   1.445  0.1703  0.0833 -0.0081
27740W        W44588   9.372   0.320  16.695 -0.0134  0.0465  0.0027
27741W        W44589  16.489  12.477   1.076  0.2670 -0.4416 -0.0614
27742W        W44590   7.201  15.398   0.628 -0.1071 -0.0468  0.0645
27743W        W44591  14.286  11.755   5.446 -0.0900  0.0796  0.0438
27744W        W44592  10.982   1.984  15.635  0.0027  0.2255 -0.0508
27745W        W44593  14.504   3.867   3.227  0.1354 -0.1629  0.0824
27746W        W44594   1.828  11.381  15.585 -0.1889 -0.0540 -0.0893
27747W        W44595   0.306   5.640  13.235 -0.1700 -0.1440  0.0634
27748W        W44596   1.978   2.725   3.260 -0.3115  0.2927  0.1919
27749W        W44597   1.076   3.041   1.186  0.3774  0.1803 -0.0031
27750W        W44598   4.340   0.336  14.769 -0.0943 -0.2320  0.0786
27751W        W44599  17.061  12.839  16.474  0.0138  0.2646 -0.0206
27752W        W44600  11.907   8.983   2.643 -0.0251  0.0762  0.1628
27753W        W44601  15.575  13.471   0.316  0.3210 -0.1972  0.1269
27754W        W44602   3.851  11.840   0.320 -0.1481 -0.1206  0.0219
27755W        W44603  16.162  13.365  13.560 -0.1411  0.0040 -0.1914
27756W        W44604  10.047   2.261  14.417 -0.1275  0.0228  0.2543
27757W        W44605   2.396  14.755   0.431 -0.1910  0.2232 -0.0040
27758W        W44606   4.395   2.400   1.812  0.0295  0.3017 -0.1350
27759W        W44607   7.382  10.775  17.723  0.0127  0.0339  0.1556
27760W        W44608   3.624  14.481  13.153 -0.3013 -0.3600  0.2051
27761W        W44609  12.134  11.855   6.108 -0.0900 -0.0758 -0.5562
27762W        W44610  15.847   2.328   0.067  0.3326 -0.1006 -0.0643
27763W        W44611   9.639   5.564   4.628 -0.1694  0.0390  0.3762
27764W        W44612   1.673   4.749   4.227  0.0562  0.0976  0.1476
27765W        W44613  10.134   6.837  15.236 -0.1387 -0.1155 -0.1251
27766W        W44614  13.727   0.317   2.025  0.0799  0.1980  0.1249
27767W        W44615  16.026   4.553   0.729 -0.0402  0.2022  0.4686
27768W        W44616  12.128   8.241  12.911  0.2657  0.1506  0.0551
27769W        W44617  17.005   2.886   1.576  0.0342  0.0072 -0.2528
27770W        W44618   5.011  10.826   3.890  0.0980 -0.0670 -0.3126
27771W        W44619   9.908   6.269  16.633 -0.3547 -0.1618 -0.1633
27772W        W44620   2.836   1.796  13.206  0.1401 -0.1483  0.3455
27773W        W44621   9.430   1.725   3.089  0.4763 -0.1347  0.0569
27774W        W44622   6.884   7.026   5.372  0.1805  0.0757 -0.1428
27775W        W44623  13.659   1.813   3.622 -0.1693  0.0093  0.2376
27776W        W44624   4.411  11.002   0.891  0.0986  0.1395  0.0188
27777W        W44625  13.505  14.134   5.612 -0.1570 -0.0554  0.2004
27778W        W44626   5.806   8.883  17.839  0.0065 -0.1823 -0.2807
27779W        W44627   9.655  10.861  14.819  0.0997 -0.1230 -0.1649
27780W        W44628   6.033  11.455  12.481 -0.0315  0.1410 -0.0455
27781W        W44629   4.034   7.640   5.546  0.4467 -0.0231  0.0380
27782W        W44630   2.725  10.367  13.017  0.0395  0.0671  0.0785
27783W        W44631  10.164   9.684   4.434 -0.0591  0.1043  0.1386
27784W        W44632   8.150   0.213   4.380  0.0431  0.2437 -0.1663
27785W        W44633  10.355  10.255  15.494  0.1179 -0.0439 -0.1458
27786W        W44634   8.390  10.927  16.580  0.1345  0.0744  0.3315
27787W        W44635   2.539   9.277   4.929  0.0184 -0.0799 -0.0115
27788W        W44636   5.464   4.074  11.959 -0.1658 -0.3004 -0.1017
27789W        W44637   9.462  11.949   0.979 -0.0752 -0.2443 -0.2052
27790W        W44638   7.282   6.575  14.977 -0.2478  0.1171 -0.0867
27791W        W44639   7.821  14.882   2.813 -0.2341 -0.0825  0.1280
27792W        W44640   8.469   6.599  12.765  0.2430 -0.2808  0.6561
27793W        W44641   8.468   6.098  14.803  0.0251 -0.1210  0.2381
27794W        W44642   0.198   5.577   3.275  0.0493 -0.0673  0.1485
27795W        W44643   6.694   2.812   2.355 -0.1809 -0.1280  0.0508
27796W        W44644   9.817   6.489   6.655 -0.2761 -0.1746 -0.0689
27797W        W44645  15.315  10.002   0.318 -0.1870 -0.1986 -0.1627
27798W        W44646  10.020  11.188   2.346 -0.2022 -0.1973 -0.3510
27799W        W44647   7.240  15.364  12.112 -0.2390 -0.1576 -0.1955
27800W        W44648   5.757  12.109  13.279 -0.2557 -0.1385  0.0249
27801W        W44649   6.184  11.274   4.832  0.1573  0.0904  0.2305
27802W        W44650   9.264   9.789  17.395 -0.2097 -0.1337  0.1816
27803W        W44651   3.772  15.026  17.468 -0.1285 -0.0175 -0.0908
27804W        W44652  11.127   4.465   3.424 -0.3586 -0.1486 -0.0385
27805W        W44653  13.261  13.479  15.654 -0.0490 -0.0813  0.0106
27806W        W44654   6.692  11.345  11.284 -0.4874 -0.3287 -0.1555
27807W        W44655   1.164   9.033  15.576 -0.1674 -0.0326  0.4939
27808W        W44656  13.542   3.877   2.529 -0.1519 -0.3005 -0.1693
27809W        W44657  11.221   9.812  17.463 -0.0254 -0.2984 -0.2369
27810W        W44658  11.329   6.751   0.549  0.0668 -0.2716 -0.2302
27811W        W44659   6.260  12.944   0.470 -0.0594 -0.0672 -0.0266
27812W        W44660  14.661   2.772  16.407 -0.0690 -0.1509 -0.0066
27813W        W44661   8.042   7.056   1.677  0.0878  0.0495  0.0198
27814W        W44662   8.075   3.473   0.111 -0.1410 -0.1332 -0.0982
27815W        W44663   6.311  15.428   3.151 -0.0967  0.0965 -0.1306
27816W        W44664  11.222  13.629   4.310  0.1241 -0.1592  0.0701
27817W        W44665   3.850  16.094  16.427  0.0128 -0.1783  0.3424
27818W        W44666  14.756   7.014  13.393 -0.0117 -0.1274 -0.1427
27819W        W44667   1.808  12.391  16.922 -0.0721  0.2080 -0.0290
27820W        W44668  13.046  15.029  13.143  0.1563  0.0598  0.1511
27821W        W44669   2.941   4.893   1.182 -0.0505  0.1215  0.0902
27822W        W44670   0.868  14.291   0.514 -0.0137 -0.2021  0.0928
27823W        W44671   7.577  10.699  13.998 -0.3593 -0.0914  0.3695
27824W        W44672  16.126  16.126   4.836  0.2077 -0.2191 -0.0691
27825W        W44673  11.817  12.324   0.122  0.0154 -0.0450 -0.0686
27826W        W44674   9.475  14.253   4.408 -0.1481 -0.0404  0.2575
27827W        W44675  16.273   7.604  14.415  0.0169  0.0351 -0.1501
27828W        W44676   8.720  13.551   1.723  0.0167  0.2051 -0.1320
27829W        W44677  13.815   8.081   1.585 -0.2358 -0.1206  0.0209
27830W        W44678  10.608   0.943   5.533  0.0110 -0.2578 -0.1902
27831W        W44679   7.460   4.606   1.371  0.0562 -0.0239 -0.3985
27832W        W44680   0.212   7.763   2.422 -0.0453  0.0501  0.1020
27833W        W44681   2.715   2.777   3.310  0.2337  0.1260 -0.0720
27834W        W44682   4.845   0.350  12.824  0.1373 -0.0101  0.2468
27835W        W44683   8.132  12.878  13.629 -0.0303 -0.0589 -0.0298
27836W        W44684  12.211  10.202  14.117  0.0186 -0.4408 -0.1390
27837W        W44685   2.231  12.098  11.765 -0.0547 -0.1854  0.1150
27838W        W44686  10.779   4.026   0.820  0.1669  0.2309  0.1497
27839W        W44687  12.510   7.361  14.556 -0.3518  0.2200 -0.2166
27840W        W44688   2.206   7.937   2.648  0.0321  0.1180 -0.0955
27841W        W44689   6.951   0.696   3.334  0.2563  0.1847 -0.0713
27842W        W44690   2.560  16.225  17.554 -0.4216 -0.0867 -0.0390
27843W        W44691   4.457  13.069  12.143 -0.3451  0.0102  0.0250
27844W        W44692  13.322   3.602  14.195 -0.0734  0.0503 -0.3295
27845W        W44693  12.525  12.195   1.027 -0.1827 -0.4058  0.3259
27846W        W44694   1.072   0.362  12.454 -0.2597 -0.7004 -0.2033
27847W        W44695   3.705   3.440  13.618  0.0249 -0.2129 -0.1023
27848W        W44696   5.743   1.120   1.515 -0.0442 -0.1890  0.2686
27849W        W44697   0.186   2.018   1.350 -0.1418 -0.3161 -0.0106
27850W        W44698   2.726   1.914  17.829  0.0725 -0.2754 -0.0158
27851W        W44699   2.933  12.482  17.063 -0.1493 -0.1430  0.1998
27852W        W44700  12.545   7.355   2.851 -0.5446 -0.1040 -0.1615
27853W        W44701  10.402   7.501  12.385 -0.2417  0.0245  0.1146
27854W        W44702   6.809   3.941  12.534  0.2199  0.0296 -0.0691
27855W        W44703   9.320   0.091   3.708 -0.0664  0.1897  0.0825
27856W        W44704   5.863   9.469   0.176  0.1659 -0.3853 -0.0588
27857W        W44705   9.168  16.068   0.225  0.2993  0.1865  0.2275
27858W        W44706   2.676  12.104  17.358 -0.0987 -0.1236 -0.2060
27859W        W44707   9.143   9.634  14.407 -0.0588 -0.2997 -0.0980
27860W        W44708  15.228   7.488   1.905 -0.3410  0.1336 -0.2190
27861W        W44709   7.042   9.156   0.525 -0.0485 -0.0248  0.1156
27862W        W44710  10.499  16.217  14.220  0.1714  0.2107  0.1216
27863W        W44711  11.937   4.519   1.065  0.3529 -0.2550 -0.1781
27864W        W44712   2.528  14.221  12.831 -0.0413  0.0015 -0.2435
27865W        W44713  14.526  16.276   4.086 -0.2025 -0.0316 -0.0704
27866W        W44714   1.746  15.082  17.773 -0.1796  0.0103  0.3285
27867W        W44715   3.992  10.682   5.437 -0.0366 -0.3619 -0.0569
27868W        W44716   5.478  15.536   4.695 -0.1014  0.1982 -0.1655
27869W        W44717  14.549  11.333   2.500  0.2272  0.1581  0.1984
27870W        W44718  10.020   4.476   3.260 -0.1444 -0.0114  0.1198
27871W        W44719  15.194   8.070   3.689  0.1462  0.2279 -0.0154
27872W        W44720   0.231   8.610   2.947  0.0071  0.1541 -0.0280
27873W        W44721   0.909   6.641   0.032 -0.0183  0.0943 -0.0447
27874W        W44722  14.404  13.217  17.792  0.3216 -0.0408  0.0244
27875W        W44723  10.253   7.638   4.193 -0.3075 -0.2323  0.0546
27876W        W44724  13.457  11.727  14.691  0.1388  0.2113  0.0729
27877W        W44725  14.083  15.687  16.067 -0.1178 -0.0442  0.1022
27878W        W44726   9.855   4.793  15.092 -0.0993 -0.0882 -0.2568
27879W        W44727   1.584  10.210  13.085  0.1166 -0.1341 -0.2943
27880W        W44728   9.044   8.724   1.534 -0.1960 -0.3694 -0.2429
27881W        W44729  14.639   7.055  15.213 -0.0250 -0.1198 -0.3202
27882W        W44730  14.753  12.766   4.605  0.0153  0.0280 -0.0501
27883W        W44731  15.533  12.327   1.235 -0.0103  0.2207  0.3376
27884W        W44732   9.143   6.393  15.985 -0.2026  0.0311  0.2927
27885W        W44733  16.731   3.166  17.194 -0.3626 -0.1322 -0.0479
27886W        W44734   8.197   9.750   1.330  0.0176 -0.0989 -0.0819
27887W        W44735   6.909   2.786  15.832 -0.1985 -0.1097 -0.1064
27888W        W44736  11.315   8.807   0.118  0.0180 -0.3001  0.0783
27889W        W44737   0.963  10.373   0.699 -0.2947 -0.0687 -0.0500
27890W        W44738   3.654   9.002   1.073 -0.0991 -0.2195 -0.1659
27891W        W44739   5.636  14.619   4.262  0.0958 -0.0475 -0.0868
27892W        W44740   3.340   7.862   0.527 -0.0152  0.0239 -0.2178
27893W        W44741   3.636   4.119   1.916  0.0408 -0.1632 -0.1425
27894W        W44742   6.619   0.906   1.514  0.0459 -0.0949  0.1468
27895W        W44743  12.968   4.446  15.241 -0.0841  0.1080 -0.1152
27896W        W44744   7.537   8.266   5.246 -0.3568 -0.1481  0.0982
27897W        W44745   7.786   5.105  17.194 -0.1863 -0.0043 -0.0503
27898W        W44746   9.019  15.238   0.487  0.0326 -0.1272 -0.0255
27899W        W44747   2.522   3.629  15.922 -0.1176  0.2983  0.3251
27900W        W44748  16.956   8.000   4.132 -0.4269  0.1916  0.0064
27901W        W44749   9.151  12.767   2.483 -0.3511  0.1563  0.1158
27902W        W44750   8.658  13.588   3.970 -0.2673  0.2057 -0.0797
27903W        W44751  16.210   7.049  14.090 -0.1305  0.1609  0.2558
27904W        W44752   3.535   6.330  16.637  0.0781  0.1694  0.0715
27905W        W44753  15.928   6.594  15.684 -0.2861  0.0351 -0.0024
27906W        W44754  16.234   3.872  17.438 -0.0109 -0.1292  0.1082
27907W        W44755  11.929   2.110  16.309  0.0015 -0.0597  0.3946
27908W        W44756   0.398   1.322   4.934  0.0883  0.4071  0.0092
27909W        W44757   5.663   0.662  14.356  0.2229  0.2634  0.0504
27910W        W44758   3.781   9.773  17.294  0.3781 -0.1505 -0.0798
27911W        W44759  16.944   3.986   2.087  0.1563 -0.2338 -0.1119
27912W        W44760  12.971   7.391  17.286  0.0482 -0.1492 -0.0551
27913W        W44761  13.958  13.539   0.464  0.1664 -0.1552 -0.0796
27914W        W44762  13.052   3.402  11.767  0.0184 -0.0494 -0.0778
27915W        W44763   3.514   0.241  14.559  0.1931  0.2788  0.0308
27916W        W44764  13.434  11.794   5.398  0.2958 -0.0100 -0.0537
27917W        W44765   7.162   4.303  17.098  0.1756  0.0821 -0.0863
27918W        W44766   7.918  11.087  15.052  0.1641  0.1609  0.1498
27919W        W44767  15.591   7.712   2.979 -0.2727  0.1749  0.1060
27920W        W44768   3.856   9.328   5.327 -0.2279  0.3416  0.1518
27921W        W44769  10.627  11.250  15.384  0.0154  0.1329 -0.1852
27922W        W44770   0.349   1.656  16.334  0.0611  0.1497  0.0162
27923W        W44771   0.675   9.528  15.769  0.1882  0.0625 -0.0898
27924W        W44772   3.455  16.677  13.237  0.2685  0.1099  0.0691
27925W        W44773   9.081   9.665  16.446 -0.0830 -0.1824 -0.0952
27926W        W44774   2.549  11.812   0.809  0.0212 -0.4359  0.0013
27927W        W44775   8.566   6.336  14.193 -0.0970  0.1087  0.1344
27928W        W44776   2.150   0.050   3.595 -0.3927 -0.2873 -0.0726
27929W        W44777   3.575   4.680   0.465  0.2976  0.0682  0.1952
27930W        W44778   2.710   6.284  13.730  0.1917  0.0844 -0.1985
27931W        W44779   6.332   0.083   4.304  0.1808  0.1797 -0.0341
27932W        W44780   4.723   0.582   0.057  0.0162 -0.0312  0.2205
27933W        W44781   9.136   2.732  12.568  0.1283  0.1008 -0.0964
27934W        W44782  10.847   4.448   1.461  0.1610 -0.0081 -0.1702
27935W        W44783   8.185   1.933   2.531 -0.0352  0.0407  0.0635
27936W        W44784   8.234  10.073   6.734 -0.2459 -0.0934  0.0422
27937W        W44785   4.810   2.401  14.894 -0.3339  0.0062  0.2796
27938W        W44786   4.959   0.851  17.597  0.0071  0.2620 -0.3791
27939W        W44787   6.003   8.468  17.336 -0.1105 -0.2310  0.1643
27940W        W44788  10.247   6.750   5.268 -0.0184  0.2623 -0.1042
27941W        W44789   9.569   0.359  13.070  0.0425  0.2108  0.0344
27942W        W44790  13.753  15.901   0.254 -0.0180 -0.1289  0.2927
27943W        W44791   9.173  12.876  15.807 -0.0939 -0.2553  0.1198
27944W        W44792  12.008   8.203  14.637 -0.2417 -0.0043 -0.0237
27945W        W44793   3.567   2.047   4.159  0.1270 -0.0036  0.3584
27946W        W44794   1.174  11.193   2.965 -0.1856  0.0140 -0.2662
27947W        W44795   7.930   8.203   4.335 -0.0495 -0.0837 -0.0057
27948W        W44796   1.678   5.943  17.460  0.2044  0.0763 -0.2976
27949W        W44797  11.367   9.012   0.617  0.1418  0.0827  0.1451
27950W        W44798   5.710   5.557   6.904 -0.0468 -0.0780 -0.3112
27951W        W44799   9.986   4.632  12.578  0.2815  0.2015  0.1943
27952W        W44800  12.824   8.212  12.850  0.0380  0.0927 -0.0552
27953W        W44801   2.835  16.256  11.992 -0.1077  0.0305 -0.0337
27954W        W44802   1.034  10.658   2.915 -0.3127  0.0560 -0.1948
27955W        W44803  14.508   5.960  14.650  0.1079 -0.3500  0.1714
27956W        W44804   9.417   2.774   1.137  0.1061  0.0583  0.0086
27957W        W44805   7.193   1.573   1.878 -0.0237 -0.1342  0.3005
27958W        W44806  13.972   5.214   2.753 -0.1687 -0.1681  0.2487
27959W        W44807  10.672   8.115  16.915  0.2655 -0.0298  0.2121
27960W        W44808  14.169  16.101  12.137 -0.1508  0.2628 -0.0573
27961W        W44809  11.111   0.243   2.030 -0.0832  0.0940  0.0614
27962W        W44810  14.814   3.893  15.484  0.1076  0.1725  0.0770
27963W        W44811   3.315   8.358   1.465  0.2273 -0.0716 -0.0377
27964W        W44812  16.018   0.436  16.990 -0.1381  0.0396  0.3881
27965W        W44813  14.975   3.337   1.271  0.0191  0.2493  0.1101
27966W        W44814  10.487   8.008   0.931  0.0197 -0.3034  0.0953
27967W        W44815  11.776   5.680   5.112 -0.1364  0.0420  0.1010
27968W        W44816   3.764   6.932   3.681  0.0748 -0.0885 -0.0176
27969W        W44817  15.256  14.296   0.950 -0.3494 -0.1429  0.0533
27970W        W44818  13.299   9.107   4.008 -0.1289  0.1997  0.0272
27971W        W44819   6.664   7.113   4.942 -0.0751 -0.3312 -0.0457
27972W        W44820  16.169  12.313   3.839 -0.0652  0.1684 -0.1133
27973W        W44821   7.581   7.129   1.856 -0.3061 -0.2972  0.1030
27974W        W44822   1.393  10.026  14.227  0.2238  0.4178  0.3704
27975W        W44823   8.817   3.084   1.803  0.1187 -0.1938  0.1289
27976W        W44824  16.238  15.732  15.842 -0.2428 -0.3421 -0.0750
27977W        W44825   6.770   9.162  16.363  0.0197  0.1514 -0.0341
27978W        W44826  10.731  11.267  13.253  0.3114 -0.2123  0.0252
27979W        W44827  15.796   7.981   5.316 -0.0835 -0.4608 -0.2195
27980W        W44828  10.226  12.675   0.944  0.1418  0.1029 -0.0436
27981W        W44829  16.328   2.603   1.286  0.0085  0.1015  0.0101
27982W        W44830   9.423   2.895  16.047 -0.2753 -0.2768  0.0305
27983W        W44831   2.174   5.326  16.914 -0.0594 -0.2283  0.1113
27984W        W44832   7.762   3.147  12.077 -0.1240 -0.4274  0.2183
27985W        W44833   2.087   2.866  17.140 -0.4650  0.0345  0.0946
27986W        W44834   1.348   0.694  12.165  0.1342  0.0147 -0.1360
27987W        W44835   3.876  13.924   1.687  0.3852  0.0664 -0.3498
27988W        W44836   8.660  11.861   0.273  0.0939  0.0356  0.0545
27989W        W44837   5.115   7.736   1.213  0.3536 -0.3609 -0.0145
27990W        W44838   4.269   5.130  12.423 -0.2077 -0.2343 -0.2064
27991W        W44839   5.721  16.382  12.092 -0.2626 -0.2387  0.1922
27992W        W44840   2.566  11.310   0.698 -0.0445  0.1958 -0.3856
27993W        W44841   1.894  16.481  16.099 -0.0440 -0.1552  0.0316
27994W        W44842  15.227  16.445   3.596  0.0247 -0.1884  0.0756
27995W        W44843   6.754   4.587  14.822  0.0696 -0.2666 -0.2231
27996W        W44844  13.166   2.458  14.026  0.1113  0.1010  0.0549
27997W        W44845   8.753   6.688  17.788 -0.2069  0.2084 -0.0139
27998W        W44846   5.654  12.644   5.240 -0.0094  0.0662 -0.2600
27999W        W44847  13.734   5.398  14.519 -0.0806  0.0581 -0.0369
28000W        W44848  14.184  15.674   1.739  0.0175 -0.0399  0.0308
28001W        W44849   0.389   1.228   0.079  0.1631 -0.0661 -0.2978
28002W        W44850   2.527   8.332   4.931 -0.0023  0.1700  0.1599
28003W        W44851  16.358  15.567  12.356 -0.0676  0.3154 -0.1252
28004W        W44852   3.912  11.422  15.304  0.1237 -0.2868  0.0502
28005W        W44853  16.740   1.942   4.719 -0.0707  0.0996 -0.0168
28006W        W44854   0.564  11.866   4.307  0.1246  0.2403  0.0152
28007W        W44855  10.063  11.911  15.320 -0.0450 -0.2170 -0.0626
28008W        W44856  10.051  14.489   2.690  0.1102 -0.0907  0.0945
28009W        W44857  13.121  15.477   3.156  0.0527  0.0332  0.2545
28010W        W44858  13.294   1.985   4.392 -0.0451  0.2411  0.1388
28011W        W44859   8.462   8.308  13.464  0.4841 -0.3733 -0.3674
28012W        W44860  13.866   7.467   2.791  0.0843 -0.1066 -0.1415
28013W        W44861  12.539   6.439  14.224  0.1665  0.2007  0.1333
28014W        W44862  14.531   3.242  16.193 -0.1169 -0.2285 -0.2826
28015W        W44863  11.210  10.091   5.453  0.0862 -0.2193 -0.2151
28016W        W44864  15.364  10.973  14.427  0.1959  0.2337  0.0358
28017W        W44865   5.319   4.516   0.699 -0.0661  0.2580  0.1618
28018W        W44866   7.145   3.754   4.968  0.1935 -0.0295  0.0780
28019W        W44867  13.162   1.196  14.660 -0.1248 -0.0922  0.1640
28020W        W44868   3.795   1.276   2.493  0.5768 -0.1983  0.1173
28021W        W44869   3.499   4.858   2.328 -0.0219 -0.0508 -0.1688
28022W        W44870   7.986  16.690  15.668  0.3083 -0.1569  0.2461
28023W        W44871   1.666  12.130   2.384  0.0221 -0.1802  0.0052
28024W        W44872  15.392  11.816   2.250  0.2005  0.1600  0.2666
28025W        W44873   6.593   9.331   5.022 -0.1214 -0.1442  0.0640
28026W        W44874   6.471  14.573  17.338  0.3253 -0.0026  0.1256
28027W        W44875  15.815   4.490   5.472 -0.1468 -0.1125 -0.4137
28028W        W44876   3.431   4.560  14.084 -0.3312  0.2027  0.2043
28029W        W44877   9.583  11.374  17.086  0.0052 -0.0392 -0.4054
28030W        W44878   6.954  15.556   3.717 -0.1580 -0.1089  0.1082
28031W        W44879  11.830   8.509  12.621  0.0793 -0.0475 -0.1518
28032W        W44880   0.617   0.449   3.250 -0.0205 -0.0320 -0.2334
28033W        W44881  15.155  15.164   2.383  0.2476  0.2747  0.0442
28034W        W44882   1.612  12.676  14.003  0.0148 -0.0763  0.1491
28035W        W44883   9.312   9.468   2.071  0.1746  0.0109  0.0029
28036W        W44884   0.364   8.233   1.207  0.2640 -0.2585 -0.1130
28037W        W44885  15.150  14.229  14.954  0.3182 -0.2887  0.0007
28038W        W44886  14.911   6.612   3.609  0.1520  0.0548 -0.0500
28039W        W44887   3.844  13.501   1.306  0.0514 -0.1629 -0.2905
28040W        W44888   3.646   8.754  14.730 -0.0841  0.3416  0.0194
28041W        W44889  16.550  12.734  13.731 -0.0793  0.0112 -0.0216
28042W        W44890   8.103   8.884  12.889 -0.4015  0.1352 -0.1122
28043W        W44891   0.532  15.946   3.598  0.3648  0.2623  0.0464
28044W        W44892  14.590  14.084  15.705  0.0588 -0.0906 -0.1124
28045W        W44893   0.517   9.524  17.251 -0.2144  0.3731  0.0088
28046W        W44894   7.607  15.315  17.624  0.0763 -0.2798  0.0465
28047W        W44895   6.227   0.173  17.663 -0.0429  0.2032  0.0112
28048W        W44896   5.424   4.119  14.101  0.2347 -0.0534  0.0634
28049W        W44897   7.319   9.779  14.643  0.2471 -0.3306 -0.0709
28050W        W44898  13.313   4.719   2.321  0.3176  0.0803 -0.2789
28051W        W44899   5.123   9.113   2.683 -0.2516 -0.2156  0.0499
28052W        W44900   9.305   1.338  15.742 -0.1077 -0.0589  0.0423
28053W        W44901   1.922   6.303   0.991  0.1415 -0.2425  0.2221
28054W        W44902  15.190   3.515  15.519  0.3230 -0.3090 -0.0321
28055W        W44903   7.864   2.798   5.331 -0.1041 -0.2963 -0.0305
28056W        W44904   8.580  10.306  14.545  0.0383  0.1412  0.3091
28057W        W44905   6.034   8.487   5.413  0.1254 -0.3163  0.2142
28058W        W44906  15.011   9.923  17.390 -0.0801  0.0971 -0.0176
28059W        W44907  16.850   0.763   1.284  0.0116  0.0287  0.1212
28060W        W44908  15.283  11.468  17.336  0.0887 -0.2554 -0.0097
28061W        W44909  13.422   2.618   5.384  0.0025 -0.1788 -0.2348
28062W        W44910   0.482  11.063  17.205  0.0386  0.2660  0.2421
28063W        W44911   4.293  11.023   6.587  0.1112 -0.0715  0.2021
28064W        W44912   3.646  10.748   5.036  0.1511 -0.0865  0.1138
28065W        W44913   4.599  11.352   5.946  0.0548  0.3192  0.0244
28066W        W44914   2.727  14.897  15.031 -0.3775 -0.1377 -0.3835
28067W        W44915   5.546   3.574   1.601 -0.0584  0.1399 -0.0920
28068W        W44916  10.342   8.504   5.152  0.1766 -0.0300  0.1205
28069W        W44917  11.165   1.975  16.944 -0.2269 -0.1606 -0.2044
28070W        W44918   3.625  13.270   2.504  0.0447  0.0424  0.1522
28071W        W44919   7.357  16.524   0.310  0.0739  0.0632 -0.1248
28072W        W44920  10.456  12.370   6.364  0.0498  0.3100 -0.1652
28073W        W44921   6.686  16.016  13.495  0.0563  0.0868  0.0100
28074W        W44922  10.011  13.173  17.375  0.0388 -0.0868 -0.0251
28075W        W44923   2.237  10.831  17.103  0.1233 -0.1855 -0.0633
28076W        W44924  11.624   9.667  17.088 -0.1262 -0.1437  0.1541
28077W        W44925   5.717   5.490   3.532  0.2691  0.0556 -0.0996
28078W        W44926  14.070   3.565  15.596  0.0036  0.1702  0.1809
28079W        W44927  12.125  10.015   0.133 -0.1699  0.2143  0.1729
28080W        W44928  15.077   1.456   5.451 -0.1057 -0.2687  0.2341
28081W        W44929   4.903  15.505   3.274 -0.0113 -0.1147 -0.0967
28082W        W44930   7.313   5.133   2.911  0.1801 -0.1364 -0.1582
28083W        W44931   9.653  12.862  17.586  0.1111 -0.2495  0.2955
28084W        W44932   6.489  14.027   5.943 -0.0619 -0.0992 -0.0212
28085W        W44933   4.250  15.563   1.199 -0.0424  0.1741 -0.1353
28086W        W44934   5.080  10.316   1.087  0.0955  0.1323 -0.0635
28087W        W44935   4.176   2.651  13.309 -0.0378  0.0785  0.0241
28088W        W44936   8.094   6.430  13.219 -0.1756  0.1619  0.1658
28089W        W44937   9.142   9.202  14.154 -0.0071  0.1875  0.1794
28090W        W44938  15.460  13.126   4.628 -0.0585  0.0175 -0.0764
28091W        W44939   5.994  15.355  13.459  0.1321 -0.0362 -0.2538
28092W        W44940   8.978   4.771   4.541 -0.2385 -0.0713 -0.0796
28093W        W44941   5.544  11.129   1.798 -0.1158  0.1042  0.0717
28094W        W44942   1.677  12.224   0.776 -0.1506  0.3226 -0.0120
28095W        W44943   1.204  10.934   2.533 -0.2462  0.3885 -0.0938
28096W        W44944   3.646  12.109  17.516 -0.1379 -0.1034 -0.2766
28097W        W44945   0.252  15.482  12.372 -0.0815  0.1148 -0.0817
28098W        W44946  15.390   4.120   0.510 -0.2986 -0.2655  0.3354
28099W        W44947  11.275   4.681  15.385 -0.1662  0.0817 -0.1102
28100W        W44948   3.202  13.636   3.713  0.0108 -0.0683 -0.2712
28101W        W44949  16.392   0.271  16.019  0.1753 -0.0305 -0.1310
28102W        W44950   2.628   5.554   1.924 -0.4768  0.1709 -0.1378
28103W        W44951   6.696   2.487   1.024  0.0565  0.3014 -0.1212
28104W        W44952   7.377  16.245  15.173 -0.4063  0.0178  0.0526
28105W        W44953  12.021  12.380   0.958 -0.1256  0.1138 -0.0533
28106W        W44954  10.018  10.566   5.786 -0.1188  0.2194  0.1996
28107W        W44955   8.710  13.559  17.225  0.0341  0.1476  0.0614
28108W        W44956  14.991   5.863  14.484 -0.0166  0.2931 -0.1546
28109W        W44957   3.787  11.694  17.708  0.1374 -0.1301 -0.0125
28110W        W44958   8.519  14.984   0.567 -0.2799  0.1299  0.1233
28111W        W44959   3.913   4.018   5.599  0.1814 -0.0257  0.0413
28112W        W44960  14.831   5.174  13.092  0.0909 -0.3430 -0.2065
28113W        W44961   1.977   8.053  15.105  0.2586 -0.1108  0.1143
28114W        W44962   9.534  10.283   4.970  0.0139 -0.0855 -0.2944
28115W        W44963   3.636   2.290   2.967  0.0363  0.1934  0.2682
28116W        W44964   1.176  16.949  13.638  0.0163 -0.1532  0.0034
28117W        W44965   3.432   7.996  15.443  0.1299  0.2317 -0.0951
28118W        W44966   9.183   1.586  14.266 -0.2820  0.0638 -0.1594
28119W        W44967  12.074   8.383  13.885  0.2073  0.2662 -0.2918
28120W        W44968   7.516  10.322  14.724  0.1337  0.1304 -0.0898
28121W        W44969  15.151  10.172  14.702 -0.2180 -0.2347  0.1886
28122W        W44970  13.531   9.546  15.739 -0.1737  0.1534 -0.1469
28123W        W44971   7.816  16.353  14.910 -0.1215  0.1069 -0.0958
28124W        W44972  15.117  12.166   1.924 -0.1638  0.1915 -0.0704
28125W        W44973   9.827   5.593  14.627 -0.0326  0.1893  0.0291
28126W        W44974  10.720   4.494   4.908 -0.0625 -0.0922  0.0726
28127W        W44975  10.493  13.464   4.980  0.1109  0.0677 -0.0877
28128W        W44976  10.866   9.368  13.318  0.1410 -0.0736  0.0597
28129W        W44977  14.482  12.230  17.312  0.0686 -0.5154 -0.1283
28130W        W44978   7.319  13.716   3.618 -0.1426 -0.1438 -0.1346
28131W        W44979   8.472   9.220  15.045  0.2280  0.0510 -0.2796
28132W        W44980   7.634  17.029  13.378  0.3364  0.0507 -0.2480
28133W        W44981   4.049  13.205   2.238 -0.2397  0.0131 -0.1285
28134W        W44982  15.906   1.353  12.061 -0.1407  0.1524 -0.1589
28135W        W44983   2.794  13.013   1.357  0.4491 -0.2126 -0.0232
28136W        W44984  10.693   4.858   0.527 -0.4057  0.0247 -0.0053
28137W        W44985   0.387   8.042   5.439 -0.2697  0.0298  0.1606
28138W        W44986  14.660   2.850  15.815 -0.1966 -0.0392 -0.0176
28139W        W44987   6.739   0.547  15.527  0.0706  0.1728 -0.1865
28140W        W44988   8.262  16.450   5.836  0.2275  0.2556 -0.1983
28141W        W44989  17.007   1.186  12.782 -0.0634 -0.0027  0.0733
28142W        W44990   3.683  15.928  12.283  0.0401  0.1605 -0.1715
28143W        W44991  11.716   4.187  13.869  0.1823 -0.0198  0.1355
28144W        W44992   1.658  15.316   2.923 -0.0971 -0.2093  0.1612
28145W        W44993   0.237   8.496  13.656  0.0291 -0.0123 -0.2258
28146W        W44994  15.534  15.353   0.851 -0.0614  0.0437  0.0893
28147W        W44995   9.331   5.458  14.675 -0.2142 -0.0065  0.0380
28148W        W44996   6.496   9.953   6.230  0.0432 -0.2544 -0.1286
28149W        W44997   8.645   8.179   3.324  0.0226  0.0892  0.0341
28150W        W44998   0.468  16.987  13.144 -0.0802 -0.0416 -0.0759
28151W        W44999   3.715   3.669  14.082  0.1643  0.1799 -0.0265
28152W        W45000   6.742   9.429   2.162 -0.1368  0.0402  0.0084
28153W        W45001   2.111   7.171  15.146  0.0880  0.2102  0.0116
28154W        W45002  12.867   5.102  12.647  0.0395 -0.1547  0.3065
28155W        W45003   3.638  10.244   3.169 -0.0052 -0.1813  0.0927
28156W        W45004   5.542  14.293   4.626  0.2519  0.0728 -0.0140
28157W        W45005   2.440  14.638  15.364 -0.0437 -0.1757 -0.2052
28158W        W45006   4.234   0.130  15.612 -0.1468  0.1842  0.1985
28159W        W45007  16.016  16.726  16.638  0.2493  0.3508 -0.2120
28160W        W45008   1.331   0.302  14.111 -0.0387 -0.0718 -0.2626
28161W        W45009   5.713   6.573  17.510 -0.0593  0.0449  0.3521
28162W        W45010   8.022   6.373  16.230  0.1786  0.0383  0.2946
28163W        W45011   8.101  12.167  15.173 -0.0719  0.0278  0.0301
28164W        W45012  16.857   9.516   2.481  0.0660 -0.1343 -0.1795
28165W        W45013  13.904  15.056   1.658 -0.1055  0.4340 -0.1176
28166W        W45014   9.969  14.549  15.915 -0.2532  0.0264 -0.2522
28167W        W45015  16.999  15.104  16.611  0.1531  0.3831  0.1392
28168W        W45016   2.748  16.677  16.112 -0.1534 -0.0003  0.1977
28169W        W45017   5.389  12.739  13.998 -0.2949 -0.0416  0.0361
28170W        W45018  10.659  16.216  12.598  0.0558 -0.0315  0.0976
28171W        W45019   6.065   8.080  14.490 -0.1003 -0.0439  0.2120
28172W        W45020   7.071  11.289   2.333 -0.1718  0.0303  0.0069
28173W        W45021   9.192  12.259   3.765  0.3070  0.2083 -0.2478
28174W        W45022  14.070   9.827   3.322 -0.2063  0.1921 -0.0598
28175W        W45023   2.800  13.747   4.622  0.1146 -0.1898 -0.2315
28176W        W45024   3.987   9.163  15.423 -0.1435 -0.1150  0.0469
28177W        W45025  12.736   9.964  16.693  0.1441  0.0320  0.0922
28178W        W45026   9.175  12.342   6.620  0.1017  0.0758 -0.1718
28179W        W45027   7.351  13.270  15.248 -0.0126 -0.1941  0.1585
28180W        W45028  16.980  15.153   4.340 -0.0928  0.1308 -0.1451
28181W        W45029  14.804  13.041  16.240 -0.1494  0.1076 -0.3271
28182W        W45030  16.351  16.076  16.683  0.1429 -0.0226 -0.0048
28183W        W45031   4.563   5.487  15.198 -0.1755  0.0086 -0.0445
28184W        W45032   2.771  12.797  16.183  0.0369  0.0909  0.0372
28185W        W45033   0.790   1.362   3.641  0.2033  0.0751 -0.3965
28186W        W45034  11.392   9.019  17.492 -0.2486 -0.1231 -0.6182
28187W        W45035   2.717   0.988  16.699  0.0808  0.0565  0.0264
28188W        W45036  13.076  12.805   1.752 -0.0776  0.0497 -0.3384
28189W        W45037  16.190  15.703   3.434  0.1547 -0.1694  0.4101
28190W        W45038  16.027   6.190   4.406 -0.2693  0.0537  0.0339
28191W        W45039   7.097  15.384  17.061  0.0645  0.1980  0.0793
28192W        W45040   2.245   7.631   2.279 -0.0966 -0.2992 -0.0112
28193W        W45041   7.538   7.101  13.529 -0.0489  0.0088 -0.0674
28194W        W45042  10.427  17.063   5.282  0.1139  0.0258  0.0275
28195W        W45043   0.494   8.142   2.052  0.1376 -0.2933  0.0043
28196W        W45044   1.423   0.743   1.828  0.0292 -0.0206 -0.1278
28197W        W45045  15.873   9.487  13.261 -0.1710 -0.2319  0.1068
28198W        W45046  16.055   2.197  15.263 -0.1874 -0.0505 -0.1070
28199W        W45047   9.631   5.123   4.287 -0.3006 -0.1598  0.2119
28200W        W45048   0.322   0.844   3.149 -0.2509 -0.0871 -0.3266
28201W        W45049   0.247   9.641   2.319  0.2482  0.2233 -0.2145
28202W        W45050   9.410  12.486   4.866  0.1151 -0.0970  0.1617
28203W        W45051  11.484   8.666   2.752  0.0271 -0.0949 -0.3810
28204W        W45052  14.108   1.874  17.499 -0.0734 -0.1311 -0.2733
28205W        W45053   7.438   8.215   2.185 -0.0142 -0.1665  0.0257
28206W        W45054  16.260   5.711  14.161  0.3472 -0.1155  0.0841
28207W        W45055   9.339   5.972   4.630 -0.4167  0.1015  0.0041
28208W        W45056  15.333  16.069  12.948 -0.3394  0.0272  0.1276
28209W        W45057  14.691  10.180   4.484 -0.0463 -0.1351 -0.1217
28210W        W45058   7.218   7.477  17.774 -0.0820 -0.0334  0.1874
28211W        W45059  13.829   8.535  14.748 -0.3213  0.0603  0.0998
28212W        W45060  12.555   5.208   2.321 -0.5439 -0.0555 -0.0160
28213W        W45061   6.967  12.597  15.586 -0.0208 -0.0977 -0.2501
28214W        W45062  13.036   1.319   2.701 -0.0863  0.0750 -0.1110
28215W        W45063   2.751  13.857  13.893  0.1122  0.3105  0.2438
28216W        W45064   9.296   1.814   5.499  0.1403 -0.5569 -0.0343
28217W        W45065   3.530   2.180  17.191  0.1742  0.2221 -0.1447
28218W        W45066   1.558  13.813  13.908  0.0297 -0.0226 -0.0503
28219W        W45067  16.168  12.215   2.085 -0.2447  0.1401 -0.3356
28220W        W45068  15.328   5.306  17.758  0.1293 -0.2128 -0.2251
28221W        W45069   8.203  13.186   1.009  0.0548 -0.2107  0.0841
28222W        W45070  12.548   0.650   2.628  0.0470  0.1312 -0.1188
28223W        W45071  13.629  15.875  13.269 -0.2256 -0.1526  0.0848
28224W        W45072   3.729  16.741   4.041 -0.0506  0.1367 -0.0532
28225W        W45073  11.726  15.798  15.448  0.3251  0.1188  0.0259
28226W        W45074   1.383   9.371  15.872 -0.0788 -0.0083 -0.2235
28227W        W45075  16.594  11.317  13.171  0.0810  0.1050 -0.1345
28228W        W45076  14.236   6.733   2.718 -0.0128  0.0905  0.3318
28229W        W45077   7.695   0.439  15.384 -0.3040  0.1009 -0.1141
28230W        W45078   1.416  15.460  11.792  0.0266  0.1816 -0.2432
28231W        W45079   8.987  16.237   4.258 -0.0355 -0.0501 -0.6100
28232W        W45080   6.953  16.966   4.727  0.0878 -0.0084  0.1241
28233W        W45081   5.633   5.231  13.398 -0.2420 -0.0489 -0.1699
28234W        W45082  12.699  15.707  17.531  0.1535 -0.1342  0.1001
28235W        W45083   7.576  13.333  11.552  0.0382 -0.1632 -0.1007
28236W        W45084  16.383   8.962   2.782  0.0404 -0.3280  0.1496
28237W        W45085   6.410   8.250  16.112 -0.2735  0.1649  0.0042
28238W        W45086   5.599   3.151   3.304  0.1057 -0.1129 -0.0055
28239W        W45087  16.028   1.819   3.234  0.1456 -0.1710  0.0622
28240W        W45088  17.016   1.559  14.645 -0.1741 -0.0774 -0.0069
28241W        W45089  15.592   1.862   0.947  0.2651 -0.2343 -0.2162
28242W        W45090  15.368   4.370  14.569 -0.1360  0.0299 -0.2534
28243W        W45091   2.502   2.765  14.987  0.1467  0.0296  0.2517
28244W        W45092   2.705  10.749  11.839  0.2351  0.1843 -0.0826
28245W        W45093  12.177   2.268  13.931 -0.0643  0.1579  0.1732
28246W        W45094  12.583  16.702  13.670 -0.0273  0.1508 -0.0658
28247W        W45095   3.339   0.052  13.801 -0.0353  0.0545  0.3192
28248W        W45096  12.225   6.140  17.810 -0.2743  0.1049  0.2940
28249W        W45097  12.687  14.812   0.448 -0.0088  0.4309 -0.0217
28250W        W45098  11.784   3.041  16.395  0.1936 -0.3041 -0.2104
28251W        W45099   4.321  10.227   0.609 -0.0924  0.1761  0.1817
28252W        W45100  12.940   0.476  13.726  0.1602 -0.1178 -0.1841
28253W        W45101  13.877   9.618  17.636  0.0417  0.1790 -0.1171
28254W        W45102  14.596   1.787   2.077  0.2971  0.0578  0.0049
28255W        W45103  13.852  11.870   5.110  0.1614  0.0592  0.0031
28256W        W45104   9.606  10.573  17.156  0.4145  0.0496  0.0617
28257W        W45105  11.683  10.566  14.702  0.1287  0.2100 -0.0167
28258W        W45106  11.068   5.309   1.836  0.2553  0.0875  0.0934
28259W        W45107   7.056   5.217  13.249  0.0331 -0.1813  0.0925
28260W        W45108   8.514  15.277  16.342 -0.4412  0.1838 -0.2949
28261W        W45109   6.844   0.290   6.646  0.2294 -0.0189 -0.1982
28262W        W45110   4.284  12.251  14.430  0.0346 -0.0365 -0.0433
28263W        W45111   4.235   4.467   0.690  0.1782  0.0924  0.1105
28264W        W45112   7.930  12.055  13.206  0.2375 -0.2975 -0.0524
28265W        W45113  13.914  16.486  12.463 -0.1782  0.0383 -0.2201
28266W        W45114  11.557  17.048  13.693  0.0292  0.0349  0.0714
28267W        W45115  16.230   0.228   2.560  0.1991 -0.0419 -0.0273
28268W        W45116   4.939   4.651   1.638  0.0979 -0.1036 -0.0538
28269W        W45117  14.648  13.669  14.631 -0.0041 -0.0211 -0.1216
28270W        W45118   9.392   0.795   5.103  0.1871 -0.1018  0.2045
28271W        W45119  11.157   5.712  12.211  0.0647 -0.0114  0.2992
28272W        W45120   5.580   1.170   2.546  0.2278  0.3257  0.2770
28273W        W45121   5.803   3.366   6.087  0.0793  0.1380 -0.0942
28274W        W45122   5.961   8.721   3.538 -0.1271  0.3166 -0.0855
28275W        W45123  15.590  14.984   3.220 -0.0492 -0.2971  0.1407
28276W        W45124  10.154  12.528   1.624 -0.0831  0.0359 -0.0668
28277W        W45125  10.537   9.931  14.962  0.0032 -0.1226  0.0433
28278W        W45126  14.445   7.701  12.669  0.0205 -0.1140 -0.0729
28279W        W45127   0.937   9.348   2.623 -0.0490 -0.1103  0.0723
28280W        W45128  10.039   0.762   3.994 -0.5188 -0.0787 -0.0320
28281W        W45129   4.957  13.903   2.458 -0.1984 -0.0846  0.0634
28282W        W45130  16.702   0.477   0.271 -0.4643  0.1194  0.0542
28283W        W45131  14.437  16.116   3.195  0.3747  0.0557  0.5601
28284W        W45132  13.614   0.783  12.392  0.3274 -0.3494 -0.0108
28285W        W45133  11.912  15.953   4.275 -0.0064  0.0463  0.0011
28286W        W45134   4.852   8.962  14.582 -0.0200 -0.0029 -0.2289
28287W        W45135   3.262   9.816  13.997 -0.1487  0.0030 -0.2281
28288W        W45136   0.154   9.040   0.737  0.2016  0.0416 -0.1898
28289W        W45137  13.856   2.285   5.206  0.0232 -0.0081 -0.0217
28290W        W45138   4.670  13.187   4.298  0.3808  0.3029  0.2735
28291W        W45139   8.838   2.739   0.377  0.4120  0.2139 -0.2234
28292W        W45140   5.530  10.723   1.473 -0.4376  0.1480 -0.0531
28293W        W45141  12.622  10.300  17.675  0.0805 -0.0408  0.3088
28294W        W45142   2.867  16.066   3.190  0.0638 -0.0826 -0.0359
28295W        W45143  10.542   1.629  17.378 -0.2536 -0.1735  0.4014
28296W        W45144  15.378   3.470  14.151  0.1991  0.0039  0.3019
28297W        W45145  16.422   5.432  16.737  0.2416  0.0982  0.2852
28298W        W45146   1.589   4.717  13.927  0.0099  0.1319 -0.0108
28299W        W45147   7.589  10.489   3.755 -0.1733  0.1937 -0.0796
28300W        W45148   7.853  10.893   4.695 -0.2967 -0.2292 -0.0863
28301W        W45149   7.299  14.444  16.351  0.2518  0.2126 -0.1795
28302W        W45150   2.959   9.972   0.539 -0.1316  0.0080 -0.1604
28303W        W45151  10.934  14.650   5.372 -0.0309  0.0427 -0.0602
28304W        W45152  16.426   1.887   0.535 -0.3172  0.0450 -0.2332
28305W        W45153  15.293   8.418  14.905 -0.1685 -0.2550  0.2399
28306W        W45154   0.880   8.863  16.565 -0.0365  0.2478  0.0137
28307W        W45155  11.654  10.272   0.962 -0.0063 -0.2434  0.1763
28308W        W45156   3.033  11.584  13.892  0.1647  0.0734  0.0972
28309W        W45157   1.001  12.753  16.718 -0.0379 -0.0756  0.2253
28310W        W45158   6.340   4.697  13.075  0.2286 -0.0678  0.1360
28311W        W45159  17.018   3.182  14.214  0.0606 -0.2935 -0.2828
28312W        W45160   3.857   4.804   4.354  0.1315 -0.0144  0.0166
28313W        W45161   0.437   2.571   0.666 -0.0523  0.1655  0.0536
28314W        W45162  14.339  16.396  15.511  0.1485 -0.2090 -0.2212
28315W        W45163   9.231   6.688  15.020 -0.1176 -0.0444  0.1393
28316W        W45164   3.626  10.793   0.554 -0.1500  0.0825 -0.0342
28317W        W45165   8.219   0.600   4.083  0.0699 -0.0675  0.0447
28318W        W45166   0.122  16.707   0.681 -0.2812 -0.1142  0.1794
28319W        W45167   0.136   2.301   5.406 -0.0288  0.0458  0.0139
28320W        W45168  16.661  13.960  14.040  0.0736 -0.1708 -0.0078
28321W        W45169  11.434  12.894   5.885 -0.0405  0.0390 -0.3731
28322W        W45170   5.007  14.014  13.731  0.1829 -0.0608  0.1899
28323W        W45171   7.587   0.443  13.134  0.1426 -0.1621  0.0064
28324W        W45172   3.855  12.761   0.473 -0.2671 -0.1651 -0.0066
28325W        W45173   2.379   6.069  17.114 -0.0818  0.0276 -0.3642
28326W        W45174  12.248   0.930  12.812 -0.2349  0.2017  0.0315
28327W        W45175   8.594   1.548   5.115  0.0459  0.3245 -0.2754
28328W        W45176  16.268  15.774   0.520 -0.1126  0.0888  0.0589
28329W        W45177   6.652  12.350   0.029  0.0888  0.1655  0.0391
28330W        W45178   0.499   0.351  14.293 -0.2815  0.0704 -0.0845
28331W        W45179  15.388   9.328   1.006 -0.2715 -0.0540 -0.1157
28332W        W45180  13.929   6.993   4.485  0.1775  0.1024  0.1194
28333W        W45181  10.532  10.908  16.011  0.2980 -0.2309  0.1171
28334W        W45182   8.712   7.504   2.861 -0.1581  0.1652  0.1312
28335W        W45183   3.665  16.172   4.656  0.2382  0.2217  0.0074
28336W        W45184  15.475   4.883   0.155  0.0703 -0.1323  0.0499
28337W        W45185  14.753   2.444   0.441  0.0891 -0.5433 -0.0407
28338W        W45186  16.400   4.408  15.860  0.1542  0.0552 -0.3062
28339W        W45187  12.726   2.200   2.773  0.0422 -0.1273 -0.2084
28340W        W45188   4.253   2.106   4.122  0.0706  0.2223  0.2979
28341W        W45189  11.827   2.758  12.412  0.0488 -0.1526  0.3582
28342W        W45190  13.908   9.852  15.068 -0.0642  0.1127  0.0999
28343W        W45191   2.595  13.476  13.491 -0.1398  0.2405  0.1576
28344W        W45192   6.833   5.035   2.532 -0.3855  0.1974 -0.0618
28345W        W45193   7.344  15.669  11.703 -0.0464 -0.0895 -0.1580
28346W        W45194  13.316  16.170   2.553 -0.1684  0.0800 -0.0655
28347W        W45195  13.445   1.572  17.039 -0.0886  0.2324  0.3726
28348W        W45196   2.257   0.270  13.636  0.0639 -0.0082  0.0540
28349W        W45197  12.433  15.798   1.142 -0.0101  0.1497 -0.0064
28350W        W45198   5.033  16.292   1.608 -0.2693 -0.2871 -0.1061
28351W        W45199   7.753  12.352  15.510 -0.0422 -0.0097 -0.2375
28352W        W45200   2.190  14.877  15.792 -0.1613  0.0888 -0.1649
28353W        W45201   7.736   3.760   5.261 -0.0591  0.1645 -0.3768
28354W        W45202   8.410   1.033   0.315 -0.1214 -0.0211  0.0116
28355W        W45203   3.569  12.063  11.507  0.3067 -0.0402  0.1379
28356W        W45204   3.782  15.591  13.481  0.0118 -0.0982  0.1030
28357W        W45205   0.863   7.224  15.726  0.1556 -0.1382  0.4523
28358W        W45206  15.452  15.809  14.892 -0.3244 -0.2773 -0.1911
28359W        W45207   1.177   6.235   3.073  0.2088 -0.0645  0.2203
28360W        W45208   8.607   3.092  13.369 -0.3012  0.0181  0.0061
28361W        W45209   5.590   9.465  13.927  0.0546  0.2498 -0.0029
28362W        W45210  15.855  11.527   4.043 -0.0511 -0.3245  0.2689
28363W        W45211   8.695   0.415  12.133 -0.0572 -0.1200  0.0532
28364W        W45212   9.975  15.282  17.333 -0.2107 -0.1123  0.2917
28365W        W45213   8.474   9.267   4.100  0.1225  0.2941 -0.0055
28366W        W45214  15.008   4.531  14.953 -0.3936 -0.0811  0.0053
28367W        W45215  16.282   3.721   5.133 -0.3392  0.3535 -0.1997
28368W        W45216  15.446   9.647  15.609  0.1675  0.0203 -0.1405
28369W        W45217   0.059   3.752  16.491  0.1290  0.0568 -0.1422
28370W        W45218  12.556   7.456   0.233  0.0546 -0.0230  0.2381
28371W        W45219  12.299  11.100   6.630 -0.0920  0.0259  0.7062
28372W        W45220   3.131  13.245  12.651 -0.0954  0.1431  0.0437
28373W        W45221  11.525  12.920  15.487 -0.0110  0.1656  0.1453
28374W        W45222  12.742  16.906   3.043 -0.0768 -0.4812  0.1586
28375W        W45223   0.088   1.705  15.105  0.0679  0.1130 -0.0227
28376W        W45224  11.425   3.369   0.592  0.1170 -0.2336 -0.0481
28377W        W45225   4.835  12.877  15.442 -0.0055 -0.1460 -0.0527
28378W        W45226  15.732  16.098  17.468 -0.0717  0.1229 -0.0703
28379W        W45227   5.385   3.991  16.443  0.0712 -0.1859  0.1641
28380W        W45228  12.697   3.455  14.659 -0.1508 -0.1132 -0.2602
28381W        W45229   2.846   1.308   0.508  0.1166  0.1564 -0.1465
28382W        W45230  11.173   1.471   4.036  0.0281  0.0657 -0.0945
28383W        W45231  13.038   0.427  15.484  0.0056  0.3456  0.1095
28384W        W45232   1.453   0.225  16.633 -0.0852 -0.0749  0.0574
28385W        W45233   6.595  12.057   2.541 -0.0823 -0.2546 -0.1063
28386W        W45234   3.504   3.434   4.012  0.1054 -0.0512 -0.1741
28387W        W45235   4.722  11.562   1.438  0.1012 -0.1462  0.0203
28388W        W45236   6.473   1.989  16.023  0.1870 -0.1234  0.0098
28389W        W45237   6.712  16.840   4.232 -0.4719 -0.1144 -0.2237
28390W        W45238  10.113   1.586  14.913 -0.0670 -0.0358  0.1721
28391W        W45239   6.847  13.063  12.203  0.2663  0.1946  0.0833
28392W        W45240  15.326   0.363   5.021  0.2888 -0.0133 -0.3119
28393W        W45241   3.863   1.997   4.548  0.4657 -0.2973  0.3114
28394W        W45242   7.642  16.202   4.926 -0.2425 -0.0433 -0.0189
28395W        W45243   1.035   9.653  13.475  0.2300  0.0319  0.1249
28396W        W45244   2.856   3.943   5.062 -0.0429 -0.0185 -0.2520
28397W        W45245  15.582   1.560   3.319  0.2608 -0.3693  0.3185
28398W        W45246  10.925  15.415  14.304  0.1539  0.0261  0.0363
28399W        W45247  13.048   4.816  16.355 -0.4440  0.1726  0.0263
28400W        W45248  15.744   6.953   5.487 -0.0936  0.0441 -0.0578
28401W        W45249   6.698   4.127  12.074 -0.0405 -0.2938  0.2710
28402W        W45250  15.611   4.563  17.041  0.1968 -0.1479 -0.0332
28403W        W45251  14.801  10.757   3.996 -0.1740  0.0294 -0.0815
28404W        W45252   9.213   3.175  12.153 -0.2679 -0.1760 -0.0059
28405W        W45253  11.100   0.251  16.857 -0.3314 -0.2560 -0.3463
28406W        W45254   1.231   7.068  14.766  0.0045 -0.0133 -0.0499
28407W        W45255   5.977  15.542  17.796  0.2301  0.0458 -0.3320
28408W        W45256   6.494  14.878   3.085 -0.1624  0.1144  0.2789
28409W        W45257   3.061   5.979  13.960  0.0028 -0.1871  0.0926
28410W        W45258  11.497   1.776   1.925  0.0906 -0.1927 -0.2474
28411W        W45259   5.115   1.879  16.183 -0.0802  0.0776  0.1561
28412W        W45260   6.418   7.904  17.596 -0.2880 -0.2428 -0.3852
28413W        W45261  14.107   4.015  11.873 -0.1995 -0.0475  0.0475
28414W        W45262  13.073  10.626  14.353  0.2072  0.1829 -0.0694
28415W        W45263   0.754   6.392  17.147 -0.2028  0.0666 -0.2482
28416W        W45264   7.155   8.465   2.557  0.0561  0.1382 -0.0707
28417W        W45265  14.083   6.221   2.597  0.1289  0.0886  0.0319
28418W        W45266   6.517  13.230   5.622  0.1709  0.1608 -0.1870
28419W        W45267   8.839   0.043   1.458 -0.0495 -0.1142 -0.4105
28420W        W45268  13.966  14.113  13.387 -0.0522 -0.1848  0.0078
28421W        W45269  15.679  10.631  17.847  0.1005  0.0771 -0.0908
28422W        W45270  10.816  14.015   2.857  0.0469  0.0255  0.0905
28423W        W45271  15.943   9.383   4.224  0.2590  0.0463 -0.4714
28424W        W45272   6.212  15.287   0.325 -0.3934  0.1241  0.0091
28425W        W45273   3.568   5.383   2.549 -0.1128 -0.2022  0.0695
28426W        W45274  13.988   2.260   3.366  0.0063  0.1711 -0.0212
28427W        W45275  13.347   8.220   2.435 -0.0203  0.1262  0.0484
28428W        W45276   5.742   1.710   0.029 -0.1680 -0.3597  0.0342
28429W        W45277   7.245  15.959  14.783  0.1615 -0.4187  0.0582
28430W        W45278  15.013  15.164  16.992 -0.0291 -0.1227  0.2399
28431W        W45279   9.477  10.494  13.071  0.1434 -0.0504  0.1302
28432W        W45280   1.400  10.906   4.082  0.0547  0.1124  0.2454
28433W        W45281   4.450   0.232  16.065  0.3761  0.2768 -0.0990
28434W        W45282  14.023   3.273   5.077 -0.2200  0.0959 -0.1497
28435W        W45283   0.552   2.564   2.897  0.0293 -0.0677 -0.2711
28436W        W45284  16.264   1.919  12.601  0.0854 -0.0268 -0.0056
28437W        W45285   1.675  13.926   4.576  0.1936 -0.1810 -0.1500
28438W        W45286  14.227   9.553  16.935  0.0475 -0.0570  0.3688
28439W        W45287  11.797   7.382   4.479 -0.1000 -0.1759  0.3874
28440W        W45288   7.345  13.699   2.687 -0.0622  0.1156 -0.2514
28441W        W45289   5.251   2.762   4.208 -0.0007  0.1501  0.1160
28442W        W45290  13.401   5.080  13.131 -0.1504 -0.1081 -0.0673
28443W        W45291  11.708   7.506  14.120  0.0038 -0.1813  0.0272
28444W        W45292  16.131   4.298  12.926  0.2280  0.0550  0.5806
28445W        W45293   4.355   2.577  15.753  0.3107  0.0753  0.0998
28446W        W45294   4.087  12.371  13.362  0.0967 -0.0449  0.0100
28447W        W45295   2.439   5.122   5.688 -0.1702  0.1990 -0.1753
28448W        W45296   5.608  11.000  17.192  0.0003 -0.0458  0.2901
28449W        W45297  15.561  10.989  11.479 -0.0689  0.1276  0.0817
28450W        W45298   3.301  16.488   3.555  0.0713 -0.0831 -0.0543
28451W        W45299  16.965   2.153   1.829  0.1490 -0.0832 -0.1527
28452W        W45300   6.501   2.076   5.544  0.3415 -0.0202  0.1677
28453W        W45301  12.007  13.932   0.434 -0.0974 -0.2212  0.3659
28454W        W45302   3.418  16.082  17.540  0.4078 -0.1118  0.1073
28455W        W45303   0.129   8.007  15.801  0.0144  0.4867  0.2424
28456W        W45304  12.366   2.289   4.061 -0.3398  0.0586 -0.0118
28457W        W45305   1.915  16.636   2.296 -0.1275  0.1486 -0.0559
28458W        W45306   6.315   2.399   1.486  0.1078  0.1534 -0.0792
28459W        W45307   4.240  15.899   0.092 -0.1366  0.1335  0.2142
28460W        W45308   0.610  12.692   3.923  0.0770 -0.0983 -0.1152
28461W        W45309  12.755   4.871   0.099  0.1690 -0.1946  0.1384
28462W        W45310   5.693   9.064   0.895 -0.0863 -0.0537  0.0465
28463W        W45311  12.024   7.702   1.402 -0.1848 -0.1499 -0.1961
28464W        W45312   8.353   1.847   3.868  0.0206 -0.0708  0.0713
28465W        W45313   4.850  13.119  14.945 -0.0312 -0.0071  0.2405
28466W        W45314   0.596  10.654   1.491 -0.1738  0.0190  0.2086
28467W        W45315  13.424  15.691  17.081 -0.1334 -0.1206  0.1879
28468W        W45316   4.772  13.545  13.778 -0.2235 -0.1881  0.3081
28469W        W45317  15.596  12.801  14.957  0.1800 -0.1682 -0.0795
28470W        W45318  11.865  15.798  16.153  0.1638 -0.0950  0.1144
28471W        W45319   7.986   1.034  14.145  0.1064  0.1000 -0.0185
28472W        W45320  14.232   9.627   5.325  0.0603  0.1611 -0.0407
28473W        W45321   3.288  12.374  15.615 -0.1993  0.1553 -0.0638
28474W        W45322  12.476   9.369   5.245  0.2171  0.2221  0.3780
28475W        W45323  15.303   8.189   5.915  0.2293  0.1775 -0.0587
28476W        W45324   0.927  16.299   3.479  0.1530 -0.0790  0.1155
28477W        W45325   0.337   5.622   0.305  0.1183  0.1042 -0.3125
28478W        W45326   6.969   3.627   3.524  0.0681  0.0237 -0.3523
28479W        W45327   0.838  14.954   5.217 -0.2529  0.1305  0.1270
28480W        W45328   1.517   2.643   4.479  0.1930 -0.0873 -0.1383
28481W        W45329   9.375   1.259   0.560  0.0049 -0.2099 -0.2319
28482W        W45330  16.284   0.666  17.351  0.0627 -0.0087 -0.0492
28483W        W45331   0.686  14.393  17.225  0.0661 -0.2015  0.1534
28484W        W45332   3.518  16.250   0.204  0.1313  0.0102 -0.3099
28485W        W45333  14.747  15.515  12.465 -0.0730 -0.1889 -0.2917
28486W        W45334   8.940   8.070   3.721  0.0743  0.5343  0.1074
28487W        W45335   5.921  10.226  17.290  0.0640  0.0919 -0.2425
28488W        W45336   6.543   0.042   0.290 -0.2548  0.0433  0.0344
28489W        W45337   6.010  11.661  11.697 -0.0008 -0.1204 -0.1773
28490W        W45338  11.280   4.689   1.309  0.0652  0.1136  0.1617
28491W        W45339   7.220   2.577   1.162  0.3910 -0.1270 -0.0547
28492W        W45340   1.341   8.661  15.850 -0.0004  0.2228 -0.4282
28493W        W45341   7.925  12.020  16.573  0.0399  0.0882 -0.0110
28494W        W45342  12.567   2.782   4.114  0.0549 -0.1098 -0.0442
28495W        W45343  12.791   8.218  16.626 -0.1138 -0.0487 -0.1879
28496W        W45344  12.766   7.315  15.098  0.3154  0.1380 -0.0357
28497W        W45345   0.489  15.250   1.319  0.1743 -0.0303 -0.0325
28498W        W45346   1.646   5.721   1.803  0.0925 -0.0758  0.1075
28499W        W45347  10.711   5.143   5.347 -0.0986 -0.0126  0.0960
28500W        W45348  11.372   7.596   0.736  0.2143 -0.1845 -0.0276
28501W        W45349   0.344   7.201  17.202 -0.1753  0.0587  0.0775
28502W        W45350   4.112   2.474   2.826 -0.0744 -0.1958 -0.0876
28503W        W45351  13.362   8.099  14.672 -0.1295  0.1836  0.0462
28504W        W45352   8.451  16.854   1.350 -0.1528 -0.2010  0.0348
28505W        W45353   4.382  14.952   0.494 -0.0924 -0.2482  0.0122
28506W        W45354   1.147   2.629  14.311  0.4992  0.2260 -0.1506
28507W        W45355   6.205   4.788   3.499 -0.3689 -0.2270  0.1246
28508W        W45356   2.916   8.134  15.757 -0.1200  0.2507 -0.1235
28509W        W45357   1.125   2.564  15.810  0.1046 -0.2613 -0.0501
28510W        W45358   8.900  12.127   5.355  0.3318 -0.0509 -0.2579
28511W        W45359  15.819   2.035   5.264 -0.3664 -0.1714  0.1208
28512W        W45360  11.867   0.414   3.477  0.2666  0.4243 -0.1460
28513W        W45361   4.594   9.752   3.841 -0.0492  0.0001  0.0535
28514W        W45362   0.904  16.919   1.305  0.0993  0.0664 -0.0647
28515W        W45363   5.584   9.008  14.177  0.1320 -0.0058  0.3916
28516W        W45364  16.586   7.137  12.830 -0.0248 -0.1796 -0.0483
28517W        W45365   2.230  13.934  12.447  0.0270 -0.1636  0.1933
28518W        W45366   0.864   1.341  14.856  0.2304 -0.0064  0.0730
28519W        W45367  12.946  16.034  12.460  0.0308  0.2030  0.1373
28520W        W45368  15.984   0.323  14.610 -0.2176  0.3584 -0.0767
28521W        W45369   3.968  13.720   0.835  0.1980  0.2114 -0.2606
28522W        W45370  14.521   5.148   0.621 -0.0000 -0.0146  0.1503
28523W        W45371   5.877  11.553  16.751  0.1900 -0.2820 -0.1327
28524W        W45372   4.840  10.894  14.448 -0.3087 -0.3615  0.1784
28525W        W45373   4.018  15.507   0.288 -0.1572 -0.1259 -0.1680
28526W        W45374   7.560   0.554   2.946 -0.0139  0.2638  0.1486
28527W        W45375   1.456  15.784  12.831 -0.1110  0.1194 -0.1113
28528W        W45376   2.329   0.182   3.118  0.0127 -0.2481 -0.3604
28529W        W45377   6.367  15.783  12.537  0.4306  0.0736 -0.4228
28530W        W45378   6.895   3.769  14.855 -0.0314  0.0600 -0.0040
28531W        W45379  12.733  16.825  13.190  0.0198 -0.3184 -0.2103
28532W        W45380  13.320   4.972   0.031  0.1489 -0.0747  0.0617
28533W        W45381   2.906  10.749   5.475 -0.0093  0.0389 -0.0038
28534W        W45382  10.497   4.657  15.842 -0.1396  0.0441  0.0246
28535W        W45383   2.615   5.898  15.090  0.3271  0.1953 -0.0135
28536W        W45384  12.958   5.139   2.628 -0.0169 -0.1765  0.1688
28537W        W45385  14.983  13.218  17.094 -0.0037 -0.2603  0.2472
28538W        W45386   6.466  12.941  16.122  0.0269  0.0640 -0.1072
28539W        W45387   4.857   0.178  14.808  0.3375 -0.2035 -0.1557
28540W        W45388  10.026   2.990  17.757 -0.0856  0.0425 -0.1623
28541W        W45389  12.164   4.815  17.098 -0.0931  0.0185 -0.1893
28542W        W45390   1.184   9.233  13.813  0.2110  0.0831 -0.0643
28543W        W45391   0.725  11.231   6.548  0.0361  0.1298 -0.0391
28544W        W45392  12.726   1.608  17.487 -0.6281 -0.2019  0.0555
28545W        W45393  15.913   7.974  13.726 -0.0814 -0.2401 -0.3394
28546W        W45394   7.082   4.989   4.888  0.0461 -0.0231 -0.0191
28547W        W45395  10.532  13.844   5.410 -0.0552  0.1061 -0.1792
28548W        W45396  16.784   2.400   6.673 -0.1321  0.2109 -0.3009
28549W        W45397   7.547   9.548  15.093 -0.0025  0.0306  0.1410
28550W        W45398   1.832   1.094   4.198  0.2440  0.2692  0.1596
28551W        W45399  13.184  13.312  14.264  0.0190 -0.4539 -0.0189
28552W        W45400   2.169   3.622  17.735 -0.0105  0.0900 -0.0402
28553W        W45401   7.397  12.131  12.571  0.0582 -0.1653 -0.0961
28554W        W45402  14.042   1.448  17.705 -0.2509  0.2685  0.0879
28555W        W45403   6.494   0.592   3.553  0.0230  0.0033 -0.3214
28556W        W45404   3.250   4.387  12.517  0.0507 -0.1566  0.0271
28557W        W45405   6.591   8.977  13.173 -0.2531 -0.0454 -0.1898
28558W        W45406  15.211  13.838   1.166  0.1467  0.0348  0.1373
28559W        W45407   9.196   2.475   0.693  0.2914 -0.1458  0.1840
28560W        W45408  15.247   4.613   0.547 -0.1957 -0.3396  0.1539
28561W        W45409   4.879  16.993  14.398  0.1557 -0.2684  0.2784
28562W        W45410   6.391  14.773   3.879  0.0099  0.3719 -0.1263
28563W        W45411  14.634   9.877  17.062  0.0297  0.1064 -0.0125
28564W        W45412  14.170   2.843   4.713 -0.1558 -0.0351  0.2309
28565W        W45413  13.399   1.824   1.415  0.0833 -0.1797 -0.0104
28566W        W45414  13.684  12.351   4.312 -0.1950  0.2367 -0.1800
28567W        W45415   5.152  13.911   4.262  0.1155 -0.2749  0.2423
28568W        W45416  12.272   2.759   0.053  0.4778  0.6299  0.1612
28569W        W45417   3.010   7.413  14.328 -0.2270 -0.1385  0.1659
28570W        W45418   9.221  11.679  13.014  0.0384 -0.1702 -0.1922
28571W        W45419  15.107   3.630  14.608  0.0114  0.1154  0.1459
28572W        W45420   0.603   9.224  14.219 -0.1946 -0.2551 -0.1291
28573W        W45421  15.790  15.629  16.710 -0.1958  0.0109  0.3323
28574W        W45422   4.042   3.038   5.558  0.0670 -0.2785  0.4087
28575W        W45423  15.186  11.468  14.957 -0.1092 -0.0872  0.1050
28576W        W45424   4.068   2.080   0.598 -0.1220 -0.0755  0.5581
28577W        W45425   0.074   2.995  15.736 -0.0236 -0.3161  0.1617
28578W        W45426  10.297  13.579  15.115  0.2610 -0.0836  0.2528
28579W        W45427   9.645   3.848  16.098  0.0473  0.1313  0.2871
28580W        W45428   1.955   3.437   3.840  0.0838 -0.2914  0.0774
28581W        W45429   7.405  16.904  12.077  0.1681 -0.2306 -0.1582
28582W        W45430   7.842  13.714   1.815  0.1313 -0.0662 -0.2523
28583W        W45431  16.459  13.807   1.559  0.2531 -0.0502  0.1588
28584W        W45432   1.437   4.331   3.977  0.2165  0.2610  0.0271
28585W        W45433   6.214  10.823   2.703 -0.2266 -0.0925  0.1587
28586W        W45434  10.064   3.598  12.171 -0.0580  0.1855 -0.1494
28587W        W45435  15.586  11.743  12.453  0.0803 -0.0668  0.0420
28588W        W45436   2.107  15.044   5.696  0.1392  0.0191 -0.0609
28589W        W45437  15.441   8.354   5.353 -0.2812 -0.2878 -0.3796
28590W        W45438   4.362  16.979   5.370  0.1962  0.0818  0.0463
28591W        W45439  13.632   2.877  15.939 -0.1795 -0.0440  0.1097
28592W        W45440   5.481   0.748  17.696  0.0378 -0.2761  0.1114
28593W        W45441   9.172   1.456  14.932 -0.1666 -0.2389 -0.0668
28594W        W45442   9.073   0.210   2.871 -0.2210  0.2149 -0.0706
28595W        W45443   4.633  10.158  17.593 -0.1359 -0.2305 -0.0301
28596W        W45444  12.878   3.900   2.531 -0.3282  0.0765  0.3008
28597W        W45445  16.464  16.882  12.314 -0.0591  0.1525 -0.0247
28598W        W45446   5.452   5.760   2.967 -0.0030 -0.0085  0.1625
28599W        W45447  12.636  10.117  17.185 -0.1587 -0.1570  0.1205
28600W        W45448  14.711   8.029   4.621  0.0399  0.1819 -0.2035
28601W        W45449   4.106  11.530   2.919  0.2587  0.0904  0.1121
28602W        W45450  11.448   5.142   1.523 -0.2663 -0.0116  0.0121
28603W        W45451  10.143   0.217  17.157  0.1534  0.0202 -0.1155
28604W        W45452   0.950   8.148   4.709 -0.1735  0.3924  0.0602
28605W        W45453  15.198   9.983   5.375 -0.1939 -0.1368  0.4651
28606W        W45454   8.395  12.691   1.264 -0.2251  0.0198  0.1132
28607W        W45455  14.427  12.411   0.122 -0.1176 -0.2915  0.0115
28608W        W45456   3.264  10.905  16.809  0.5959  0.0928 -0.0959
28609W        W45457   5.586  12.146   0.747  0.0537  0.0219  0.0715
28610W        W45458   3.061  11.751  14.398 -0.1144  0.1655 -0.3715
28611W        W45459   2.296   6.320   3.944 -0.0179  0.2367 -0.0603
28612W        W45460  11.385  10.033   2.054  0.0267  0.1434  0.2134
28613W        W45461   9.128  10.945  14.955 -0.3053 -0.0104 -0.0775
28614W        W45462   1.318   5.798   2.173 -0.1226 -0.1163  0.0759
28615W        W45463   6.235   8.171   5.774 -0.0259 -0.0282  0.0608
28616W        W45464  10.843   3.810   2.818 -0.0338 -0.0433 -0.2194
28617W        W45465   3.220  10.617   3.190 -0.0737 -0.0103 -0.2598
28618W        W45466   2.507  11.589   4.510  0.1369 -0.3627  0.1763
28619W        W45467   2.002   5.458  16.149  0.1194  0.1610  0.2787
28620W        W45468  11.085  15.556  16.428 -0.4087 -0.0673  0.0726
28621W        W45469  16.346  14.211  12.703 -0.2140  0.0986 -0.1343
28622W        W45470  11.402   2.208   4.666  0.4235  0.2976  0.0970
28623W        W45471   6.334  12.874   1.455 -0.3104  0.1427 -0.0647
28624W        W45472  16.899  10.747   3.431  0.0342 -0.2390 -0.1611
28625W        W45473   6.155  14.239   1.256  0.0845  0.0983 -0.1465
28626W        W45474  10.162  15.111   1.263  0.0817  0.1062 -0.2778
28627W        W45475   6.794   2.814   1.388  0.0591  0.1274 -0.1192
28628W        W45476  16.756   0.304  16.506 -0.3398 -0.3914  0.0071
28629W        W45477  15.166   9.763  16.888  0.1079 -0.1097  0.0757
28630W        W45478   4.476   7.660   5.256 -0.2354  0.1144 -0.4298
28631W        W45479  11.233  10.620   1.122 -0.2441  0.1366 -0.0274
28632W        W45480   6.473   2.482  15.782 -0.0757 -0.1162  0.0097
28633W        W45481  15.147   2.084   3.847 -0.0674 -0.0555  0.2105
28634W        W45482   2.712  16.033  15.075 -0.0227 -0.2571 -0.0849
28635W        W45483  12.030   6.809   3.493 -0.1680 -0.0461 -0.1735
28636W        W45484   4.949   2.349   5.086  0.1306  0.1271 -0.2548
28637W        W45485   8.582   2.627  12.577  0.1104 -0.0248  0.2839
28638W        W45486  15.108  15.981   4.943  0.0481 -0.3905 -0.0418
28639W        W45487  16.944   1.954  17.002  0.0500 -0.1488  0.3238
28640W        W45488  13.085   3.013  16.883  0.0226  0.2411  0.0473
28641W        W45489  11.040  13.273  14.053  0.3181 -0.3279  0.0301
28642W        W45490  15.756  13.414   5.513 -0.2275 -0.1367  0.0426
28643W        W45491  15.325  16.230   2.157 -0.1171 -0.1187  0.1143
28644W        W45492  12.734  15.233  14.711  0.0948  0.1185  0.0485
28645W        W45493   9.605  12.925   2.843  0.2272 -0.2394  0.4040
28646W        W45494   4.394  11.990   2.148  0.0202 -0.0465 -0.0804
28647W        W45495   2.172   2.624   1.632  0.2743 -0.0332  0.0123
28648W        W45496   2.433   5.238   1.163  0.0504  0.1003 -0.0247
28649W        W45497   0.825   1.713  17.505  0.0226  0.1544 -0.0274
28650W        W45498   3.768  16.292  11.975 -0.1255  0.2230 -0.0714
28651W        W45499   6.012   9.324  16.959  0.1447  0.2161  0.0117
28652W        W45500  10.433  10.581   3.427  0.0332  0.1022 -0.0323
28653W        W45501  12.256   5.730   4.350 -0.0454  0.2795  0.0738
28654W        W45502   1.578  12.834  15.542  0.0335  0.0660 -0.1460
28655W        W45503   7.628   4.910   0.947  0.1401  0.1526 -0.0572
28656W        W45504   1.454   8.155   1.083 -0.1406 -0.2980 -0.3410
28657W        W45505   2.247  12.060   5.413 -0.2694 -0.1485 -0.2096
28658W        W45506   4.830  11.934  16.101  0.1837  0.3090 -0.2523
28659W        W45507  16.791  11.346   4.561 -0.2131 -0.0812  0.1673
28660W        W45508   0.898   8.438   3.772  0.0848 -0.1590  0.2814
28661W        W45509  16.584   8.267   2.401 -0.1622  0.4526  0.2130
28662W        W45510  15.253   3.584   4.302  0.1097 -0.3568  0.1457
28663W        W45511   9.034  14.427   1.404 -0.1062  0.2572  0.1338
28664W        W45512  15.679   5.201   6.001 -0.0220  0.2483 -0.0069
28665W        W45513  13.739  14.842  13.086 -0.3024  0.0484 -0.2242
28666W        W45514   3.828   2.323  13.043 -0.1523  0.0648  0.0124
28667W        W45515   3.158   6.024  15.313  0.1398  0.1920  0.0640
28668W        W45516   5.803   4.799  12.474  0.2900  0.0571 -0.1853
28669W        W45517   9.606   5.306   3.586 -0.0463  0.0352 -0.1417
28670W        W45518   5.570   2.131  16.296 -0.2014 -0.1515 -0.0011
28671W        W45519   3.333   2.776   5.622  0.3478  0.2362  0.1606
28672W        W45520  14.899  10.938  12.800 -0.1227  0.2379 -0.0940
28673W        W45521   9.008   2.805  13.392  0.0967 -0.1855 -0.1167
28674W        W45522  13.344  14.111   3.761  0.1509  0.0936 -0.0858
28675W        W45523  14.116   4.489  12.755  0.2732 -0.3598 -0.0745
28676W        W45524  16.275   8.277  13.526 -0.0529 -0.2090 -0.4644
28677W        W45525   6.784  10.788   4.334 -0.0015  0.4330  0.0808
28678W        W45526   2.753   6.036  14.611  0.0642  0.4514  0.1511
28679W        W45527  14.617  11.326  12.192  0.1346 -0.0128  0.0142
28680W        W45528  12.769  13.743   1.534 -0.2967  0.2200 -0.0066
28681W        W45529   7.810  11.378  12.809 -0.2467  0.2384  0.0140
28682W        W45530   2.012  15.465   3.902 -0.0987  0.0185  0.3030
28683W        W45531  12.322  12.086   3.439  0.0499 -0.3930  0.3140
28684W        W45532  14.643  13.290   1.519 -0.1201 -0.0350 -0.3650
28685W        W45533   1.970   4.644   2.678  0.0321  0.0108 -0.0414
28686W        W45534   9.966   5.018  17.086 -0.1267 -0.0668 -0.2252
28687W        W45535  16.250  11.715   0.290  0.1405 -0.1503 -0.1187
28688W        W45536  11.042  13.891   3.351 -0.2663  0.0329 -0.1376
28689W        W45537  14.996   7.994  13.414  0.2763 -0.1355 -0.2003
28690W        W45538   7.477   6.411   1.424 -0.0216  0.0105  0.0151
28691W        W45539  12.812  15.155  12.685 -0.1883 -0.0905 -0.2707
28692W        W45540   0.870   7.715  17.829 -0.1293  0.0279  0.1585
28693W        W45541  12.776  13.483   1.123 -0.0585  0.2892  0.1396
28694W        W45542   6.043  12.048  12.566 -0.0533  0.3665 -0.0457
28695W        W45543   4.898  11.017  13.490  0.2561  0.5162  0.1451
28696W        W45544   8.394   8.717  13.874 -0.4736  0.0760  0.0360
28697W        W45545   8.313  14.627   3.652 -0.0626  0.2812 -0.0861
28698W        W45546  12.207  13.734  14.118 -0.0140  0.0781 -0.2515
28699W        W45547   4.151  13.283   3.316 -0.3604 -0.2521  0.3614
28700W        W45548   6.328  15.977  14.354 -0.0420  0.1242  0.0123
28701W        W45549   4.442  14.933  15.281 -0.0911 -0.1844  0.0431
28702W        W45550   9.590   0.901  15.467 -0.1213 -0.3553  0.1938
28703W        W45551  16.626  12.571   2.236  0.0902  0.0967 -0.0352
28704W        W45552   5.149   0.591  16.526 -0.0253 -0.1182 -0.2598
28705W        W45553  15.552  15.101  14.832 -0.2600 -0.1225 -0.0642
28706W        W45554   8.102  12.483   2.070  0.1305  0.0343  0.0417
28707W        W45555   2.772   7.096   5.285  0.0380 -0.0010 -0.0193
28708W        W45556  15.975   9.167   5.204 -0.1228  0.0994  0.4507
28709W        W45557  11.653  10.367  12.756 -0.1570 -0.1567 -0.0279
28710W        W45558  10.925  11.667  12.683  0.3723  0.2073 -0.2515
28711W        W45559  10.727   1.247   2.933  0.4086 -0.0717 -0.0426
28712W        W45560   3.987   7.682   1.113  0.1877  0.0866 -0.0808
28713W        W45561   8.382   3.046  14.513  0.2422 -0.2585  0.0257
28714W        W45562  15.839   8.213  12.767 -0.1627 -0.2024  0.1175
28715W        W45563  11.474  12.508  17.631  0.2649  0.0942  0.2643
28716W        W45564   8.458   6.962   4.575 -0.2420 -0.0036 -0.2233
28717W        W45565   1.638   9.017   0.638  0.0322 -0.2673  0.1315
28718W        W45566  14.246   6.934  13.247  0.0476 -0.0272 -0.1387
28719W        W45567   6.955   3.691  17.762 -0.3326  0.1249 -0.6144
28720W        W45568   5.354   8.848   3.036  0.4121 -0.0264 -0.1186
28721W        W45569   3.984  13.931  13.799 -0.1802  0.2362 -0.2286
28722W        W45570  15.153  12.193   6.037  0.0833  0.0355 -0.1624
28723W        W45571   8.775   1.463   1.308 -0.3072  0.0332  0.1240
28724W        W45572  16.838   6.387   5.184 -0.1578 -0.1121  0.3042
28725W        W45573   5.899   2.477   1.767  0.0083 -0.1174 -0.0819
28726W        W45574  10.043   5.486  15.511 -0.2341 -0.3860  0.1297
28727W        W45575  16.771   2.298  14.081  0.4005  0.2793 -0.1842
28728W        W45576  12.891   9.048  13.797 -0.1249  0.0201 -0.2422
28729W        W45577   4.078   1.770   5.429  0.1425 -0.0228  0.0276
28730W        W45578   4.448   9.353   2.084 -0.0605 -0.3334  0.0987
28731W        W45579  11.673  13.222   2.196  0.1544 -0.1053  0.1425
28732W        W45580   2.010  13.272  17.184 -0.0419  0.1026 -0.1172
28733W        W45581   3.536  15.770   5.426 -0.1348 -0.0672  0.1515
28734W        W45582   9.547  10.626  17.653 -0.0919  0.3006  0.0618
28735W        W45583   5.214  12.152   4.400 -0.0958  0.2031  0.2127
28736W        W45584  13.252   4.797   4.727 -0.0122  0.2477 -0.2856
28737W        W45585  13.235   3.350  16.553 -0.2207 -0.1125 -0.0922
28738W        W45586   6.249   7.604   0.678  0.6308 -0.3258  0.1082
28739W        W45587   5.706  15.922  14.554 -0.0279  0.1654 -0.2027
28740W        W45588   0.363   0.572  17.502 -0.0306  0.1115  0.1364
28741W        W45589  10.631   6.649   1.446 -0.0105 -0.2418  0.1631
28742W        W45590   4.967  16.746  13.060 -0.0361  0.0257  0.0535
28743W        W45591  15.333  15.311  12.465  0.2277  0.1156 -0.1560
28744W        W45592   2.312   4.550  12.655  0.0251 -0.2343  0.0892
28745W        W45593   5.313  14.655   3.434 -0.1800  0.2029  0.1823
28746W        W45594   8.957   5.346  12.835 -0.1705 -0.0036  0.1795
28747W        W45595  15.793  12.752  13.181 -0.1803  0.1275  0.0707
28748W        W45596   1.542  11.134   2.141 -0.4000  0.1316  0.1671
28749W        W45597   9.475   4.516   0.743  0.2306  0.3842  0.0176
28750W        W45598  15.803   4.797   1.471 -0.3561 -0.0274  0.1251
28751W        W45599  14.474  11.265  16.237 -0.1353  0.3913 -0.2201
28752W        W45600   9.989  12.459  15.345 -0.0925 -0.0101  0.0271
28753W        W45601   0.755   5.062  16.553  0.1157 -0.3469 -0.2078
28754W        W45602   6.283  16.106   5.882  0.3869  0.0926 -0.1028
28755W        W45603  13.728   5.149   2.324 -0.1025  0.0217 -0.0174
28756W        W45604  15.267  14.167  17.228 -0.1310 -0.0369 -0.4139
28757W        W45605   9.279  11.187   0.098 -0.0225  0.0219 -0.1111
28758W        W45606   3.238   0.281  12.451  0.1362 -0.0778  0.0471
28759W        W45607   3.385  11.145  13.943 -0.1125  0.1522  0.0124
28760W        W45608   8.973  15.089   0.923  0.1209  0.2288  0.1155
28761W        W45609  14.342   0.669  16.421 -0.0815 -0.0998 -0.2258
28762W        W45610   3.850  12.870  17.458  0.4168 -0.0704 -0.3228
28763W        W45611  13.182  16.325  15.159  0.3216  0.0768  0.0777
28764W        W45612  11.417   9.198   2.619  0.2035  0.0851  0.0332
28765W        W45613   5.990  13.480   0.622  0.0092 -0.2490  0.0750
28766W        W45614  12.789  12.441   1.441 -0.1105  0.1162 -0.2200
28767W        W45615   0.502   9.419  16.751 -0.2190  0.1292  0.0420
28768W        W45616   6.048   8.141   3.566  0.2528 -0.0386  0.1810
28769W        W45617   0.072   3.749   1.691  0.3528 -0.1080 -0.0669
28770W        W45618   0.772  12.151  15.356 -0.0377 -0.0518 -0.0057
28771W        W45619   5.968   3.981   3.263 -0.1083  0.1024 -0.2537
28772W        W45620   3.222  13.589   4.782  0.0346  0.1793 -0.1183
28773W        W45621   9.007   8.811  13.724 -0.0604 -0.3113  0.1320
28774W        W45622  10.671   5.508  14.258  0.1153 -0.0944  0.1204
28775W        W45623  13.683  11.900   1.334 -0.3246 -0.0474 -0.0657
28776W        W45624   6.586  13.679   2.328 -0.0697 -0.1604 -0.3252
28777W        W45625   6.356   7.244   4.503  0.0134 -0.0251  0.0558
28778W        W45626  12.707  15.748   1.737  0.1961 -0.2280 -0.0236
28779W        W45627   3.066   8.767  15.311  0.1343 -0.1372 -0.3245
28780W        W45628  12.732   1.777   1.870  0.1622  0.0592 -0.0940
28781W        W45629   6.301  16.757   3.284 -0.1398  0.0761 -0.3531
28782W        W45630  15.801   9.998  13.410 -0.0924  0.1853 -0.1781
28783W        W45631   8.943  10.650  14.194 -0.0723 -0.0328  0.2224
28784W        W45632   9.779   7.245  14.148  0.1446  0.1514  0.1495
28785W        W45633   4.770  15.472   4.271 -0.3538 -0.0215 -0.2420
28786W        W45634  14.039  10.500  17.784 -0.3101  0.1412  0.0277
28787W        W45635   9.179   7.551  16.210 -0.1943 -0.0575  0.3371
28788W        W45636  12.195   8.688   0.576 -0.0655  0.1351 -0.0247
28789W        W45637   1.302  14.022   0.601  0.0704 -0.1027  0.0106
28790W        W45638  13.471  13.949   4.200  0.2110 -0.2038 -0.0351
28791W        W45639   5.459   7.350   4.393 -0.0506 -0.2399  0.0503
28792W        W45640  14.963  12.092   2.900 -0.0762  0.1379 -0.0258
28793W        W45641  14.818  16.906  15.295  0.2051 -0.1305 -0.0672
28794W        W45642   4.709   1.523  13.223  0.0605 -0.3172 -0.4361
28795W        W45643   0.629   0.540  13.151  0.1288 -0.0205  0.1603
28796W        W45644   4.896   3.287  15.405  0.2888 -0.2439  0.3006
28797W        W45645  15.313  14.800   2.745 -0.0753 -0.0296 -0.1037
28798W        W45646   7.864   3.827  16.764  0.1915  0.0430  0.0262
28799W        W45647  14.003   8.821   1.285  0.1836 -0.2021 -0.3049
28800W        W45648  16.344  15.345   3.080 -0.0352  0.0941 -0.0480
28801W        W45649  16.764   9.699   3.630  0.1955  0.1459 -0.2588
28802W        W45650  13.573  16.491  13.936  0.1764 -0.0965 -0.1379
28803W        W45651  14.896  10.609  13.780 -0.1492 -0.1338  0.1353
28804W        W45652  14.509  12.951   1.827 -0.2257  0.1272  0.0371
28805W        W45653  13.585   8.777  17.382 -0.0245 -0.3123 -0.1280
28806W        W45654   8.174   7.841   1.924  0.1379  0.0774 -0.0333
28807W        W45655  15.989   4.004   0.047  0.0188 -0.0065  0.0772
28808W        W45656  15.084  11.560  14.339  0.1504  0.0471 -0.1605
28809W        W45657  13.316   8.893   2.847 -0.4945 -0.2414  0.3230
28810W        W45658  16.427   9.795  14.549  0.4065  0.1626 -0.1715
28811W        W45659   1.333   4.071   1.378  0.3203  0.0225  0.3875
28812W        W45660  12.354   2.869   5.632 -0.0419 -0.1513  0.2630
28813W        W45661   3.538   0.119   1.644 -0.0052 -0.3094 -0.1596
28814W        W45662  12.396   8.216   4.546  0.2675 -0.2365 -0.1086
28815W        W45663  16.591   1.665   5.538 -0.1756 -0.4594 -0.0309
28816W        W45664   1.188  16.126   2.578 -0.0119  0.0782 -0.0960
28817W        W45665  10.046  12.615  15.816 -0.3574 -0.3294  0.2671
28818W        W45666   4.846  12.064   4.832 -0.1344  0.0349  0.0864
28819W        W45667  16.227  15.055  17.006  0.3176 -0.1374 -0.2316
28820W        W45668  13.590  11.691  17.444  0.1533 -0.1146  0.0861
28821W        W45669   4.409   9.652   0.771  0.2142  0.0139 -0.1815
28822W        W45670  15.680   7.349   1.729  0.1244 -0.2467  0.0916
28823W        W45671  12.793   2.277  12.634 -0.0480 -0.1712  0.0200
28824W        W45672   6.730  13.139   1.804  0.0672 -0.0661  0.0294
28825W        W45673   6.514  13.529   4.258 -0.0223  0.0256  0.0962
28826W        W45674  13.332   6.295  13.072  0.1674  0.1981 -0.3979
28827W        W45675   2.186   0.009   4.302 -0.0552  0.0349 -0.0158
28828W        W45676  10.298   8.441  16.454 -0.5546  0.0115  0.2906
28829W        W45677   3.040   6.082  16.608 -0.1746  0.0975  0.0263
28830W        W45678  11.839   8.271  15.659 -0.0521  0.2252  0.2155
28831W        W45679   3.574  10.840   3.799  0.2696  0.0146 -0.3310
28832W        W45680  15.799   5.259   3.903 -0.0203 -0.1021  0.0223
28833W        W45681   3.822   4.699  14.590  0.2476 -0.2572 -0.3071
28834W        W45682   7.305   8.119  13.656  0.0526 -0.0336 -0.1360
28835W        W45683   3.931   7.944  16.354  0.0261 -0.0895 -0.1632
28836W        W45684   5.600   9.633  17.081  0.0391 -0.1709 -0.2301
28837W        W45685   1.924   8.341   3.115  0.0630  0.0580 -0.0165
28838W        W45686   4.222   8.893  11.273 -0.1214 -0.0615  0.1351
28839W        W45687   5.365   1.995  12.250  0.0060 -0.0215 -0.1040
28840W        W45688  12.239   0.807   1.146  0.0529  0.1998 -0.0616
28841W        W45689   1.412   2.179  14.723  0.0010  0.1675 -0.1703
28842W        W45690  14.174  14.161  16.240  0.2476 -0.1131 -0.1046
28843W        W45691   6.523  10.812  16.063  0.0508 -0.3113  0.1784
28844W        W45692   2.015   2.324  17.302 -0.3025 -0.0716  0.3195
28845W        W45693   7.305   7.146   5.688  0.1202  0.1017 -0.1016
28846W        W45694  15.123  10.927   1.906 -0.3183 -0.0692  0.0545
28847W        W45695  16.056   0.092  13.202 -0.3026  0.0538 -0.0573
28848W        W45696   6.061  15.319   4.755  0.0242  0.0632 -0.0070
28849W        W45697  13.548   2.437   3.050 -0.0148 -0.0383 -0.0733
28850W        W45698   1.499  14.044  17.610  0.1307 -0.1342 -0.0072
28851W        W45699   7.888   8.664   4.091  0.0703  0.0371  0.0402
28852W        W45700   7.563   5.029   4.753  0.3604 -0.3049  0.0126
28853W        W45701   5.162   9.548   5.283 -0.2648 -0.2222  0.0262
28854W        W45702   5.698  15.369   0.498  0.2998 -0.2324  0.2050
28855W        W45703  14.194  15.282   0.457  0.0830  0.0687 -0.2871
28856W        W45704  16.553  11.826  14.651 -0.1131  0.0920  0.0794
28857W        W45705   1.816   7.721   4.836  0.2054 -0.0769 -0.0149
28858W        W45706   8.154  17.015   2.380  0.0977 -0.1012 -0.0745
28859W        W45707   9.714   9.555  14.481  0.1165  0.0736  0.1758
28860W        W45708   3.218  12.108   3.834  0.2176 -0.0835  0.3657
28861W        W45709  13.462  14.836  12.025 -0.2643  0.3302  0.1727
28862W        W45710   8.250   3.623  17.540  0.1886  0.0018  0.0688
28863W        W45711   6.571   6.123  16.142  0.0155  0.2400  0.1647
28864W        W45712   5.485  15.858   5.149  0.0604  0.4792 -0.2965
28865W        W45713  15.777   5.820   1.431  0.1978  0.0062 -0.0702
28866W        W45714  10.804   1.617   1.705  0.0993 -0.1206  0.1642
28867W        W45715   4.237  16.259  14.238  0.0623  0.1126 -0.0010
28868W        W45716  13.401  15.241   5.152  0.1412  0.0084 -0.0319
28869W        W45717   5.773   5.690   2.244 -0.0868  0.0162  0.1269
28870W        W45718   5.760   7.834  16.577  0.0090  0.0170 -0.1009
28871W        W45719   7.161   8.866  16.260  0.2492 -0.0073 -0.2535
28872W        W45720   6.234   7.122  13.442 -0.2262  0.2187 -0.0894
28873W        W45721   3.761   3.131   1.507  0.0362 -0.2812  0.0669
28874W        W45722  13.674   9.256  13.568  0.2610  0.2285  0.0694
28875W        W45723   5.199   5.028   4.789  0.0057  0.0281 -0.3732
28876W        W45724   0.522   7.680  15.778  0.2826 -0.1258  0.1222
28877W        W45725   4.592   2.064  14.481 -0.2439 -0.2408  0.0039
28878W        W45726   2.982  12.935   5.672 -0.0796 -0.0973 -0.1889
28879W        W45727   9.206   7.488   4.440 -0.1782 -0.1733 -0.3196
28880W        W45728  11.321   0.591  13.042 -0.1361  0.2300  0.2036
28881W        W45729  12.606   0.720   0.098  0.4291  0.0453  0.0283
28882W        W45730   8.266   0.256  16.139 -0.1729  0.0567 -0.0973
28883W        W45731   2.405  12.502  16.422 -0.1072  0.2324 -0.0402
28884W        W45732  10.628   2.761   0.526 -0.0289 -0.2000 -0.3011
28885W        W45733   5.481   6.924   3.514 -0.2170  0.0496 -0.4661
28886W        W45734   9.854  13.087  14.619  0.0673  0.0553 -0.3417
28887W        W45735  14.387   0.952  16.000  0.1015 -0.3609 -0.2311
28888W        W45736   1.399  11.292  13.782  0.2415 -0.0042  0.0167
28889W        W45737  17.038   1.655   3.234  0.2657 -0.0730  0.0963
28890W        W45738  16.653   7.408  14.121 -0.2008  0.1034  0.0258
28891W        W45739   5.550   4.559  12.868  0.1481 -0.3125 -0.0526
28892W        W45740   2.897   2.925  14.689 -0.0482  0.1551 -0.2217
28893W        W45741   8.880   3.629   3.042 -0.1466 -0.1335  0.2063
28894W        W45742  14.367  15.256   1.558 -0.1124  0.0921 -0.0031
28895W        W45743   4.332   3.943  14.904 -0.3043 -0.0990  0.0732
28896W        W45744   9.309  13.695  13.881 -0.1724 -0.3543 -0.3334
28897W        W45745  16.767  14.207   4.095 -0.2748 -0.4602  0.1243
28898W        W45746   4.985  13.239  13.423  0.3944  0.1922 -0.0608
28899W        W45747  10.567  15.077  15.515  0.3228  0.0801  0.0803
28900W        W45748  15.925   5.845   0.462 -0.0279  0.2138  0.1183
28901W        W45749  10.013   2.883  17.277  0.4254  0.1379 -0.0300
28902W        W45750   8.951   6.984  14.567 -0.3105  0.0175 -0.2382
28903W        W45751   6.677  16.937  17.632  0.0374 -0.1631  0.0658
28904W        W45752  13.946  12.060   0.781  0.1049  0.0504 -0.0200
28905W        W45753   2.266   3.634  15.514  0.0976 -0.0244 -0.1556
28906W        W45754  15.574   2.567   1.779  0.2744 -0.0200  0.0569
28907W        W45755  15.204   5.848  12.821  0.2156 -0.0997 -0.1809
28908W        W45756  16.421   3.874   1.291 -0.3241 -0.1158 -0.1956
28909W        W45757  10.457  11.797  12.804  0.3296  0.0494 -0.0319
28910W        W45758   3.517   9.881   4.467 -0.1475 -0.1659  0.1956
28911W        W45759   1.382  15.876  12.139  0.0632  0.1214 -0.1779
28912W        W45760   5.914   1.360   1.060 -0.0324 -0.2457  0.0502
28913W        W45761  12.208  10.788   4.792 -0.1620  0.0162  0.3094
28914W        W45762  14.516   0.756   3.705 -0.0513  0.0244  0.0487
28915W        W45763   5.471   9.371   2.943  0.1037 -0.0722  0.1685
28916W        W45764   6.144  14.437   4.303  0.1353 -0.3588  0.4060
28917W        W45765  12.485   6.283  14.686  0.0119 -0.2085  0.2360
28918W        W45766   6.406   0.129   3.416  0.0429  0.1709  0.1417
28919W        W45767  13.119   2.503  12.276 -0.1808 -0.1048  0.4782
28920W        W45768   3.904  15.255  16.046  0.0327  0.2697 -0.2969
28921W        W45769  15.748   8.496   2.563 -0.0177  0.1929  0.1463
28922W        W45770  13.003   7.916  12.471 -0.0427  0.1407  0.2812
28923W        W45771   1.318   4.745   3.625  0.0087  0.0818  0.1992
28924W        W45772   4.995   0.331   0.432  0.1533  0.1736 -0.1223
28925W        W45773  14.031   5.394   0.786 -0.3901 -0.1405 -0.0397
28926W        W45774   1.419   7.189  16.562 -0.0837  0.0155 -0.2171
28927W        W45775   1.098   2.969   2.754  0.0792  0.2609  0.1455
28928W        W45776   4.676   6.415   2.989 -0.0859  0.0115 -0.1071
28929W        W45777   4.645   3.072  16.272 -0.0062  0.1038 -0.3348
28930W        W45778  12.830  15.236  17.837  0.0737 -0.3318 -0.0651
28931W        W45779   2.791  10.420  16.982 -0.3610  0.1567 -0.1683
28932W        W45780  13.578   5.904  14.210 -0.1203  0.2604 -0.3076
28933W        W45781  16.325   9.412  17.817 -0.0552  0.3135  0.4132
28934W        W45782   6.929   5.483   5.732 -0.0651  0.0651 -0.0466
28935W        W45783  11.087  17.060  13.923  0.0633  0.0609  0.1537
28936W        W45784   4.239  16.192  12.990  0.0473 -0.0514 -0.1159
28937W        W45785   6.703   6.892  16.495 -0.3345  0.2381  0.0288
28938W        W45786  13.969   6.658   6.325 -0.0041  0.1241  0.0118
28939W        W45787   9.860  10.923  13.864 -0.1609 -0.1370 -0.0045
28940W        W45788   1.506  10.188   3.254  0.2508  0.0027  0.0516
28941W        W45789   6.354  15.284  12.727  0.2396 -0.0926 -0.1836
28942W        W45790  12.785   0.864  12.082 -0.4020  0.4819  0.1202
28943W        W45791   0.409  16.132  15.832 -0.0887 -0.1036 -0.0930
28944W        W45792  11.439   9.782   0.251 -0.0616  0.2036 -0.0423
28945W        W45793   6.671  15.627  17.076  0.2692  0.0616  0.2783
28946W        W45794  13.766   2.185   4.391  0.1866 -0.2462 -0.2291
28947W        W45795   8.585  13.524  14.100 -0.1210 -0.4869 -0.0771
28948W        W45796   4.749   7.776  16.694  0.3132 -0.0134  0.0824
28949W        W45797  16.253   4.241   2.094 -0.1948 -0.3132  0.1790
28950W        W45798   6.169  12.447   0.953  0.1796  0.0188  0.2900
28951W        W45799   0.583  10.654   3.097 -0.0642 -0.0141  0.1109
28952W        W45800  13.579  14.110  13.696 -0.0111 -0.0206  0.2437
28953W        W45801   9.294  13.249   3.281 -0.0914 -0.0555 -0.2802
28954W        W45802  16.681  15.518  12.806 -0.1267  0.2133 -0.1166
28955W        W45803  13.783  10.894  16.368  0.1235  0.2129  0.1060
28956W        W45804   9.811   8.728  12.949  0.0342 -0.2916 -0.0510
28957W        W45805  15.809  12.022   5.532 -0.2112  0.1131  0.0772
28958W        W45806  10.129  16.134   4.349 -0.0401  0.0388  0.0931
28959W        W45807   1.097   5.163  14.803 -0.2481  0.2280  0.2854
28960W        W45808   1.216   2.176   3.929 -0.0717  0.1918 -0.1050
28961W        W45809   8.495   4.430   1.130 -0.0063 -0.2416  0.1576
28962W        W45810   8.522  15.761  12.872  0.3117 -0.1504  0.4006
28963W        W45811  10.979  10.193  17.247 -0.1872 -0.1187  0.1053
28964W        W45812  16.542   8.108   0.129 -0.0277 -0.1785  0.1125
28965W        W45813  14.538  11.744   2.802  0.1238 -0.3518  0.2889
28966W        W45814   4.875   9.771  12.602  0.1114  0.0069  0.0492
28967W        W45815  11.507  14.940  17.482  0.1401 -0.0583  0.4575
28968W        W45816   5.950  13.432  14.453  0.3456 -0.1838  0.0965
28969W        W45817   4.359   2.999  13.762  0.0235  0.0253  0.0657
28970W        W45818  12.786   9.401   0.665  0.2385  0.1167 -0.1282
28971W        W45819   5.100   2.771   0.171 -0.0695 -0.1809  0.1271
28972W        W45820   2.385   2.919  14.471 -0.0842  0.3783 -0.0223
28973W        W45821   4.897  13.556   4.560 -0.3802  0.0691  0.0306
28974W        W45822  10.899  12.298  15.608 -0.2298 -0.0802 -0.1511
28975W        W45823   6.208   1.204   5.697 -0.1400  0.0276 -0.1171
28976W        W45824  11.943   5.632   2.644 -0.1105  0.2284 -0.3606
28977W        W45825   1.224   7.506  15.344 -0.0105 -0.0141  0.3224
28978W        W45826   4.375   0.350   4.556 -0.0017 -0.0742 -0.0844
28979W        W45827   3.128  14.490  17.392 -0.4450 -0.1551 -0.1237
28980W        W45828   2.233   9.996   1.251 -0.2468  0.0724 -0.1246
28981W        W45829   6.219   1.652   4.881 -0.0999  0.0158 -0.1517
28982W        W45830   8.831  11.904  13.356  0.2802 -0.0978 -0.2302
28983W        W45831  13.445  11.803   1.853  0.4693  0.0338 -0.2135
28984W        W45832   2.050   6.104   1.664  0.1004  0.3381 -0.0470
28985W        W45833   6.083  11.779   3.983  0.0986 -0.0534 -0.2112
28986W        W45834   5.236  11.557   1.138 -0.0159  0.0869  0.0759
28987W        W45835  11.983   9.062   4.621 -0.2592 -0.1940 -0.0535
28988W        W45836   1.359   2.509   2.896  0.2997 -0.0038  0.0534
28989W        W45837  15.169   2.009   2.001 -0.0595 -0.1083  0.0087
28990W        W45838   4.038   3.605   4.081  0.2090  0.3153 -0.1280
28991W        W45839  13.636  13.007  17.608 -0.0076  0.3782 -0.0096
28992W        W45840  10.885  10.732   5.370 -0.1824  0.1737  0.1871
28993W        W45841   8.989   6.898   1.803  0.1581 -0.0799  0.2712
28994W        W45842  11.951   9.498  15.267  0.3187  0.1301  0.1190
28995W        W45843   1.755   5.906  16.341  0.1134  0.0043  0.0653
28996W        W45844  14.114   1.141   3.561 -0.0269 -0.0606  0.0444
28997W        W45845   7.501   0.541  13.618  0.0511  0.1836  0.3502
28998W        W45846   8.929   5.113  14.387  0.2491  0.0605  0.1238
28999W        W45847   2.624   6.442   1.513 -0.3524  0.0089 -0.0683
29000W        W45848  11.960   6.923   5.832  0.3735  0.1714  0.0207
29001W        W45849   7.516   8.640   5.604  0.2082  0.0515  0.0489
29002W        W45850  14.255  13.005  12.785  0.1070 -0.1611 -0.1182
29003W        W45851  12.293  17.058  11.398  0.0181  0.1726  0.2585
29004W        W45852   9.394  13.203   0.022 -0.3237 -0.1166 -0.3761
29005W        W45853   3.927  15.729   4.017  0.0003 -0.1326  0.2320
29006W        W45854  16.788   9.907  16.671 -0.1354  0.0955 -0.3009
29007W        W45855   5.773  11.664  14.802 -0.2681  0.0540  0.0957
29008W        W45856  14.881  15.486   1.013 -0.0258 -0.1960  0.0405
29009W        W45857  14.433   1.019   4.225  0.1274 -0.0951 -0.1123
29010W        W45858  10.334   2.202   4.599  0.3789  0.1362  0.1587
29011W        W45859   0.263   7.039  14.607 -0.0491  0.2185 -0.1414
29012W        W45860   9.350   5.096   4.678  0.1721  0.1498 -0.0540
29013W        W45861   6.672  13.864  13.668  0.0705  0.0970 -0.1228
29014W        W45862   7.069   8.127   0.954 -0.2537 -0.1885  0.2008
29015W        W45863  12.595  16.356  13.334 -0.0273  0.0476  0.0821
29016W        W45864   4.895  12.840  17.181 -0.0000  0.2249  0.4772
29017W        W45865  11.312   3.368  12.978 -0.0904 -0.0756  0.2449
29018W        W45866  11.880   9.964   5.741  0.2137 -0.0608  0.2462
29019W        W45867  12.669   5.908   5.125  0.1055  0.2456 -0.0898
29020W        W45868   5.191   6.501   2.399 -0.0262 -0.0775 -0.0676
29021W        W45869   3.741  14.672  16.726 -0.0307  0.1071 -0.1894
29022W        W45870  14.554  13.342   2.578 -0.3283  0.1567  0.2044
29023W        W45871  15.881   4.143  17.169  0.1860  0.1869  0.0854
29024W        W45872   5.060   1.480  15.846 -0.0933 -0.1380 -0.0390
29025W        W45873   8.850  12.700  16.299 -0.1774  0.2304 -0.1200
29026W        W45874  11.541  16.314   4.231 -0.1007  0.2451  0.0839
29027W        W45875   9.172   1.143  14.495  0.0773  0.0195 -0.0369
29028W        W45876   8.760   4.007   2.675  0.1851 -0.1019  0.1633
29029W        W45877   4.176   9.691  14.642 -0.1022  0.3379  0.0565
29030W        W45878  16.786   3.370   3.667  0.0981  0.0827 -0.2258
29031W        W45879  12.810   7.447   5.811 -0.2175 -0.0937  0.0666
29032W        W45880  13.599  13.683   0.817 -0.3328 -0.1504  0.0315
29033W        W45881  16.378  13.261  12.450  0.1574  0.0301 -0.0390
29034W        W45882  10.045  10.693   4.241  0.1298  0.0472  0.3755
29035W        W45883  12.564   7.492  13.575 -0.0799 -0.0138  0.2149
29036W        W45884  11.142   2.016   1.738  0.1659  0.3617 -0.1940
29037W        W45885  16.073  16.411   5.688  0.3076  0.0204  0.1083
29038W        W45886   6.649  15.444   0.541  0.2391 -0.1113  0.1623
29039W        W45887   3.165   7.600   2.323  0.1999  0.2091  0.1034
29040W        W45888   6.442  13.958  16.239  0.2226  0.4574  0.1842
29041W        W45889  12.842   4.017   5.186  0.1835 -0.0172 -0.0604
29042W        W45890  11.824  17.055  16.671  0.1274 -0.0847  0.0672
29043W        W45891  10.443   8.299  13.344 -0.2081 -0.1320 -0.0877
29044W        W45892   0.638   3.030  16.875  0.1287 -0.1734  0.1667
29045W        W45893   7.823   6.682   1.171  0.0374  0.0568  0.0873
29046W        W45894   0.046   8.101   2.771  0.3264  0.2192  0.2221
29047W        W45895   6.383  11.392   3.759 -0.0495  0.3343 -0.0188
29048W        W45896  10.232   3.330  14.433 -0.1256  0.0186 -0.4834
29049W        W45897   3.967  13.505  13.011 -0.1523  0.0534 -0.0398
29050W        W45898  10.635  11.191   5.484 -0.1254  0.1434  0.3452
29051W        W45899  10.314   7.461   3.040  0.2654 -0.2329 -0.0968
29052W        W45900   4.237   3.436  16.145  0.1164 -0.1476  0.0294
29053W        W45901   2.402   2.948  13.915 -0.2312 -0.0251 -0.2459
29054W        W45902  10.906  12.692   3.052 -0.1779  0.2362 -0.0438
29055W        W45903   6.733  11.788   3.552 -0.0436  0.1317  0.3168
29056W        W45904   6.796   5.431   3.674  0.0263 -0.1945  0.1428
29057W        W45905   8.306   9.294   2.571  0.0874  0.1016  0.0089
29058W        W45906  17.014   6.223   3.826  0.3421 -0.0383  0.2822
29059W        W45907   9.770  11.750  17.398  0.0483 -0.0962 -0.3953
29060W        W45908   6.175   0.229  16.869  0.1912 -0.0956  0.2282
29061W        W45909   8.201  11.585  12.513  0.2621 -0.0288 -0.0531
29062W        W45910   5.262   8.699  14.766  0.0752  0.1976 -0.0188
29063W        W45911  11.244   1.089   1.086  0.1401 -0.2028  0.0219
29064W        W45912  16.768   5.881   3.473  0.0908 -0.1137  0.0551
29065W        W45913  16.357  11.746   4.024  0.4672  0.2400  0.0711
29066W        W45914  12.700  12.625  12.691 -0.1121 -0.1205  0.3668
29067W        W45915   0.579  12.362   3.055  0.0302 -0.3791 -0.2400
29068W        W45916  12.125  15.095  14.657 -0.1830  0.2063 -0.0459
29069W        W45917  14.424  10.574   4.778 -0.3808 -0.1330 -0.0231
29070W        W45918   5.590  13.356  14.058 -0.0288  0.0190  0.1131
29071W        W45919   2.808  16.276  16.995 -0.0116 -0.0478 -0.0475
29072W        W45920   6.555  10.173  14.203 -0.1082  0.2205  0.0858
29073W        W45921   4.287   3.925   0.685 -0.0852 -0.2250 -0.2920
29074W        W45922  10.541   9.530  15.997 -0.1437 -0.0625  0.0546
29075W        W45923   4.288  13.968  15.729  0.0902 -0.2309 -0.0438
29076W        W45924  11.165   2.547   1.881 -0.0549  0.3604 -0.1180
29077W        W45925   6.467  10.223   1.186 -0.0759 -0.2223  0.0385
29078W        W45926   7.046  14.178  13.902  0.1225  0.0118  0.4441
29079W        W45927   7.250   3.060   5.688 -0.0310  0.0168  0.3729
29080W        W45928  10.708   6.090  14.249 -0.1631 -0.0235 -0.0504
29081W        W45929   7.332   7.030  12.057 -0.0415  0.2522  0.2589
29082W        W45930  13.488   2.343  12.911 -0.2486 -0.0342 -0.0143
29083W        W45931  16.346  10.370  17.551  0.2554 -0.3901 -0.1033
29084W        W45932  16.583   5.573   0.682  0.1298  0.1234  0.0007
29085W        W45933  12.883   8.154   1.673  0.1711  0.2651  0.1387
29086W        W45934  12.345   3.607  16.274  0.3636  0.1715 -0.1689
29087W        W45935  15.558  12.327   2.003 -0.0624 -0.1353  0.0640
29088W        W45936   0.698   8.874  14.612 -0.2455 -0.1311 -0.2489
29089W        W45937  10.546   1.775  15.886 -0.0092 -0.2778 -0.0048
29090W        W45938  14.083   9.688   4.869 -0.0874  0.1002 -0.1712
29091W        W45939  13.445   1.237  12.712  0.1797 -0.5138 -0.0400
29092W        W45940   5.728   5.285  11.341 -0.1520  0.1589 -0.2845
29093W        W45941   4.894  15.323   5.285  0.0896  0.2788 -0.2220
29094W        W45942   6.610   5.660   4.060  0.2222 -0.1254  0.2218
29095W        W45943  15.066   3.614   2.492  0.0487  0.2083  0.2098
29096W        W45944   8.557  11.878   4.414  0.1084  0.0086 -0.1384
29097W        W45945   4.326   5.985  14.512  0.0593  0.1791 -0.0864
29098W        W45946   6.386  10.682  14.260 -0.0797  0.2205  0.1166
29099W        W45947   4.902   8.059   1.490 -0.0369  0.0114  0.1764
29100W        W45948  11.919  16.692  17.063 -0.1830  0.0975 -0.2692
29101W        W45949   1.329   4.398  12.495  0.2503  0.3816 -0.0874
29102W        W45950   1.922  10.463   3.218  0.0501 -0.0637 -0.0096
29103W        W45951   7.110  13.810  13.447 -0.3277 -0.1571 -0.0346
29104W        W45952   1.716  16.887  15.806 -0.0839  0.1778 -0.0747
29105W        W45953  12.412  12.327  14.465 -0.0839  0.3482  0.3597
29106W        W45954   8.837   0.643   2.797 -0.2387  0.1286 -0.1326
29107W        W45955   9.769  15.506   1.966  0.1199 -0.3127 -0.2916
29108W        W45956   3.888  10.724  17.425 -0.1088  0.0619 -0.1601
29109W        W45957  14.017   2.883   0.141 -0.1245 -0.4018 -0.0725
29110W        W45958   7.419   2.662   4.906 -0.0496 -0.1896 -0.2321
29111W        W45959  14.183   3.801   4.963  0.0634  0.3388 -0.2071
29112W        W45960   5.198   4.087  14.959 -0.0378 -0.2392 -0.0363
29113W        W45961   4.053  11.486  16.390 -0.3270  0.2129 -0.1024
29114W        W45962  10.730  11.330  17.822  0.0276  0.2004  0.0112
29115W        W45963   3.172   2.402  15.750 -0.3126 -0.1179 -0.0993
29116W        W45964  10.219  16.935   4.068 -0.4538 -0.3631 -0.0845
29117W        W45965   0.526   5.242  17.344  0.1360  0.1485 -0.1413
29118W        W45966   6.987   0.661  17.445  0.0786 -0.0135 -0.0764
29119W        W45967  13.601  14.178   0.637  0.0105 -0.2157  0.0191
29120W        W45968   3.334  12.540   0.438  0.0753  0.2555  0.1768
29121W        W45969  16.396   6.723   3.104 -0.0082 -0.0617 -0.0700
29122W        W45970   8.336   3.135  12.633 -0.0786  0.1513  0.0991
29123W        W45971   3.816   2.001  16.830 -0.0511 -0.0333  0.1577
29124W        W45972   6.558  16.201  17.193 -0.0315  0.1583 -0.3740
29125W        W45973   8.738  12.715   6.020 -0.0287 -0.0747 -0.1889
29126W        W45974  13.633   0.277  12.514  0.1924 -0.0228 -0.2459
29127W        W45975  11.627   2.694   3.032  0.3481 -0.0691 -0.0954
29128W        W45976  13.597   7.332  13.535  0.1591 -0.0052  0.0963
29129W        W45977   4.569  12.363   2.522  0.3422 -0.1211  0.1233
29130W        W45978   1.072   4.117  12.857 -0.1150 -0.2996 -0.0554
29131W        W45979  16.620  13.505  15.293  0.1319 -0.0660 -0.0849
29132W        W45980   9.762   9.902   2.381  0.1403 -0.0171 -0.3843
29133W        W45981   1.100  10.528  14.240  0.0662  0.0363  0.2979
29134W        W45982  14.442   4.152  15.567 -0.2314  0.3145 -0.1472
29135W        W45983  13.916   3.344   0.449 -0.0801 -0.3102 -0.0478
29136W        W45984  16.377  16.671   5.112  0.1329  0.1108  0.4416
29137W        W45985  16.291  16.717  15.939 -0.1482  0.2601 -0.2334
29138W        W45986   3.825  15.958   0.463 -0.0539  0.1868  0.2566
29139W        W45987  12.820  11.083   3.405  0.2836 -0.3758 -0.2877
29140W        W45988  11.249   4.157   0.759 -0.0079 -0.2062 -0.1670
29141W        W45989   9.949   7.709   1.677 -0.1991 -0.4294 -0.0212
29142W        W45990   3.665   9.466   3.418 -0.3083  0.1683  0.0210
29143W        W45991  12.394   5.304  12.664  0.0229  0.2914 -0.1908
29144W        W45992  16.401   4.723  13.637 -0.0925 -0.4135  0.1607
29145W        W45993  15.761   3.063   4.872  0.0869 -0.1179 -0.1317
29146W        W45994  15.206  15.363  12.916 -0.1511  0.0479 -0.1514
29147W        W45995   9.091   5.861   3.944  0.1408 -0.3006  0.2510
29148W        W45996  11.965  16.308   0.383  0.1055 -0.3449  0.3490
29149W        W45997  14.192   8.795  16.580 -0.0953  0.1710 -0.0396
29150W        W45998   3.946   3.625  13.213  0.1697  0.1437  0.1437
29151W        W45999  11.080   9.840  14.697 -0.0683 -0.2008 -0.1992
29152W        W46000   0.187   3.319   1.473 -0.0533 -0.0331 -0.0282
29153W        W46001  15.650  11.819   4.992 -0.0960  0.2124 -0.0756
29154W        W46002   6.494  11.825  14.271  0.1268 -0.2244 -0.0652
29155W        W46003   4.139  12.759  16.518 -0.2265  0.0736  0.1491
29156W        W46004   4.927   9.159  14.988  0.3542  0.1285 -0.0281
29157W        W46005   8.387   0.848  13.394  0.0362 -0.0415  0.0546
29158W        W46006   1.558   7.116  17.205  0.2382  0.0338 -0.0125
29159W        W46007   4.960   4.458   3.244 -0.2248 -0.1755 -0.2537
29160W        W46008   0.882   6.785   4.611 -0.2004  0.1305 -0.0357
29161W        W46009  11.529   8.285   0.235  0.1631 -0.2721  0.1468
29162W        W46010   5.736   7.532  16.042 -0.0471 -0.1452  0.1172
29163W        W46011  11.898  12.047  15.873 -0.2126  0.1634 -0.0419
29164W        W46012  16.919  12.364   4.463 -0.0041 -0.0507  0.3110
29165W        W46013   0.619   2.959   0.943 -0.0099 -0.0117 -0.1605
29166W        W46014   9.823  16.243   5.244 -0.2103  0.0067 -0.3893
29167W        W46015   7.502   0.219  12.404 -0.1842 -0.3299  0.1720
29168W        W46016   8.243   8.722   5.424 -0.1868 -0.2366  0.1116
29169W        W46017   2.993  12.198   1.571 -0.0630  0.2943  0.1151
29170W        W46018   5.144   4.092   1.609 -0.1686 -0.2547 -0.0519
29171W        W46019   2.583  16.683  17.719  0.0910 -0.0475 -0.1502
29172W        W46020   6.517  13.558   0.774 -0.2584 -0.0392 -0.2010
29173W        W46021   6.355   4.699  16.136 -0.1625  0.3387 -0.1386
29174W        W46022  13.033  13.692   3.682 -0.2871 -0.0816 -0.1400
29175W        W46023  12.946  14.396  13.224 -0.1790  0.0507 -0.3390
29176W        W46024   5.155   9.138  16.433  0.4294  0.2726  0.2338
29177W        W46025   7.372   6.880   1.422 -0.1315  0.0248 -0.4562
29178W        W46026  15.680  10.428  16.131 -0.1429  0.4851  0.0722
29179W        W46027   6.260  16.915  16.515  0.0054 -0.0175  0.2943
29180W        W46028  11.988   8.072  13.372  0.2867 -0.0470  0.2015
29181W        W46029  10.407   4.539  13.381  0.0148  0.1553  0.0991
29182W        W46030   7.627  10.781   4.250  0.0052 -0.0141  0.1055
29183W        W46031  10.703   4.663   5.394 -0.3271  0.2023  0.2467
29184W        W46032   7.879   5.747   4.054  0.0646  0.0796 -0.0148
29185W        W46033   8.452  15.758   2.153 -0.3253 -0.0165 -0.2755
29186W        W46034   6.488   4.142   6.732 -0.3106  0.0532  0.0166
29187W        W46035  12.441   7.356  14.031  0.4597  0.1667 -0.2201
29188W        W46036   3.104   8.978   2.432 -0.2581 -0.0549 -0.5590
29189W        W46037   0.600   0.317  16.230 -0.2599  0.1080 -0.0252
29190W        W46038  13.977   0.514  12.218  0.0461  0.2052  0.2471
29191W        W46039   5.810   5.734  13.452 -0.1439 -0.0053 -0.2692
29192W        W46040   0.247   3.143  16.177  0.0023 -0.1753 -0.2315
29193W        W46041  12.568   3.552   5.041  0.1369  0.0988  0.2770
29194W        W46042   8.070   9.720   2.671 -0.0890 -0.1084  0.2375
29195W        W46043   4.365   1.568  11.527 -0.2291 -0.2066  0.1429
29196W        W46044   2.861   6.318  15.018  0.0051 -0.0934  0.1686
29197W        W46045  15.540  10.064   3.709  0.1304 -0.1634  0.0840
29198W        W46046   7.068   5.286   5.281 -0.0615  0.1220 -0.0477
29199W        W46047  12.250   3.482  16.860 -0.0595  0.0601 -0.0354
29200W        W46048  12.694   1.089   2.982  0.2914  0.1447  0.1056
29201W        W46049   2.743   7.644  13.984  0.0330 -0.0366 -0.1529
29202W        W46050   0.114   0.286  12.876 -0.4662  0.0378 -0.2960
29203W        W46051   8.753  16.055  16.354 -0.2221  0.1251 -0.3839
29204W        W46052   0.632  11.100   6.082  0.1897 -0.1510 -0.0922
29205W        W46053   3.281   2.015  13.420  0.2921 -0.0075 -0.1076
29206W        W46054   9.841   6.093  17.123  0.0415  0.2751  0.0240
29207W        W46055   2.940   6.469   0.036 -0.1298  0.1987 -0.0127
29208W        W46056   2.235   1.932  17.645  0.0302 -0.0224 -0.3460
29209W        W46057   9.093   0.996  11.820 -0.1801 -0.0566  0.0461
29210W        W46058  12.623  13.196   3.522 -0.1944  0.0652 -0.1612
29211W        W46059  16.758   7.296   5.071  0.2244  0.0408  0.0318
29212W        W46060   6.347  12.161   5.841  0.1693 -0.1751  0.1532
29213W        W46061   2.935   0.004   5.796  0.1219  0.0929  0.2316
29214W        W46062   9.441  15.252   1.052 -0.2396  0.0643 -0.0375
29215W        W46063   3.637   0.010   3.641  0.1141 -0.2174  0.3840
29216W        W46064  15.105   8.250  14.459  0.3332 -0.4557 -0.2396
29217W        W46065   9.743   1.577  12.857 -0.0305 -0.0399 -0.1616
29218W        W46066   0.010  14.805   3.079 -0.1981 -0.1468 -0.0727
29219W        W46067  15.626   7.380  13.218 -0.0031  0.0116  0.4134
29220W        W46068  11.629   5.991   0.042  0.1324  0.0085  0.3325
29221W        W46069  14.410   8.778   0.949 -0.0224  0.1053  0.3418
29222W        W46070  12.718  15.263   0.578  0.1663 -0.3514 -0.2058
29223W        W46071  13.051   7.204  17.776  0.1148  0.0392  0.2186
29224W        W46072  13.837   1.873   1.745 -0.3324  0.0673  0.0308
29225W        W46073   7.573  14.336   5.301 -0.0575  0.2261 -0.0122
29226W        W46074   6.288  14.956  16.599  0.1499  0.1366  0.0758
29227W        W46075  16.596   4.357  13.378 -0.0001 -0.1148  0.1022
29228W        W46076  12.779  14.836  16.465  0.3005 -0.0211 -0.0317
29229W        W46077   0.915   5.202  17.049  0.0708 -0.0812  0.1009
29230W        W46078   5.176  11.728  15.542 -0.3172  0.2338 -0.0207
29231W        W46079  14.446   4.580  14.676 -0.1856 -0.0144  0.1175
29232W        W46080  14.895   7.033   4.785  0.0426 -0.0665 -0.0844
29233W        W46081  15.649   9.184   4.736  0.1019 -0.1277  0.0542
29234W        W46082  11.949   0.201   0.034  0.3039  0.0293 -0.0204
29235W        W46083   1.155   4.030   0.180 -0.2949 -0.1091  0.3487
29236W        W46084  11.595   4.973   1.035 -0.0415  0.0596  0.0951
29237W        W46085   7.124  17.059  14.223  0.1035 -0.3518 -0.0627
29238W        W46086  13.414   8.139  16.373  0.0024 -0.0325  0.2842
29239W        W46087  14.472   9.202  14.638 -0.1190 -0.1808 -0.1270
29240W        W46088   7.076  10.440   5.327 -0.2223  0.1707  0.3636
29241W        W46089   9.249   3.010  16.562 -0.1069  0.2536  0.0364
29242W        W46090   3.998   7.275   2.746 -0.1446  0.0022 -0.1306
29243W        W46091  11.615  13.766   5.510 -0.2515 -0.0943 -0.0956
29244W        W46092   0.540  12.658  15.606 -0.0449 -0.3365 -0.0352
29245W        W46093   4.352   1.900   0.210  0.1410 -0.0265 -0.0272
29246W        W46094   2.178   2.242   5.677  0.2080 -0.1180  0.0417
29247W        W46095   0.493   3.180   6.160  0.2825 -0.2084 -0.1098
29248W        W46096   1.937  14.138   1.825 -0.0545 -0.0469  0.1731
29249W        W46097   7.991  13.118  17.075  0.1910 -0.2296  0.2091
29250W        W46098   9.324   6.379  15.499  0.0108 -0.2407 -0.0244
29251W        W46099   7.528   4.536   5.589 -0.2232  0.0213 -0.1919
29252W        W46100   7.059  16.943   0.496 -0.0394  0.0627 -0.2800
29253W        W46101   9.576   2.390   2.626 -0.0922 -0.2483  0.0937
29254W        W46102  10.810  11.635   4.920 -0.1424 -0.1832 -0.2898
29255W        W46103   5.157   7.169  12.652 -0.2556  0.2108  0.0682
29256W        W46104   2.400  15.925   3.433 -0.0434  0.3486  0.1230
29257W        W46105   4.011   0.948  15.276 -0.1260  0.1214 -0.2491
29258W        W46106   8.361   5.945   2.065 -0.2598 -0.1182  0.4528
29259W        W46107  13.306  14.645  12.937 -0.0296  0.3195  0.0065
29260W        W46108   4.251   4.572  13.431  0.1578 -0.2257 -0.2144
29261W        W46109   1.524   9.380  17.604 -0.1557 -0.1444  0.1108
29262W        W46110   9.877   3.553   2.043  0.3708  0.0403  0.2769
29263W        W46111  13.689   8.223  13.048 -0.2024  0.1624 -0.1034
29264W        W46112   8.947   8.933  12.491 -0.0881  0.2806 -0.2750
29265W        W46113  11.501   2.551   3.908 -0.2975 -0.2569  0.0663
29266W        W46114   0.586  15.674  17.187  0.0130  0.0935 -0.0129
29267W        W46115   6.197   6.470  17.307 -0.1307  0.1420  0.2982
29268W        W46116   7.477  12.090   2.064  0.2639 -0.2750  0.5183
29269W        W46117   8.682  16.019   3.561  0.2041  0.0472 -0.1121
29270W        W46118  11.159   3.253   4.067 -0.0433  0.1825  0.4323
29271W        W46119   5.313  13.533  12.735  0.2546 -0.3904  0.0657
29272W        W46120   1.003  16.492   0.974 -0.0841  0.3160  0.0119
29273W        W46121   2.540   4.967  13.594 -0.0627  0.0393  0.0032
29274W        W46122  13.922   2.623  12.812 -0.0299  0.2921  0.0034
29275W        W46123  16.812  10.196  17.231  0.1993  0.0267  0.0203
29276W        W46124  11.377   9.238  12.093 -0.1341  0.1441  0.0476
29277W        W46125  11.329   7.956  14.039 -0.0560  0.2261  0.0664
29278W        W46126  16.051   8.117   4.813  0.3364 -0.1671 -0.0326
29279W        W46127   8.499   0.345  13.649  0.2506  0.0334  0.1255
29280W        W46128  10.150   3.996  13.040  0.0854  0.0215  0.1169
29281W        W46129   7.198  12.751   5.164 -0.0533  0.0537 -0.4157
29282W        W46130   0.974   6.741   2.986  0.0878  0.1047 -0.0205
29283W        W46131   0.952   7.027  15.253 -0.3982 -0.0590 -0.0843
29284W        W46132   7.053  11.487   3.854 -0.1400 -0.0220 -0.1147
29285W        W46133   4.609  15.425   1.572  0.2402  0.1230 -0.0911
29286W        W46134  10.348   1.643  16.798  0.2876  0.0365  0.0993
29287W        W46135   5.614  14.539  12.258  0.0613  0.3202  0.0120
29288W        W46136   2.252  13.916  16.161  0.1954 -0.0315 -0.2086
29289W        W46137  10.980  16.886  17.148 -0.1608  0.0893 -0.1162
29290W        W46138   5.231   8.806  17.789  0.1661  0.1585  0.0259
29291W        W46139   1.239   9.183   0.847  0.2241  0.1401  0.2290
29292W        W46140   0.619  10.655  14.448  0.1970 -0.1205 -0.1783
29293W        W46141  13.508   1.992   5.412 -0.0051 -0.1726  0.1018
29294W        W46142  14.612   2.349   0.881 -0.0189  0.1573 -0.0606
29295W        W46143  11.380   2.713  15.065 -0.1583  0.0903  0.1660
29296W        W46144   1.647  16.145   2.988 -0.1171  0.0509  0.2388
29297W        W46145   1.863   1.007   2.784 -0.1006  0.2122  0.3795
29298W        W46146  15.733   9.796   2.661 -0.3016  0.2687  0.0800
29299W        W46147  11.246  15.082   1.338 -0.1514 -0.0155 -0.0015
29300W        W46148  13.841   9.137  15.664 -0.0158  0.0920 -0.0201
29301W        W46149   8.294   0.882   5.553 -0.0647  0.1445  0.2942
29302W        W46150   8.915  16.396  15.451  0.0603  0.0360  0.0024
29303W        W46151  16.663   2.365   2.812  0.0792 -0.3168 -0.1454
29304W        W46152   2.475  15.295   3.908  0.1204 -0.2436  0.0959
29305W        W46153   8.292  12.469   2.660 -0.1039 -0.0638  0.3956
29306W        W46154  13.040   1.453   1.534  0.2256 -0.1097  0.1126
29307W        W46155   6.242   9.239   5.759  0.1523  0.0350  0.0994
29308W        W46156  16.446  12.161  16.208 -0.0649  0.2054  0.1296
29309W        W46157  16.725   4.867  14.038  0.2403 -0.0345  0.1806
29310W        W46158   6.408   0.112   4.861 -0.0044  0.3143 -0.2521
29311W        W46159   7.845  12.371  12.723  0.0210  0.1161 -0.2063
29312W        W46160   1.023  13.008  12.960 -0.1311  0.1278  0.1791
29313W        W46161   2.425   2.516   2.966  0.0014  0.1961 -0.1806
29314W        W46162   9.653  16.015  16.817  0.0654 -0.0981 -0.1658
29315W        W46163   9.108  12.774  13.536  0.1031  0.0512  0.1207
29316W        W46164   1.722   8.332  13.012  0.3550 -0.0013 -0.0956
29317W        W46165   8.664  15.697   3.938 -0.1639 -0.0825  0.0062
29318W        W46166   7.199  10.407  12.233  0.2263 -0.2385 -0.1124
29319W        W46167   4.955  14.528  17.536 -0.0438  0.1186  0.0563
29320W        W46168  14.496   5.743  16.629  0.0853  0.0575  0.0218
29321W        W46169  14.683   2.762   4.808 -0.0292  0.0405 -0.1931
29322W        W46170  11.708  11.565  15.399 -0.1534  0.0612  0.2474
29323W        W46171  16.951   6.381  13.096 -0.0239  0.2456 -0.0605
29324W        W46172  16.647  16.544   0.921 -0.2907 -0.3051 -0.1093
29325W        W46173   6.604  16.906  15.159 -0.3037  0.2232  0.0489
29326W        W46174  11.484   5.154  13.702 -0.1400 -0.0266  0.3085
29327W        W46175   3.326   4.552   1.963 -0.3671  0.1258  0.0781
29328W        W46176   8.148  16.823  15.018 -0.1857  0.0254 -0.2736
29329W        W46177  10.587   6.320  13.750  0.2480  0.0323  0.0174
29330W        W46178  16.125  15.432   0.831 -0.1764 -0.0678  0.0971
29331W        W46179   9.893   6.083  14.672  0.0657 -0.0102 -0.1147
29332W        W46180   1.493  13.264   5.274  0.0765  0.0265  0.0956
29333W        W46181   4.673   3.642  16.417 -0.0259  0.0384 -0.0533
29334W        W46182  16.740   8.807  17.554  0.2268 -0.2052 -0.4251
29335W        W46183   7.006   5.733  14.951  0.0902 -0.0322  0.0308
29336W        W46184   1.521  10.677   4.545 -0.1768 -0.1353  0.0678
29337W        W46185  10.073  12.913  12.471  0.1325 -0.2473 -0.0332
29338W        W46186  11.483  10.085  14.924 -0.0055 -0.1360 -0.2597
29339W        W46187   2.214   1.811  17.112  0.0929  0.4444 -0.1271
29340W        W46188   1.881   3.559   1.758 -0.3320  0.0771 -0.2744
29341W        W46189   1.628  16.174   2.373 -0.0069  0.2195 -0.3053
29342W        W46190   8.824   6.116   6.681  0.1285 -0.2890  0.1102
29343W        W46191   6.902   0.272  16.029  0.1896 -0.1229 -0.1674
29344W        W46192  13.937   0.610   2.355  0.1231 -0.0604 -0.0769
29345W        W46193   5.283  13.113  14.651 -0.2340 -0.0302 -0.2093
29346W        W46194  11.844  11.224  16.804 -0.4316 -0.0207  0.0243
29347W        W46195  14.880  14.115  16.975  0.0180  0.0605  0.0616
29348W        W46196   0.075   2.022   4.457 -0.0439 -0.2840  0.0315
29349W        W46197  10.964   9.199  12.391 -0.2273 -0.2413  0.0750
29350W        W46198   4.269  15.854   1.631  0.2512 -0.0686 -0.0485
29351W        W46199  11.823  16.183  17.256  0.0425  0.2871  0.0616
29352W        W46200  11.983   7.437  15.383 -0.2644 -0.2208 -0.0301
29353W        W46201   9.307   8.584   1.938 -0.1890  0.0467 -0.0419
29354W        W46202   4.380   7.542   1.856  0.2026 -0.3154  0.1304
29355W        W46203  13.152  14.085  17.847  0.4095  0.0140  0.3394
29356W        W46204  11.448   6.903  16.373  0.0634  0.0312 -0.0550
29357W        W46205   1.435   1.329   4.366  0.0986  0.1239  0.2312
29358W        W46206   6.719   5.646  15.981  0.1439  0.0254 -0.1532
29359W        W46207   1.039   7.144  13.951 -0.0582  0.1140 -0.0669
29360W        W46208  10.059  16.664   2.729  0.2492 -0.4053  0.0733
29361W        W46209   2.868   6.107  17.088 -0.1140 -0.1035 -0.0297
29362W        W46210   5.192   9.092  13.029 -0.0893 -0.0137 -0.0555
29363W        W46211   7.551   0.072  15.089 -0.1438  0.1995 -0.1134
29364W        W46212   3.047   9.453   0.461  0.0069 -0.0163  0.2074
29365W        W46213  10.325   4.612  17.592  0.1697 -0.0375  0.2151
29366W        W46214  10.723   3.713   4.594 -0.2376  0.1668 -0.2518
29367W        W46215  14.756   3.863   1.409 -0.2002 -0.1797  0.2180
29368W        W46216  12.309  10.393   4.494 -0.2532  0.4981 -0.2738
29369W        W46217   3.945  11.939  15.106  0.0878 -0.1174  0.2166
29370W        W46218   6.690   7.861   0.561  0.2799 -0.0011  0.0074
29371W        W46219   6.400   8.805   1.476  0.0102  0.1165 -0.0425
29372W        W46220   1.352   0.823  14.390 -0.0400  0.2802 -0.2184
29373W        W46221   9.232  12.342  13.710  0.1715  0.0176 -0.0120
29374W        W46222   1.074   6.984   4.062 -0.1575 -0.1057  0.1158
29375W        W46223  12.113   2.685  16.151  0.0699 -0.0532  0.2077
29376W        W46224  16.165  16.734   3.674 -0.2231  0.0564 -0.0145
29377W        W46225   0.246  11.891   5.272  0.1231  0.0683  0.3379
29378W        W46226   1.952  14.127  17.824 -0.0079  0.1312 -0.1911
29379W        W46227   7.996  11.900   2.797 -0.3988 -0.1495 -0.0862
29380W        W46228   1.749  10.110   4.166 -0.1253 -0.0668 -0.0294
29381W        W46229   9.059  15.157  15.284  0.0905  0.1241 -0.0466
29382W        W46230   0.134   1.369   5.401  0.3848 -0.1836 -0.1333
29383W        W46231  12.266  14.036  13.337 -0.1031  0.1517  0.0128
29384W        W46232   8.172  12.247  16.058  0.3745 -0.0124  0.1770
29385W        W46233  16.830   1.035   5.242 -0.0203  0.1045  0.2147
29386W        W46234   9.826  13.038   5.682 -0.0348 -0.3249  0.0983
29387W        W46235   6.785  13.934  12.490  0.0676  0.1032  0.0118
29388W        W46236   2.075  14.045   3.385  0.0028 -0.0916 -0.2129
29389W        W46237  12.081  12.069   1.531  0.2430  0.0281  0.0712
29390W        W46238   7.323   4.284   1.840 -0.0981  0.0915 -0.0459
29391W        W46239  16.017   0.450  13.594 -0.2641  0.0037  0.1398
29392W        W46240  12.260  10.647   1.636  0.1029  0.0832  0.2670
29393W        W46241  10.486   7.047  17.754  0.0565  0.1015 -0.1580
29394W        W46242  15.304  14.568   3.587  0.1906 -0.0451 -0.0910
29395W        W46243  11.665  11.837  13.454 -0.0277  0.0172 -0.4284
29396W        W46244   8.426  14.832   1.036  0.1674 -0.0776 -0.1401
29397W        W46245  12.266   3.762   3.858  0.0205 -0.0598  0.0053
29398W        W46246  13.918  14.946   5.306  0.0173  0.1416  0.0890
29399W        W46247   6.571  14.851  12.685  0.1187  0.0535 -0.1263
29400W        W46248  16.018   6.213  17.495 -0.0869 -0.1784 -0.1746
29401W        W46249  13.489   8.668  12.990 -0.0452 -0.0877  0.1046
29402W        W46250   0.028   5.239  13.948 -0.0132  0.1264 -0.1979
29403W        W46251  11.141  14.246   5.092 -0.0296 -0.1269 -0.1371
29404W        W46252   5.089   3.845   3.324 -0.0805  0.0274 -0.0284
29405W        W46253   8.557   6.195   1.609 -0.0543  0.0083  0.0677
29406W        W46254   8.699  12.566   4.341 -0.1088  0.4127 -0.1008
29407W        W46255   6.531  10.607  13.775  0.0452 -0.1673  0.2535
29408W        W46256  16.258   2.565   2.470 -0.0930 -0.1847  0.0003
29409W        W46257  15.608   6.476   1.784  0.0014  0.2524  0.0548
29410W        W46258  13.610   8.121  13.815  0.0129 -0.0293  0.1030
29411W        W46259   4.909   9.079  13.536 -0.0673  0.1827 -0.1711
29412W        W46260  15.374  15.064   5.132 -0.3903  0.1985  0.1038
29413W        W46261  10.058  11.390  13.901 -0.0338  0.2738  0.1954
29414W        W46262   9.961   7.178   2.735 -0.1141 -0.1377 -0.3515
29415W        W46263   6.964   7.358  12.987  0.1206  0.2461  0.2380
29416W        W46264  13.183  13.996   2.436  0.0583  0.1222  0.1771
29417W        W46265  14.843  14.721   3.691  0.2175  0.0607  0.1691
29418W        W46266  14.341   7.382   1.133  0.1767 -0.3261  0.0079
29419W        W46267   6.242  12.502  12.559  0.0823  0.1240 -0.1060
29420W        W46268  10.009   9.436   4.026  0.4295 -0.0163 -0.2076
29421W        W46269   3.816   5.393   4.481  0.2573  0.0905  0.0661
29422W        W46270   4.391  13.587   0.649  0.2260 -0.0050  0.3408
29423W        W46271  12.190  11.786   4.620  0.0903 -0.0181  0.2643
29424W        W46272   3.317   4.974  16.429  0.1712  0.2257  0.0327
29425W        W46273   9.694   6.043   5.423 -0.0212 -0.1217 -0.2193
29426W        W46274  13.265   5.144   3.961 -0.0580 -0.0004 -0.1873
29427W        W46275   7.641   6.195   0.920 -0.0763 -0.1026  0.1763
29428W        W46276  13.767  10.653  14.997  0.2050 -0.0177 -0.2696
29429W        W46277   9.425  10.346   5.489 -0.1140 -0.1746 -0.0791
29430W        W46278   8.785  12.434  12.934 -0.1534  0.0433  0.1243
29431W        W46279  15.909   5.387  15.133 -0.0629  0.1485  0.1939
29432W        W46280   6.900  16.483   2.888  0.2297 -0.1939  0.1063
29433W        W46281   7.043  14.948   3.247 -0.2015 -0.0730  0.2058
29434W        W46282  13.368  12.230   0.567  0.0520 -0.0264  0.3896
29435W        W46283   2.548   6.071   3.316 -0.2073  0.0303  0.0206
29436W        W46284   7.459  10.865  16.989  0.0536 -0.1515 -0.0087
29437W        W46285  13.579   7.849  11.889  0.3296  0.0304 -0.1626
29438W        W46286   5.533  13.951  16.193  0.2032  0.1115  0.2685
29439W        W46287   6.629  10.481  17.545  0.1276  0.2099  0.2653
29440W        W46288   7.755  14.231   2.915  0.0188  0.3324 -0.1912
29441W        W46289  15.725   6.235   3.265  0.1155  0.0495  0.2143
29442W        W46290   3.020   5.093  13.734 -0.3933 -0.2932 -0.2327
29443W        W46291   1.803   4.279  14.142 -0.0205  0.2269 -0.1759
29444W        W46292   9.773  12.785  14.990 -0.0919  0.2195 -0.0023
29445W        W46293   8.906   3.391  13.668 -0.1304  0.2274  0.0534
29446W        W46294  17.057   5.093   3.154 -0.2278 -0.1666 -0.1222
29447W        W46295  15.196  15.426  14.719 -0.2826 -0.0679  0.0229
29448W        W46296  15.598   6.966   4.038 -0.1612 -0.1107  0.5102
29449W        W46297  15.297   0.186  15.880  0.0961 -0.2984 -0.0875
29450W        W46298   5.335  10.289  12.470  0.1407  0.0997  0.5408
29451W        W46299   9.662   3.221  17.409 -0.1717  0.1116  0.0382
29452W        W46300  12.489  14.895  14.349 -0.3680  0.0148  0.0513
29453W        W46301  12.011  11.298  13.874  0.3871  0.1980  0.3071
29454W        W46302  10.486  12.459  13.276  0.0541 -0.1524  0.1630
29455W        W46303   7.894  15.881  17.621  0.0882 -0.1035  0.1097
29456W        W46304  13.810  12.661  17.279 -0.2231  0.0412 -0.2612
29457W        W46305   3.345   2.947  14.980  0.1111  0.0859  0.0939
29458W        W46306   4.260  14.803   1.985  0.5803  0.2947 -0.1593
29459W        W46307  14.072  15.697  13.019 -0.0150 -0.1732  0.0345
29460W        W46308  14.567   5.738  15.632  0.1088  0.2425  0.0151
29461W        W46309   7.225  14.505  13.464  0.0263  0.4723  0.0086
29462W        W46310   4.908  13.427  17.482  0.1225 -0.2949  0.0688
29463W        W46311   9.425  12.064  15.490 -0.2184 -0.0601 -0.1727
29464W        W46312   3.320   7.340   0.587  0.0947 -0.1000 -0.1414
29465W        W46313   9.696   7.960  12.895  0.0043  0.0681  0.2562
29466W        W46314   0.180  11.330   2.009 -0.1963 -0.0154 -0.1850
29467W        W46315   8.443   0.114  17.803  0.1402 -0.2354 -0.0621
29468W        W46316   5.784   6.881   0.162  0.4028  0.0140 -0.2144
29469W        W46317   4.709   1.994   4.215 -0.1069 -0.0548  0.2943
29470W        W46318  16.813  12.915  17.399  0.3136  0.0920  0.0261
29471W        W46319  15.200   0.050  13.173  0.0056  0.1247  0.0907
29472W        W46320   5.265  15.461  14.474 -0.1058 -0.0675  0.3764
29473W        W46321   1.198   3.214  12.776  0.3013 -0.2459 -0.1972
29474W        W46322  10.330   1.391   2.600  0.1212  0.0073  0.2418
29475W        W46323   8.805  12.745  12.517 -0.2200 -0.3707  0.0165
29476W        W46324  13.946   0.487  16.779  0.0884  0.0331 -0.0876
29477W        W46325  14.225   4.693  17.368  0.1956  0.1138  0.0234
29478W        W46326  10.507  10.259   1.709  0.1919  0.2839  0.0700
29479W        W46327   8.273  11.829  13.502 -0.2945 -0.3114  0.2101
29480W        W46328  13.553  16.694   0.192 -0.2409 -0.0791  0.1949
29481W        W46329  11.874   4.055  12.492 -0.0256 -0.1863  0.1369
29482W        W46330   4.330  11.338   3.852  0.2537  0.1203 -0.1443
29483W        W46331   7.082   5.476  16.721  0.2216  0.0388  0.2708
29484W        W46332  10.954  11.066   4.479 -0.1396 -0.1792 -0.1482
29485W        W46333  11.536   5.388   2.310 -0.0004  0.0851 -0.0346
29486W        W46334   8.212   3.583  14.159 -0.2675  0.2816  0.0250
29487W        W46335   2.263  14.520   3.146  0.0935  0.1541  0.0422
29488W        W46336  11.673   2.810  15.834  0.0890  0.2055  0.0437
29489W        W46337  16.129   2.379   4.115 -0.2793 -0.0420 -0.3243
29490W        W46338   8.187   3.639   1.099 -0.1304  0.1147 -0.1227
29491W        W46339   9.673  10.642   2.832 -0.0189 -0.0629 -0.1574
29492W        W46340  13.714  12.224  15.463  0.2381  0.3138  0.4239
29493W        W46341  14.118   6.908  12.772 -0.1348  0.0779  0.0477
29494W        W46342   0.819   3.506   2.650  0.2175  0.1061  0.1326
29495W        W46343   5.168   9.632   4.759  0.1279 -0.0978  0.2420
29496W        W46344   4.950   0.341  14.032  0.0377  0.2902  0.3361
29497W        W46345   6.704   0.379  17.730  0.0263  0.1156 -0.2109
29498W        W46346  15.919  12.948  15.743  0.3092 -0.0198 -0.1529
29499W        W46347  14.171   0.894  16.939  0.2410  0.0105 -0.0611
29500W        W46348  15.277  16.586  13.089  0.1530 -0.1140  0.1112
29501W        W46349  16.460  16.940   2.316 -0.3110 -0.1928  0.1918
29502W        W46350  10.531   5.631   1.484 -0.1150 -0.0787  0.3192
29503W        W46351  12.140   7.884  15.509 -0.2594 -0.1192 -0.0597
29504W        W46352   2.694  13.545  15.777  0.1855 -0.0752  0.1250
29505W        W46353   7.857  14.458  12.761  0.1722  0.0995  0.1932
29506W        W46354  15.742   3.235   0.580 -0.0467  0.1573 -0.0114
29507W        W46355  11.553  14.297  16.187  0.1464 -0.1841  0.2821
29508W        W46356  15.066  13.852  14.371 -0.1270  0.1420 -0.0679
29509W        W46357   9.391   8.856   4.352  0.1971  0.2837  0.0728
29510W        W46358   7.106   4.660  17.469  0.0461  0.0177  0.4439
29511W        W46359  10.752  14.791  13.741  0.0555 -0.0610 -0.2696
29512W        W46360  13.505  11.319  16.203  0.3125 -0.1829 -0.1839
29513W        W46361   0.782   0.663  15.663 -0.2092  0.1749  0.2090
29514W        W46362   7.878  13.674  11.756  0.0316  0.0669  0.1941
29515W        W46363  15.237  13.545  15.551  0.1964  0.1521 -0.1407
29516W        W46364   5.859  10.169   5.675  0.0412 -0.3538  0.0321
29517W        W46365  11.368  14.865  15.159  0.0316  0.0346  0.1609
29518W        W46366  14.210   1.875   4.280 -0.0741 -0.1100 -0.0847
29519W        W46367   3.722   7.510  13.188 -0.3728  0.1356 -0.1180
29520W        W46368   4.448   5.393   3.308  0.2852 -0.0272 -0.2315
29521W        W46369   5.537   8.532  17.472  0.1369  0.1353  0.1321
29522W        W46370   3.141   8.824  15.909 -0.1251  0.0566 -0.1513
29523W        W46371  13.303   4.309   4.852 -0.0265  0.1076 -0.1650
29524W        W46372   7.090  16.890  15.938 -0.1586 -0.3775 -0.2006
29525W        W46373   2.216   1.793   3.936 -0.2026  0.1342 -0.0122
29526W        W46374   4.067  14.653  17.417 -0.2121  0.3625 -0.0861
29527W        W46375   8.672   4.355   4.484  0.4563 -0.0277 -0.1232
29528W        W46376   8.408   2.549  14.606 -0.1114  0.2225  0.1084
29529W        W46377  10.462   9.066   0.088 -0.1509  0.1608  0.1018
29530W        W46378   5.782  10.634  13.131 -0.1416  0.1947 -0.2266
29531W        W46379  16.287  14.821   0.808  0.0559 -0.2380  0.0281
29532W        W46380   5.238   0.561   3.645  0.1275 -0.0046 -0.1634
29533W        W46381  10.522   0.657   2.359  0.0406  0.1171 -0.0657
29534W        W46382   9.400   8.412  12.902  0.0300 -0.0291 -0.1606
29535W        W46383   1.707  13.993  16.275  0.1094 -0.2656 -0.2604
29536W        W46384  15.894  10.451   2.203  0.4157  0.3758 -0.2209
29537W        W46385  12.867   2.345   3.758 -0.1896 -0.1988  0.1195
29538W        W46386   3.363   5.990  17.218  0.2503 -0.0153 -0.0977
29539W        W46387   2.663   4.912  17.677  0.2506  0.4805  0.1105
29540W        W46388   2.681  16.222  15.587 -0.3845  0.3502 -0.2579
29541W        W46389  11.169   8.723  12.168  0.2417  0.0260  0.2784
29542W        W46390  10.262   7.493  17.641 -0.2537  0.1160  0.3417
29543W        W46391  13.256   8.149  16.844  0.1247  0.3393 -0.0807
29544W        W46392  14.397  16.238  14.240  0.0944 -0.2821 -0.0257
29545W        W46393   8.696   5.616   1.734  0.3498 -0.1721  0.1739
29546W        W46394   9.109   4.880   1.502 -0.3477 -0.0899 -0.2593
29547W        W46395   0.955   0.647  14.125  0.1873  0.0293 -0.1071
29548W        W46396   7.437  14.470  14.618 -0.0457  0.1285 -0.2650
29549W        W46397  15.147  13.303  13.534 -0.0470 -0.1164 -0.0643
29550W        W46398   9.339  13.027  11.918  0.0388  0.0818  0.0601
29551W        W46399   9.382   2.447  16.871  0.1586  0.3081  0.1737
29552W        W46400  12.833   4.683  14.577  0.1225  0.1715  0.0771
29553W        W46401   8.097   1.242  13.360 -0.0106 -0.0711 -0.1134
29554W        W46402   3.431   7.628   0.992 -0.0402 -0.1988 -0.0980
29555W        W46403   4.283   0.188   3.315 -0.0978 -0.0764  0.0953
29556W        W46404   0.312  16.564   3.082 -0.0023  0.0676 -0.4227
29557W        W46405  15.765   9.422  13.811 -0.1502  0.2784  0.0083
29558W        W46406   2.752   0.714   2.491 -0.0259 -0.0040 -0.1467
29559W        W46407  11.768   2.064  17.744 -0.4776 -0.0626  0.2140
29560W        W46408  12.059  13.109   0.796 -0.1252 -0.1577  0.1758
29561W        W46409  13.400   1.716  15.375  0.0917 -0.0049 -0.0978
29562W        W46410  13.877   2.403  13.328  0.1639 -0.1210 -0.0127
29563W        W46411   8.638  14.904  17.533  0.2944 -0.1985  0.1415
29564W        W46412   2.433   9.006   0.917 -0.0084  0.2484  0.0908
29565W        W46413   7.677  11.158  13.737  0.0755  0.0244  0.1004
29566W        W46414  10.998   5.132  12.682 -0.1473  0.0607  0.0035
29567W        W46415  11.563  11.209  14.013  0.0260 -0.1996 -0.2192
29568W        W46416   4.695   3.545   1.515 -0.1388  0.1059  0.1611
29569W        W46417   7.608  11.130  13.238 -0.0380  0.3876 -0.2413
29570W        W46418   2.838   4.910  15.385  0.0554 -0.2089 -0.0184
29571W        W46419   8.184   1.596   4.269  0.1877 -0.0375  0.0164
29572W        W46420  10.536   8.105  15.774 -0.0417  0.1628 -0.3041
29573W        W46421   1.314  11.458   1.381  0.1839 -0.0548 -0.2050
29574W        W46422  14.491   0.305  15.424 -0.0998  0.0256 -0.0744
29575W        W46423  16.420  15.270  14.157 -0.0968  0.1766 -0.0823
29576W        W46424   9.227  16.062  14.711 -0.0646  0.1027 -0.1300
29577W        W46425   6.186  14.918  16.109 -0.0201 -0.1330 -0.2130
29578W        W46426   1.920   4.498  16.651 -0.1252  0.0002 -0.0262
29579W        W46427   9.205   0.619  14.194 -0.0139 -0.1256 -0.2087
29580W        W46428  14.542   4.090   6.352 -0.3620 -0.2469 -0.1253
29581W        W46429  15.428   9.363   4.310 -0.0661  0.0236  0.0862
29582W        W46430  13.826  15.466   2.003  0.3622 -0.0228 -0.0611
29583W        W46431  14.542   9.942   3.486  0.2328 -0.1393 -0.2549
29584W        W46432  10.164   5.438  12.079 -0.0545 -0.0638 -0.0726
29585W        W46433   5.497  13.820  15.316  0.0232 -0.0514  0.1134
29586W        W46434  16.376  11.996  13.687  0.0034  0.0877  0.1595
29587W        W46435   5.903   3.538   5.181 -0.2000 -0.2363 -0.1436
29588W        W46436   1.087  16.755  14.039  0.2126 -0.0749 -0.1172
29589W        W46437   8.087  11.659   0.890 -0.1070  0.0094  0.4914
29590W        W46438   6.572  10.523  13.275 -0.0424  0.4121 -0.2232
29591W        W46439  13.233  16.683   0.569  0.2358 -0.1219  0.0901
29592W        W46440   0.885   1.635  11.818 -0.1642  0.2168 -0.1394
29593W        W46441  14.831   2.932   0.282  0.0168 -0.1303  0.2689
29594W        W46442   0.433  15.217   4.295  0.1152  0.0228 -0.1784
29595W        W46443   7.487  11.069   2.193  0.1167 -0.2518  0.0665
29596W        W46444   7.630  16.824  12.506  0.1099 -0.0585 -0.0201
29597W        W46445  16.943   9.255  13.035  0.2358  0.0448  0.0513
29598W        W46446   4.208   4.983   1.965  0.0398 -0.2989  0.0191
29599W        W46447  16.265   5.860   4.083  0.0987 -0.0802 -0.0573
29600W        W46448  13.369  10.799   5.819 -0.0711 -0.1780 -0.0092
29601W        W46449  10.475   0.715  17.305 -0.0752 -0.0248  0.0147
29602W        W46450   2.572  11.256  13.319  0.4718 -0.0353 -0.3112
29603W        W46451   2.511  11.174  17.748 -0.1330  0.1434 -0.0482
29604W        W46452   2.928  13.825   5.533  0.3639 -0.1870 -0.1918
29605W        W46453  11.956   3.850  16.594 -0.0669  0.2848  0.0208
29606W        W46454   3.878  14.849   2.308  0.0539  0.3853 -0.1910
29607W        W46455   9.213  14.374   5.277  0.1383 -0.0940  0.0324
29608W        W46456   5.360  12.391   3.846  0.0718 -0.2069  0.0247
29609W        W46457  14.851  11.846   4.230 -0.1070 -0.2301 -0.1619
29610W        W46458  10.870   3.065   5.375  0.3436  0.1380 -0.0984
29611W        W46459   2.797  10.699   2.808  0.2824  0.1098 -0.4732
29612W        W46460   1.077   0.415  15.966  0.0592  0.3821 -0.1423
29613W        W46461  13.944  15.236   3.755  0.0834 -0.2627 -0.2168
29614W        W46462  11.183   0.600   1.174  0.2019  0.1485  0.1825
29615W        W46463   3.053  16.952  16.519  0.2659 -0.0711  0.0044
29616W        W46464   5.915   8.360   0.224  0.0335  0.0984 -0.0255
29617W        W46465  10.921   0.911   4.090  0.0613 -0.0620 -0.1701
29618W        W46466  15.711   3.966  13.326 -0.2940 -0.0099  0.0381
29619W        W46467  16.851   0.444  15.981 -0.0348 -0.1726  0.1806
29620W        W46468  16.165  15.239  12.715  0.0757 -0.1320  0.1627
29621W        W46469  16.285  14.409  15.714 -0.0908 -0.0187  0.0666
29622W        W46470   0.445   4.133  16.064 -0.1070 -0.1236 -0.4460
29623W        W46471   6.178  13.998   5.086 -0.2196 -0.1617 -0.2679
29624W        W46472  10.693   0.725  15.201 -0.0392 -0.2607 -0.0310
29625W        W46473  13.281   2.393  17.053 -0.0225 -0.3309  0.1298
29626W        W46474  13.973  14.512   0.521  0.3787  0.0077 -0.0658
29627W        W46475   7.755   9.695   5.578  0.0713 -0.0957 -0.0717
29628W        W46476   1.933   7.144  15.619 -0.0582 -0.1958  0.3472
29629W        W46477   5.885   4.525   5.659  0.3042 -0.0124  0.1138
29630W        W46478  10.690   9.283  17.437 -0.1290  0.0856 -0.1519
29631W        W46479  11.622   3.076  15.367  0.0096 -0.2266 -0.3440
29632W        W46480   4.739   1.645  14.180  0.0489  0.0029  0.0236
29633W        W46481  11.019   5.191   2.658  0.0147 -0.1440  0.0892
29634W        W46482   6.847  12.869   1.369 -0.4607  0.0108 -0.1047
29635W        W46483  15.834   0.831   4.851 -0.1442  0.0636  0.0294
29636W        W46484   4.241  14.258   3.189 -0.2243 -0.0628  0.0561
29637W        W46485   9.305   0.831  13.089  0.1064 -0.2691 -0.0460
29638W        W46486  15.342  13.993   2.172  0.1087  0.2119 -0.0530
29639W        W46487  15.739   1.205   1.597  0.1246  0.0055 -0.2216
29640W        W46488   9.154  11.870  14.008  0.0578 -0.0158 -0.2995
29641W        W46489   3.769   9.442  12.437  0.1103 -0.1301  0.2356
29642W        W46490   0.698  10.604  13.963 -0.0622 -0.2898 -0.3278
29643W        W46491  13.725   9.588   3.815 -0.1148 -0.3277 -0.0508
29644W        W46492  13.187   4.260  14.805 -0.0500 -0.0394  0.1106
29645W        W46493   2.365   9.480  12.815  0.0441  0.1717  0.1870
29646W        W46494  12.946   4.673  13.980  0.0732  0.0719 -0.0936
29647W        W46495  11.215   1.997   0.814  0.1797 -0.1830 -0.1121
29648W        W46496  11.939   5.763   2.082  0.2890  0.1516  0.3259
29649W        W46497  10.442  13.579   1.649  0.1909 -0.1301 -0.2812
29650W        W46498   7.939   6.955   4.693 -0.0540  0.1279  0.0463
29651W        W46499   4.931   1.165  13.873 -0.0225 -0.1782 -0.0945
29652W        W46500   4.754   5.145   1.245 -0.0736 -0.2311  0.3177
29653W        W46501   8.204   2.760   2.304 -0.0471  0.1434  0.1556
29654W        W46502   3.330  11.899   5.430  0.1080 -0.1635 -0.0133
29655W        W46503  15.939   7.557   2.432  0.0879  0.1576  0.0259
29656W        W46504   2.068  16.162  12.625  0.0333  0.1315  0.0963
29657W        W46505   6.562   2.946  16.179 -0.1610 -0.2471  0.1655
29658W        W46506   4.292   7.821  14.946 -0.0351  0.0326  0.1304
29659W        W46507   2.781  13.442   2.891 -0.1005  0.2642  0.0369
29660W        W46508  10.292  14.529  13.706  0.0027 -0.0027 -0.0028
29661W        W46509   2.696   1.398  11.483  0.0574  0.1382  0.1210
29662W        W46510   5.340   2.722  17.147  0.0542  0.0274  0.1256
29663W        W46511  10.726   6.852   5.454 -0.1906  0.0660 -0.0563
29664W        W46512   2.531   8.224  16.527  0.0466  0.3749 -0.3676
29665W        W46513  10.640   4.044   4.203 -0.0756 -0.0791  0.2462
29666W        W46514  16.695  15.412   1.728 -0.1668  0.1407 -0.4193
29667W        W46515   1.467   8.429  12.595  0.1165 -0.2444  0.2688
29668W        W46516  13.465   4.767   5.552 -0.0454 -0.1202  0.3399
29669W        W46517  12.651   0.506   1.917 -0.1060  0.0192 -0.0524
29670W        W46518  12.172  16.712   5.058  0.0044  0.0531  0.2531
29671W        W46519  10.019   2.262   2.497  0.4162 -0.0669  0.0629
29672W        W46520  12.834  16.060   1.332  0.1479  0.0074 -0.2108
29673W        W46521   1.562   3.462  13.240 -0.1486 -0.0022  0.2462
29674W        W46522   5.974   2.074   5.184 -0.2665  0.0545 -0.0551
29675W        W46523   8.717   3.748  13.963  0.1214 -0.1308 -0.2744
29676W        W46524  14.407   3.868   5.506 -0.1848  0.3831  0.0505
29677W        W46525  15.201   9.888   1.841 -0.1381 -0.1493  0.0143
29678W        W46526   8.017   3.123  13.473 -0.0027  0.0567  0.0325
29679W        W46527  15.193  16.817   3.249 -0.1056  0.1814  0.6933
29680W        W46528  11.230   3.898   1.870 -0.4262 -0.2394 -0.0238
29681W        W46529  11.395  13.354  12.887 -0.2462 -0.0722 -0.1558
29682W        W46530  14.478  16.628  13.394  0.0100  0.2172 -0.1852
29683W        W46531  13.876  16.839   4.548  0.0561 -0.2649  0.3573
29684W        W46532   5.268   6.138   4.548 -0.2383  0.4442  0.2210
29685W        W46533   3.575  10.300   4.772 -0.1447 -0.1319 -0.1436
29686W        W46534  11.169   3.664  12.538 -0.2351 -0.0098  0.1155
29687W        W46535  13.986  11.166   1.240  0.2806 -0.0467  0.1979
29688W        W46536   8.520  15.138  15.095 -0.1748 -0.2028  0.1007
29689W        W46537   1.977  12.622   0.884 -0.1359  0.0266  0.0356
29690W        W46538   4.178   0.557  17.522  0.1055 -0.2027  0.0642
29691W        W46539  14.442  16.120  13.302 -0.1501 -0.0577 -0.1200
29692W        W46540   2.309   3.098   4.034 -0.2037  0.0325 -0.3566
29693W        W46541   4.428  12.740   5.435 -0.2803  0.1880  0.1564
29694W        W46542   9.756  13.075  16.959 -0.0550  0.2964  0.4292
29695W        W46543   7.946  12.692  14.140 -0.4140  0.0073 -0.2921
29696W        W46544   1.758  17.011  14.730  0.0935  0.1473  0.0668
29697W        W46545  11.089   2.766   4.174 -0.0587  0.2083  0.3927
29698W        W46546  14.885   5.935   0.475 -0.2084  0.3225 -0.2502
29699W        W46547  15.257   2.308  16.790  0.0944  0.2012  0.0230
29700W        W46548   3.793  12.371   0.076  0.2673  0.0524  0.0960
29701W        W46549   8.698   2.586  17.782  0.0435  0.0092  0.0838
29702W        W46550   1.685  12.291   1.609 -0.1146 -0.1736 -0.1663
29703W        W46551   1.398   3.204   5.242  0.1697  0.2183  0.1890
29704W        W46552   5.241  14.503   5.667  0.1275 -0.2431  0.1453
29705W        W46553  11.789   6.501  16.274  0.1380 -0.0111  0.0591
29706W        W46554   0.637   7.344  17.585  0.0194  0.2718 -0.0046
29707W        W46555   4.073  13.549   2.586 -0.2420  0.1135  0.2654
29708W        W46556  14.880   2.276   2.295 -0.0263  0.2284  0.1490
29709W        W46557   8.498  16.114   5.160 -0.2013 -0.2579 -0.4491
29710W        W46558   0.788  12.508   3.487 -0.0386 -0.0004 -0.2251
29711W        W46559   9.295   4.668   3.154  0.1157  0.2339  0.3415
29712W        W46560   8.689   0.716  12.599  0.1249 -0.0943 -0.2784
29713W        W46561  12.857   5.852   1.794  0.1010  0.1464  0.2287
29714W        W46562  10.701  13.541   1.178 -0.0897  0.0064  0.1107
29715W        W46563   8.682   7.422   4.517  0.0053  0.1536  0.0679
29716W        W46564  15.733  12.477   0.088 -0.1074 -0.1428  0.1063
29717W        W46565   2.371   7.393  14.236  0.1412 -0.2789  0.0749
29718W        W46566   4.702   1.988   1.245 -0.0831  0.1841  0.0335
29719W        W46567  15.482  16.982   2.021  0.1586 -0.1480  0.0099
29720W        W46568   0.842   2.742  12.759 -0.1967 -0.0821  0.0738
29721W        W46569   8.380  10.772  13.728  0.2582  0.0993  0.2326
29722W        W46570   6.969  13.569  14.474  0.0634  0.1659  0.4032
29723W        W46571   2.284   4.079  15.377 -0.0207  0.0564 -0.0268
29724W        W46572  15.138   9.135   0.606 -0.2163 -0.1689 -0.0419
29725W        W46573   2.501   4.959  13.077  0.2329  0.2957  0.0150
29726W        W46574   7.688  16.649  15.283  0.1667 -0.2872 -0.0263
29727W        W46575  11.521   0.698   1.737  0.3024  0.3865  0.2450
29728W        W46576  16.471   9.371   0.504 -0.0940 -0.0254 -0.2712
29729W        W46577  15.435   8.053  13.586  0.0360  0.3178 -0.1136
29730W        W46578   9.622  10.802   4.983  0.0644  0.2685  0.1611
29731W        W46579   8.018  12.118  17.384  0.1429 -0.6127 -0.2865
29732W        W46580  17.062  11.097  13.261  0.0728  0.1465  0.2318
29733W        W46581   1.258   6.690  16.460 -0.2658 -0.0378  0.0352
29734W        W46582  13.788   1.998  14.623  0.1075 -0.0575  0.3216
29735W        W46583   7.899   6.375  15.743 -0.1216  0.0035  0.1412
29736W        W46584   5.035   8.547  12.733 -0.1669 -0.0242 -0.1577
29737W        W46585   8.015  10.211  14.688  0.1824 -0.3026  0.0808
29738W        W46586  13.839  15.230  12.301  0.0435  0.0969  0.0012
29739W        W46587   9.876   4.166  16.474 -0.0997 -0.0586  0.1448
29740W        W46588   2.406   2.773   6.061 -0.2420  0.0340 -0.1574
29741W        W46589  11.935  11.537   4.252 -0.1058 -0.0897 -0.1154
29742W        W46590  16.348  15.173   0.451  0.2554  0.0615  0.2301
29743W        W46591   7.612  15.240   5.260  0.0222 -0.1601 -0.0348
29744W        W46592   6.802   8.376  17.715 -0.2122  0.2265  0.0097
29745W        W46593  12.003   7.517   0.411 -0.0061 -0.0002  0.1553
29746W        W46594   9.759   6.721  14.941 -0.0707 -0.3015  0.1726
29747W        W46595   9.569  15.601   6.363 -0.1291  0.3122  0.1577
29748W        W46596  11.562   8.506  15.283  0.0837  0.0789  0.4112
29749W        W46597   9.839  13.107  16.095 -0.1634  0.0553 -0.2882
29750W        W46598   7.013  11.359  15.311  0.0258 -0.1144 -0.1976
29751W        W46599  16.470   4.632   2.936  0.0995 -0.1056  0.0978
29752W        W46600   6.589   5.915  15.187 -0.2119 -0.1691  0.0520
29753W        W46601   2.542   7.894   4.188 -0.1756 -0.1009  0.1759
29754W        W46602  12.277   6.970  15.228  0.0734  0.2163  0.2673
29755W        W46603   7.038   8.819  14.431 -0.1930 -0.0093 -0.3551
29756W        W46604  10.894   9.381   3.265  0.0834 -0.0471 -0.0744
29757W        W46605  14.061  15.626  17.685 -0.1538 -0.2960  0.0537
29758W        W46606  10.473   3.371  16.685 -0.0208 -0.2583  0.2051
29759W        W46607  11.157   5.699  17.191  0.0214 -0.2643  0.4754
29760W        W46608   5.412   3.697   6.215  0.2139 -0.3225  0.0604
29761W        W46609   1.265   1.159  12.990  0.2017  0.1943 -0.2338
29762W        W46610  16.847  10.331   1.011 -0.1058  0.1020  0.1479
29763W        W46611   4.069  10.192   5.514  0.3526  0.2867  0.1008
29764W        W46612  15.110   3.048   4.206  0.2294 -0.0942  0.1456
29765W        W46613   6.896  11.176   5.960  0.4030  0.0364 -0.3313
29766W        W46614   5.068  15.972   3.211 -0.1173 -0.1196 -0.1428
29767W        W46615   4.139   1.460   1.516  0.1034  0.1168 -0.0704
29768W        W46616  13.903  10.277  15.355 -0.1544  0.1176 -0.1397
29769W        W46617   0.269   0.462   2.275 -0.0061 -0.0163  0.1052
29770W        W46618  16.679  13.997   2.652  0.0983  0.0739 -0.0531
29771W        W46619   9.038   9.840   0.841 -0.0812 -0.0158  0.2371
29772W        W46620  14.331   0.027   5.415  0.1153  0.0933  0.1173
29773W        W46621   2.577  12.021  15.494  0.2594 -0.0372  0.2855
29774W        W46622  12.576   5.507   4.688 -0.1672  0.0095  0.0597
29775W        W46623   2.770   1.717   2.471  0.1328 -0.1191  0.4084
29776W        W46624  13.178   4.726   0.979 -0.2820 -0.0471 -0.1629
29777W        W46625  12.789   8.761   3.028  0.0057 -0.2505  0.1158
29778W        W46626   1.248   0.227   5.313 -0.3455  0.0558 -0.2068
29779W        W46627  10.427   0.854   0.361 -0.0034  0.0507 -0.1068
29780W        W46628  16.630  13.090  16.567  0.1367 -0.0411  0.0276
29781W        W46629  12.799   9.799  15.175  0.1650 -0.3042  0.0551
29782W        W46630   4.348   8.251  15.756 -0.0425  0.2469  0.1545
29783W        W46631   4.171   5.587  15.956  0.2463 -0.1575  0.1366
29784W        W46632  15.278   2.695   5.543  0.1067 -0.0522 -0.1233
29785W        W46633   2.167   9.524   2.302  0.1197 -0.0692  0.3105
29786W        W46634  13.258  12.692  17.694 -0.3568  0.0464  0.0365
29787W        W46635  11.936   8.393   2.884 -0.0580 -0.2087  0.1711
29788W        W46636   1.339   7.450  12.689  0.0541  0.0620 -0.0433
29789W        W46637  15.437  13.087   2.928 -0.4651 -0.2324 -0.0365
29790W        W46638   7.677  16.352   1.651 -0.2965  0.1089  0.0764
29791W        W46639  10.636  16.013  13.629  0.0467  0.2719 -0.1263
29792W        W46640   5.008  12.345  13.160  0.3390  0.3226  0.0022
29793W        W46641   2.328  16.168   4.541 -0.3337 -0.2285 -0.0255
29794W        W46642   5.320   9.042   5.460  0.0831 -0.2370  0.0013
29795W        W46643   8.209  13.083   4.961  0.1485 -0.0661  0.1378
29796W        W46644  11.043  11.167  12.448  0.1279 -0.0148  0.1430
29797W        W46645   8.788  13.851   2.490  0.2888 -0.0166  0.2081
29798W        W46646   5.911   5.556  17.467  0.0729  0.2428 -0.0794
29799W        W46647  10.932   7.964  17.390 -0.0663 -0.2020  0.1691
29800W        W46648   1.575   8.958   2.172  0.2153  0.1759 -0.0478
29801W        W46649   1.813   2.143   4.646  0.1051 -0.2384 -0.0032
29802W        W46650   5.172  16.867   1.106  0.1451 -0.0108  0.1803
29803W        W46651  13.340   7.367  13.114  0.1747 -0.0731 -0.1276
29804W        W46652  10.310   2.624  16.629  0.0331 -0.0189  0.2044
29805W        W46653   6.509   4.079   6.224  0.0663  0.1013  0.1268
29806W        W46654  15.418  13.653  16.405  0.2588 -0.1771  0.1064
29807W        W46655  14.017   9.904   1.572 -0.1408  0.3009 -0.1007
29808W        W46656  15.626  13.587   2.961  0.2911  0.1657 -0.1911
29809W        W46657  12.082   0.823   5.460  0.1455  0.0764 -0.2816
29810W        W46658   2.973   7.369   3.524  0.1275 -0.0369  0.0068
29811W        W46659  13.714   8.249   4.916  0.0321  0.0543  0.0273
29812W        W46660  14.227  10.174   5.496 -0.0941 -0.1637 -0.0849
29813W        W46661  14.228  10.493  17.301  0.1492 -0.2511 -0.1429
29814W        W46662   8.921  15.146  13.603  0.0153 -0.0165 -0.2482
29815W        W46663   4.684   2.634  14.025  0.1329  0.0202  0.3611
29816W        W46664   7.273   3.549   3.854  0.0126 -0.3660 -0.2452
29817W        W46665   7.901  15.907   0.657  0.1519  0.0889  0.2491
29818W        W46666  11.348  13.530  12.399 -0.3268  0.2138  0.0012
29819W        W46667  10.195   1.399   5.265  0.0576 -0.1623  0.1699
29820W        W46668   3.591  12.818   0.047  0.1999 -0.1129  0.0618
29821W        W46669  14.868   2.954   1.636 -0.1859 -0.1581  0.1909
29822W        W46670   1.133   0.798   0.580 -0.0857 -0.1478 -0.0161
29823W        W46671  11.151  12.432  12.488 -0.1140  0.0281 -0.1801
29824W        W46672   3.496   6.180   2.820  0.2585 -0.1096  0.2107
29825W        W46673   3.192   2.180   3.892 -0.1175 -0.0282  0.0690
29826W        W46674  11.081   7.025  15.255 -0.1595 -0.3234  0.2745
29827W        W46675   3.706   1.446   1.175  0.0292 -0.0817  0.0366
29828W        W46676  11.036  12.923  16.883 -0.1415 -0.0005 -0.2198
29829W        W46677   2.078   2.546  14.730  0.1003 -0.0795  0.0604
29830W        W46678   2.240  11.680  13.276  0.0684 -0.1070  0.0727
29831W        W46679   8.648   6.072   0.647  0.0510  0.1590  0.0284
29832W        W46680   1.105   5.759  13.690  0.1201 -0.0518 -0.1797
29833W        W46681  12.531   6.096  12.669 -0.1127  0.1344 -0.0996
29834W        W46682  10.994  15.819   4.601 -0.2331  0.1873 -0.2028
29835W        W46683   6.222  11.489  13.348  0.1274 -0.0925  0.0601
29836W        W46684   3.569   5.578   2.045  0.0726  0.0289  0.0695
29837W        W46685  12.329  13.393  14.406 -0.0558  0.1777  0.0880
29838W        W46686  10.475   1.969   1.874 -0.0451 -0.1805 -0.1806
29839W        W46687   4.450  14.659   4.072  0.0415 -0.1827  0.1691
29840W        W46688   1.479   0.753  13.889 -0.1435 -0.0001  0.0981
29841W        W46689  13.616   4.027   4.556 -0.3735 -0.3961 -0.0946
29842W        W46690  12.376   3.807  17.624 -0.2928 -0.2296 -0.0461
29843W        W46691  14.379  10.268   0.227  0.0003 -0.0336  0.1054
29844W        W46692   7.784   3.677   1.379 -0.1062  0.1842 -0.0059
29845W        W46693  15.439   4.242  15.086 -0.1358  0.3103 -0.1759
29846W        W46694  10.773  11.888   0.967  0.0252  0.2079 -0.1956
29847W        W46695   9.386  13.791   5.342 -0.0597 -0.0335  0.2574
29848W        W46696  16.707  11.743  16.986  0.0814 -0.0699  0.0894
29849W        W46697   8.841   8.631   5.445  0.1742  0.0402 -0.2728
29850W        W46698   2.460   5.724  11.876  0.1663 -0.3261 -0.1630
29851W        W46699   4.216   7.822   3.259  0.0300  0.0884 -0.4202
29852W        W46700   8.476   3.418   4.078 -0.1136  0.3073  0.0034
29853W        W46701   7.528  13.993  16.724  0.1509  0.1224 -0.1474
29854W        W46702   1.871  13.473   4.798 -0.0918  0.2263 -0.2333
29855W        W46703  15.753  15.098  15.328  0.1027  0.0007  0.2336
29856W        W46704   5.243  16.783  17.725 -0.0189  0.1028  0.1402
29857W        W46705  16.437   7.164  14.538  0.0477 -0.0800 -0.2552
29858W        W46706   6.384   8.816   3.722 -0.3388 -0.1450 -0.1384
29859W        W46707  14.754   0.096  13.958 -0.1785  0.1684  0.3293
29860W        W46708   7.963   6.189   3.386 -0.0112 -0.1265  0.0078
29861W        W46709   7.011  12.656   0.477 -0.1759 -0.3790 -0.1952
29862W        W46710   1.911  12.431  16.409 -0.0837  0.1609  0.1601
29863W        W46711   3.261   4.671  15.498 -0.2367 -0.1496  0.0586
29864W        W46712   0.679   0.171  15.734  0.3247  0.3105 -0.2915
29865W        W46713   8.586  15.222  14.484 -0.2152 -0.0228  0.0921
29866W        W46714   2.320   0.388   4.566 -0.1695  0.1958 -0.2733
29867W        W46715   1.231   8.831  14.405  0.1333  0.1674  0.0180
29868W        W46716  11.788   5.498   4.208 -0.1792 -0.1142  0.0954
29869W        W46717  12.887   2.279   4.293  0.0437  0.0986 -0.1052
29870W        W46718   9.882   9.699  13.086 -0.2326  0.0227 -0.2609
29871W        W46719  11.476  13.096  17.287  0.1586 -0.1536 -0.0228
29872W        W46720  13.193   1.416  17.495  0.2966 -0.1949  0.0788
29873W        W46721  14.123  12.196   3.593  0.0340  0.0384 -0.2713
29874W        W46722   0.309  15.199  15.295 -0.0931  0.2381  0.2680
29875W        W46723   1.629   7.170  17.736  0.0846 -0.0490  0.0009
29876W        W46724   8.083   1.153   1.867  0.0382  0.0583  0.1515
29877W        W46725   2.714   8.250  14.103 -0.0679 -0.0815  0.0527
29878W        W46726  16.093  10.365   5.559 -0.0761 -0.0581 -0.4259
29879W        W46727  10.798   2.038  17.785  0.1067  0.2684 -0.1015
29880W        W46728   6.860  10.412  15.329 -0.0416  0.0227  0.0987
29881W        W46729   6.372   4.994  14.946  0.0275 -0.1330 -0.0154
29882W        W46730   5.286   3.304  17.139  0.0036  0.1372 -0.1135
29883W        W46731  11.146   7.981   4.881  0.0524 -0.0999  0.1748
29884W        W46732  15.984   0.634   2.443 -0.0569 -0.1739 -0.2602
29885W        W46733   3.705   2.594  15.043 -0.0905 -0.1440  0.1431
29886W        W46734   6.083   6.902   1.348 -0.0696 -0.2519 -0.0158
29887W        W46735   3.888   0.683   0.775 -0.2493  0.1244 -0.0842
29888W        W46736   3.199   6.322  13.587  0.2079 -0.1355 -0.0176
29889W        W46737  15.723  14.059   1.098  0.0461  0.1471  0.0396
29890W        W46738  13.053   8.671  17.041 -0.1004  0.1158  0.2557
29891W        W46739   7.354  13.644   4.139  0.0356  0.3861 -0.0238
29892W        W46740  16.552   6.925   2.616 -0.0359 -0.0447  0.2134
29893W        W46741   6.664   3.888  13.429 -0.0016 -0.2327  0.1768
29894W        W46742   2.255   5.585  14.179 -0.0018  0.1465 -0.0044
29895W        W46743   0.195  13.988  17.466 -0.0454  0.2349 -0.2109
29896W        W46744  13.678   7.294  12.757  0.0561 -0.0431 -0.1078
29897W        W46745  16.803   8.267   1.225 -0.0098  0.0070  0.3050
29898W        W46746   2.389   8.694  13.625 -0.0120  0.2065  0.3763
29899W        W46747   5.498   1.071  12.757 -0.0130 -0.1356  0.0002
29900W        W46748   7.371   9.473   4.486  0.0113  0.2489  0.1166
29901W        W46749  10.372   6.536   0.521  0.1396 -0.2667  0.2219
29902W        W46750   0.341   6.368  13.756 -0.0845  0.1230 -0.1077
29903W        W46751   8.188  16.679  13.919 -0.1851  0.0726  0.3337
29904W        W46752   1.545   6.460  13.645  0.1605 -0.0873 -0.1493
29905W        W46753   9.030   8.302  16.257 -0.1984  0.1553  0.0596
29906W        W46754  11.588   8.424   4.054  0.1780  0.1788  0.0031
29907W        W46755  17.014   0.562   3.320  0.2183 -0.0283  0.2180
29908W        W46756   6.571  16.838  12.378 -0.0163 -0.1393 -0.1896
29909W        W46757   6.819   4.523  14.282  0.1994 -0.0150 -0.0606
29910W        W46758   5.232  13.800  12.322 -0.0209  0.1517 -0.3200
29911W        W46759   6.006   6.663  13.409  0.0124  0.1875 -0.0551
29912W        W46760   1.793   5.654   2.297 -0.1341  0.0019  0.2464
29913W        W46761  15.175   7.957   2.785  0.0512 -0.0327  0.0732
29914W        W46762   4.738  14.199  11.552  0.0919 -0.0274 -0.0326
29915W        W46763   0.789   4.845   2.219  0.0345 -0.3342 -0.1306
29916W        W46764   0.642  16.474   0.625  0.0083 -0.2159  0.3373
29917W        W46765   2.275   1.509  12.492 -0.0459  0.2439 -0.2228
29918W        W46766  15.069   2.363  13.658  0.0793  0.1492  0.3770
29919W        W46767  13.375   0.771   4.098 -0.1530  0.0562  0.1495
29920W        W46768   2.367  13.853   2.009  0.2076 -0.2850 -0.0130
29921W        W46769  15.994  12.635   1.290 -0.0876  0.2629  0.2116
29922W        W46770   7.786   9.933  12.858  0.0680  0.0014  0.2340
29923W        W46771  10.914   9.803   5.109  0.1172 -0.1872  0.2164
29924W        W46772   3.684   1.983   5.687 -0.1491  0.3036  0.2910
29925W        W46773   8.544  15.442  15.856 -0.1240  0.0879  0.0681
29926W        W46774  13.122  14.430  14.330 -0.1404  0.1385 -0.1143
29927W        W46775  16.953  11.084  11.427  0.1442 -0.1739  0.0434
29928W        W46776  13.297  14.185   1.960 -0.0523 -0.0905 -0.0294
29929W        W46777  16.954   6.551  16.542  0.2062  0.0508  0.1042
29930W        W46778  15.486   1.572  14.762 -0.1140 -0.2554 -0.1081
29931W        W46779   1.977  15.935   5.048  0.1815 -0.3433 -0.0640
29932W        W46780  10.680   2.573  16.332 -0.2821  0.0502  0.3077
29933W        W46781  10.061  11.624   5.443 -0.2035  0.4082  0.4283
29934W        W46782   4.966   9.912   0.036 -0.0530 -0.1694 -0.0357
29935W        W46783   8.010  14.513   3.226  0.0483 -0.1150  0.0727
29936W        W46784   7.524  14.773   5.488 -0.0660  0.2337 -0.0195
29937W        W46785   8.327  16.024   6.109  0.2652 -0.1799  0.2741
29938W        W46786   2.838   2.450   0.275 -0.0210 -0.1329  0.0828
29939W        W46787   5.303   1.520  13.943 -0.1967 -0.1252  0.1345
29940W        W46788   7.186  14.692   0.225 -0.2948  0.0612  0.0470
29941W        W46789   4.172   7.528  16.255  0.1664  0.0387 -0.2878
29942W        W46790  12.440   9.715   0.366  0.0088  0.1294 -0.0882
29943W        W46791   4.935   0.240   0.919  0.4130  0.0432 -0.2917
29944W        W46792  16.061  10.950   6.875 -0.1047 -0.1093  0.2045
29945W        W46793   0.971   9.382  16.978  0.0431 -0.1474 -0.1785
29946W        W46794  13.123  10.114   1.430 -0.1124  0.0800 -0.0276
29947W        W46795  15.562  13.208  16.832  0.1480 -0.0557  0.0204
29948W        W46796   0.010   0.669  14.542 -0.0156  0.1463 -0.0320
29949W        W46797   9.959   5.445   1.625  0.0763 -0.1142  0.1522
29950W        W46798   9.108   5.092  15.611  0.0359 -0.2204 -0.1897
29951W        W46799   8.838   2.057   3.082  0.0458 -0.1862  0.2288
29952W        W46800  12.214  11.257   4.685  0.1698 -0.0091  0.1493
29953W        W46801  14.234  10.403  16.284 -0.3271 -0.4379  0.2106
29954W        W46802  12.840  12.570   2.169  0.0889  0.1376 -0.2593
29955W        W46803   7.470  16.399   3.429 -0.0319 -0.1641  0.2353
29956W        W46804   9.934   4.658   1.024  0.0779 -0.0131  0.1466
29957W        W46805   2.338   7.215  14.682  0.0065  0.0466  0.1977
29958W        W46806   6.572   2.214   3.159 -0.2254 -0.1388  0.0371
29959W        W46807  11.354  10.914   4.748  0.2093  0.0674 -0.1082
29960W        W46808   7.078   9.759  15.167 -0.0545 -0.0610  0.1485
29961W        W46809   4.160   2.912  16.509  0.0035  0.0915  0.1794
29962W        W46810  13.610  12.671   2.602 -0.0649  0.0433  0.1976
29963W        W46811   2.111   4.868  11.689  0.2783 -0.2401 -0.0903
29964W        W46812   5.071   2.514   2.551  0.0791  0.1620 -0.0031
29965W        W46813   0.970   7.731   5.748  0.0206 -0.2956 -0.1147
29966W        W46814   8.917   4.870   2.858 -0.0524  0.0682  0.1719
29967W        W46815   8.394  11.179   3.042 -0.0316  0.0377  0.0552
29968W        W46816   2.982  13.263  16.084 -0.1736 -0.3184  0.2685
29969W        W46817   3.493   3.493  14.959  0.0031  0.2136 -0.2392
29970W        W46818   8.614  16.587   1.738  0.3308  0.0372 -0.0565
29971W        W46819  11.833  14.881  14.296 -0.0767  0.0848  0.0270
29972W        W46820   9.512  13.817   4.017  0.0286  0.3539  0.1745
29973W        W46821   3.787  15.154  16.611  0.0626 -0.0935  0.0217
29974W        W46822   6.440   1.071  16.312 -0.1887 -0.0285 -0.0560
29975W        W46823   2.137   7.875   3.808  0.1130 -0.1305 -0.0673
29976W        W46824   8.893  12.899  13.009  0.2535  0.4169 -0.2182
29977W        W46825  10.497  13.450  16.366  0.0627  0.1668  0.0734
29978W        W46826  12.134   4.569   4.385 -0.1835 -0.0021  0.0050
29979W        W46827  10.438  14.461  16.293  0.1970  0.1028 -0.1763
29980W        W46828   7.672   7.406  12.677  0.0953 -0.0990  0.2413
29981W        W46829  12.624   2.729  12.505 -0.1067 -0.0903 -0.0148
29982W        W46830   6.339  10.922   4.122  0.1384  0.0807 -0.0428
29983W        W46831  16.428   0.718   5.553  0.0729  0.1387 -0.0786
29984W        W46832   5.156   6.481   5.041 -0.0238 -0.4277 -0.0392
29985W        W46833   1.342   7.180  15.684  0.0558 -0.3993 -0.2618
29986W        W46834   9.587  13.739  16.105 -0.1013  0.1032 -0.2539
29987W        W46835   8.427   8.460  16.344 -0.6037 -0.0619  0.3297
29988W        W46836  16.806   1.208   5.755  0.1449 -0.0729  0.0602
29989W        W46837  12.509   2.652  16.481 -0.1276 -0.1658  0.3364
29990W        W46838  15.334   6.109   4.953 -0.2867 -0.1226  0.2693
29991W        W46839   5.065   5.660   0.158 -0.0929  0.0157  0.1674
29992W        W46840   7.571  12.440   3.528  0.1748 -0.0511 -0.2397
29993W        W46841   1.103  15.824  16.511 -0.1154 -0.1078  0.1432
29994W        W46842  10.447  10.639   3.922  0.4392 -0.1884  0.1451
29995W        W46843  16.382  15.060   2.476 -0.0310 -0.1856  0.1915
29996W        W46844  15.505  10.069  14.396 -0.1567 -0.1106 -0.0261
29997W        W46845   0.848   5.572  16.727 -0.1955 -0.2178 -0.0681
29998W        W46846   9.687   5.429   1.212 -0.1064  0.1028  0.1112
29999W        W46847   8.843   3.150   2.845  0.0934  0.1726  0.0252
30000W        W46848   6.149   8.122  16.662 -0.1271  0.2741  0.1414
30001W        W46849  12.189  10.565   1.049 -0.1160  0.0257 -0.1199
30002W        W46850   6.821   6.529   3.775  0.1045 -0.2596  0.3557
30003W        W46851   0.008   6.026  14.025 -0.0430 -0.4213 -0.3680
30004W        W46852  12.291   0.538  15.509 -0.0166 -0.3241 -0.0865
30005W        W46853  14.347  14.942   3.619  0.1895  0.0628 -0.1156
30006W        W46854  15.167  13.698  12.859  0.1375  0.1582 -0.0569
30007W        W46855   7.488  16.701  14.279 -0.2032 -0.2631 -0.0319
30008W        W46856   5.296  12.606  12.744  0.2714 -0.1857 -0.1718
30009W        W46857   3.383   2.791   1.701 -0.0984  0.1035 -0.1408
30010W        W46858  12.018   2.067  12.008  0.2467  0.0435 -0.1170
30011W        W46859  13.490   8.692  13.906  0.1193  0.1924  0.0237
30012W        W46860   3.584  13.884  12.742 -0.2158 -0.2446  0.1860
30013W        W46861   4.890  13.705   0.810  0.1412 -0.2974  0.0044
30014W        W46862  15.179  12.982  15.905  0.0129  0.2895 -0.3455
30015W        W46863  11.948  11.394  17.786  0.1630 -0.0116 -0.2863
30016W        W46864   5.984  14.180   4.687 -0.1524  0.0555 -0.1896
30017W        W46865   4.678   8.561   0.217 -0.2769 -0.0303  0.0203
30018W        W46866   7.844   1.951   5.516 -0.3743  0.3339  0.0006
30019W        W46867   8.739  10.080  17.422  0.1279 -0.0312  0.0412
30020W        W46868  13.344  15.793   5.939  0.1905  0.0495  0.0557
30021W        W46869   3.823   3.269   2.281 -0.0826  0.1197 -0.0449
30022W        W46870  14.870   6.641   3.034  0.1337 -0.1632 -0.1418
30023W        W46871   7.705  11.322   4.475 -0.2978 -0.2391 -0.0307
30024W        W46872   9.195  16.004   5.415 -0.1407 -0.0627  0.1758
30025W        W46873   3.994  12.332   2.574  0.4899  0.2554  0.0004
30026W        W46874   5.476   6.187   2.669 -0.3276  0.0669 -0.2581
30027W        W46875   4.014  15.917   3.138  0.0464 -0.1576  0.1787
30028W        W46876   2.815   3.224   2.753 -0.3331 -0.0691  0.2239
30029W        W46877   7.157   0.197  17.431 -0.2294  0.4185 -0.1039
30030W        W46878   9.218   5.923   0.650  0.0968 -0.3223 -0.1081
30031W        W46879   9.068  13.196  16.353  0.0501 -0.1221 -0.1865
30032W        W46880  10.380   5.800   2.449 -0.0332  0.2041  0.1705
30033W        W46881   4.564  11.608   5.042 -0.1697  0.2231  0.1586
30034W        W46882  10.353   4.164   4.792 -0.2439  0.0488  0.0067
30035W        W46883   1.737   0.973   5.126 -0.0163 -0.0846  0.1665
30036W        W46884   1.614  12.029  16.086 -0.2321 -0.2062  0.1840
30037W        W46885   8.723  15.974   2.897 -0.3363 -0.1626 -0.2556
30038W        W46886   5.652  14.028   5.065  0.0862 -0.0976  0.0011
30039W        W46887  14.008  12.289   0.352  0.0636  0.0218 -0.1508
30040W        W46888   9.893  11.042   1.379 -0.1946 -0.2324  0.3566
30041W        W46889  10.462  11.600  14.908  0.0475  0.0992 -0.0392
30042W        W46890   5.155   2.388  13.329  0.1062  0.1474  0.1115
30043W        W46891   2.827   1.205  12.179  0.1761  0.0801 -0.1043
30044W        W46892  16.093   2.568  13.462  0.0176 -0.0464 -0.2033
30045W        W46893  12.905  11.732  15.058  0.1604  0.0047 -0.0140
30046W        W46894  15.829   0.776  14.841 -0.2653 -0.1746  0.0499
30047W        W46895   4.222  13.997  14.217  0.1963  0.0034 -0.3655
30048W        W46896   0.505  10.218   4.722  0.2839  0.0557 -0.2232
30049W        W46897   9.924   1.024   5.005 -0.0361  0.2208 -0.1511
30050W        W46898   9.314   5.751  12.505  0.0608 -0.0455 -0.0258
30051W        W46899   0.897   7.467  16.624 -0.0418 -0.1003  0.1709
30052W        W46900  10.171   0.615  16.092 -0.0192 -0.1155  0.1210
30053W        W46901  15.814   3.268   3.507  0.1556  0.1341  0.1525
30054W        W46902   0.639   9.499   4.033  0.1356  0.0198 -0.0051
30055W        W46903   6.219   0.623  15.459 -0.1593 -0.1168 -0.0552
30056W        W46904   9.557  14.599  14.400  0.2349 -0.0316  0.1067
30057W        W46905  16.207   0.666   3.597 -0.0249 -0.1589 -0.2722
30058W        W46906   8.203   3.987  15.432 -0.3129 -0.1699 -0.1041
30059W        W46907  14.885   4.556  14.409 -0.2197  0.0534  0.0795
30060W        W46908   4.215   2.642  17.646 -0.4302 -0.4061  0.1671
30061W        W46909   2.102   1.952   1.394 -0.2978  0.2519 -0.1392
30062W        W46910  10.359  15.688   4.709  0.2397  0.2784 -0.1337
30063W        W46911   3.029  16.921  17.531 -0.0347  0.0931 -0.1110
30064W        W46912   5.312   8.475   2.409 -0.0299  0.1183 -0.0249
30065W        W46913   4.052   5.555   1.948 -0.2764  0.0204 -0.0052
30066W        W46914  16.825   1.617  14.191  0.0299 -0.0033  0.2461
30067W        W46915   6.197  15.168  11.749  0.3382 -0.1207  0.2246
30068W        W46916   8.756   5.113  16.082  0.2510 -0.5104  0.0762
30069W        W46917   3.257   0.583   2.324 -0.4080  0.0729 -0.1460
30070W        W46918  12.449  13.059  12.532 -0.2335  0.0525  0.1168
30071W        W46919   0.005  16.257  16.329  0.2624 -0.0892  0.1692
30072W        W46920  10.913   8.309  14.403  0.0562  0.0914 -0.0326
30073W        W46921   1.995   5.895  15.892 -0.0643 -0.1103  0.0523
30074W        W46922   1.241   2.639  17.395 -0.0966 -0.2953 -0.0744
30075W        W46923  16.705  11.586  13.609 -0.1249 -0.0779  0.1624
30076W        W46924   6.336  15.161  17.038 -0.2004  0.1659  0.1649
30077W        W46925   0.997   5.793   4.750  0.1496  0.0755  0.1074
30078W        W46926   6.409  14.865  15.238  0.0172 -0.1342 -0.1783
30079W        W46927  12.536   2.848   1.760  0.0142 -0.0009 -0.1345
30080W        W46928   7.855  15.345  12.924 -0.0783 -0.0193 -0.0415
30081W        W46929  14.215   9.922   3.865 -0.1949 -0.3469  0.3999
30082W        W46930  10.853   0.857  14.706  0.0526 -0.1674  0.0041
30083W        W46931  11.363  14.203  15.712 -0.0844  0.1482 -0.0805
30084W        W46932   3.829   7.163  12.822 -0.0309  0.0634 -0.4952
30085W        W46933  12.282  14.158   3.564  0.1210  0.0587  0.0722
30086W        W46934  12.095   8.668  15.476 -0.0702  0.1757  0.1650
30087W        W46935   3.245  11.982  12.291 -0.0856  0.0642 -0.1355
30088W        W46936   4.196   8.510  17.165 -0.1639 -0.1963 -0.1910
30089W        W46937  12.893   2.651  16.098 -0.1497  0.0676  0.0564
30090W        W46938   4.311   6.007  15.773  0.2634  0.1979 -0.1534
30091W        W46939   2.896  12.330  13.037 -0.1806  0.2472  0.0115
30092W        W46940   2.488   3.307  16.328 -0.1693  0.0985 -0.0838
30093W        W46941   2.698   5.282   6.092  0.0520  0.2224  0.0033
30094W        W46942  15.918  11.361   2.155  0.2232 -0.0910 -0.1245
30095W        W46943   3.361   0.841  14.125  0.1362  0.2144 -0.0113
30096W        W46944  16.873  13.321  17.750  0.0605  0.1643 -0.0173
30097W        W46945  13.536  10.538  13.455  0.0500  0.2618  0.0409
30098W        W46946  15.024  13.444  15.995  0.3152 -0.0758 -0.4016
30099W        W46947   9.759  16.827   3.813  0.3337 -0.0318 -0.0259
30100W        W46948  10.751  11.736   2.832 -0.1907  0.2323  0.0919
30101W        W46949   9.542   0.539   3.716 -0.0924 -0.1859 -0.2496
30102W        W46950   0.724   9.867  16.621 -0.0757  0.2231 -0.3444
30103W        W46951   1.107  14.775  15.024  0.1957 -0.0003 -0.0647
30104W        W46952   5.148   5.629  17.307 -0.0156  0.2107  0.0296
30105W        W46953  13.324   7.841   4.338  0.1294  0.0026 -0.0797
30106W        W46954   2.189   6.589  17.447 -0.0551 -0.0488 -0.0845
30107W        W46955  16.884   6.990  14.311  0.1159 -0.1336  0.2391
30108W        W46956  16.713   1.263   1.270  0.0097  0.0398 -0.0188
30109W        W46957   9.718  11.626  13.231  0.2349  0.0146  0.0505
30110W        W46958   5.580   5.080  14.297  0.0279  0.2437 -0.0558
30111W        W46959   4.986  10.970   5.245 -0.0409  0.1076  0.0004
30112W        W46960  15.185   5.736  13.653 -0.1093  0.1796 -0.0048
30113W        W46961  13.214   5.193   1.270 -0.1035  0.1647  0.0649
30114W        W46962   5.778   5.660   0.798 -0.1176  0.0453  0.1996
30115W        W46963  16.014  11.933  16.933  0.1252 -0.0756 -0.0750
30116W        W46964  11.085  15.184  13.818  0.0568  0.0795 -0.1195
30117W        W46965   0.498  17.016  12.640  0.1095 -0.2993  0.0167
30118W        W46966   3.428  12.469  12.237  0.0921  0.1163 -0.1928
30119W        W46967   6.064   7.549  17.643  0.1695 -0.2407  0.0587
30120W        W46968  14.027   7.191  12.365 -0.0962 -0.0568 -0.0058
30121W        W46969  16.143  10.652   3.812  0.0476 -0.2293  0.1515
30122W        W46970   7.696  16.686   5.179 -0.0916  0.0744 -0.1448
30123W        W46971   0.104   5.553  15.560  0.1726  0.0261  0.0948
30124W        W46972   6.253  10.968   2.166 -0.0919 -0.2036 -0.1364
30125W        W46973   8.505   7.495  16.640 -0.2035 -0.1463 -0.0628
30126W        W46974   2.264   7.834   3.322  0.0584 -0.0038 -0.2629
30127W        W46975  16.184   5.560   1.404  0.1185 -0.0256  0.0421
30128W        W46976   4.218   2.107  13.353  0.3194 -0.0336 -0.1835
30129W        W46977   4.181  10.782  13.592  0.1885  0.1982 -0.0342
30130W        W46978  15.559   3.024  13.796 -0.2080  0.1281 -0.2695
30131W        W46979   5.366  16.310  13.712 -0.2773  0.0375 -0.2957
30132W        W46980   9.238  12.354   1.693  0.0277 -0.1558  0.1049
30133W        W46981   4.429  10.432  13.256  0.0416 -0.1104  0.2180
30134W        W46982  15.562   2.535  13.568 -0.3461  0.1755  0.2814
30135W        W46983   5.665  11.050  16.008 -0.2016  0.1631 -0.0371
30136W        W46984   5.415  13.806  17.062 -0.2364 -0.1227  0.2124
30137W        W46985   6.399   5.731   2.841 -0.1161 -0.0253 -0.1100
30138W        W46986   2.175   1.305  16.983 -0.0805 -0.2466  0.3297
30139W        W46987  15.377   2.105  17.826  0.3148  0.0757 -0.0829
30140W        W46988   5.464   2.294   4.505  0.3401  0.3635  0.2191
30141W        W46989   4.640   7.278   2.628  0.2126  0.0204 -0.1485
30142W        W46990   9.927   0.816  12.351  0.0597 -0.0378  0.0885
30143W        W46991   1.769   5.277  14.174 -0.2090  0.1825  0.1528
30144W        W46992  15.098  12.242   3.913 -0.1225 -0.0783  0.2038
30145W        W46993   0.876   9.403   5.123 -0.2035  0.1032 -0.1311
30146W        W46994   2.458   7.506  17.851  0.1515 -0.1032  0.1322
30147W        W46995   2.173  12.889  15.472  0.2554  0.2809 -0.1001
30148W        W46996   9.714  16.690  13.669 -0.1719 -0.0308  0.1196
30149W        W46997  14.764   3.507   2.951  0.0586  0.2715 -0.0190
30150W        W46998   1.825  11.628  13.783  0.0605 -0.1237  0.0636
30151W        W46999   1.482  15.707  17.069 -0.2617 -0.1912 -0.0995
30152W        W47000   9.634   6.505   5.234 -0.2085 -0.2932 -0.1996
30153W        W47001  14.656  15.320   2.436 -0.1010 -0.0672 -0.1243
30154W        W47002  10.818  11.288  16.417  0.1316 -0.2970 -0.0084
30155W        W47003   7.529  15.826  14.084 -0.2506 -0.0133 -0.0189
30156W        W47004   6.418   3.194   0.412 -0.3599  0.1081 -0.1589
30157W        W47005  13.803   6.623  17.564  0.0627 -0.1425  0.1790
30158W        W47006  16.725  13.967  12.967 -0.2353 -0.2609  0.2064
30159W        W47007   1.935   1.312  15.325  0.2123 -0.1386 -0.0604
30160W        W47008  12.113  10.790   5.367 -0.0952 -0.0104 -0.0833
30161W        W47009   2.530   0.512  16.498 -0.0461 -0.2256 -0.0346
30162W        W47010   3.832  10.256  12.282  0.0917  0.1319  0.2484
30163W        W47011   2.475  10.910  14.552  0.3724  0.2653  0.1617
30164W        W47012  12.672   3.966   1.096  0.1937  0.2601  0.5880
30165W        W47013   8.440  10.332  15.095  0.0213 -0.5668  0.0716
30166W        W47014   5.477  16.110  16.390 -0.2841  0.1190  0.3415
30167W        W47015   8.860   0.313  14.499 -0.2163 -0.0217 -0.1398
30168W        W47016   5.475   6.333   0.581 -0.2087 -0.1315  0.0209
30169W        W47017  16.592  10.908  12.196 -0.0537  0.0378 -0.2119
30170W        W47018  12.195   2.848   1.379 -0.0931  0.1925  0.0177
30171W        W47019   9.387  16.108  12.341 -0.0130  0.1208  0.0795
30172W        W47020   5.863   4.289   3.658 -0.2122  0.1944  0.0802
30173W        W47021   3.769  11.543  13.113 -0.0157 -0.0299  0.1345
30174W        W47022  16.880   5.347  13.236 -0.1799  0.0816 -0.1720
30175W        W47023  10.904  14.416  16.220  0.0231 -0.5102 -0.0103
30176W        W47024   1.208   2.895   1.626 -0.0204  0.0531 -0.0447
30177W        W47025  11.209   4.820   0.365 -0.2408 -0.0168  0.0703
30178W        W47026  13.100   4.903   0.511  0.1280 -0.2693  0.0580
30179W        W47027   0.059   8.962  14.441  0.0842 -0.0659 -0.0640
30180W        W47028   5.743   3.426   0.781  0.4571 -0.4882  0.1542
30181W        W47029  10.213   4.279   4.297 -0.2987  0.0224 -0.1457
30182W        W47030  16.204  12.901   2.429 -0.1161  0.2367  0.1122
30183W        W47031  15.523   0.627  16.705  0.0771  0.0646 -0.0434
30184W        W47032  11.094  12.545  13.008 -0.1202  0.0383  0.1833
30185W        W47033  13.395   8.748   0.958 -0.0968  0.2475 -0.0130
30186W        W47034   2.915   0.708  12.459 -0.2465 -0.2348 -0.0900
30187W        W47035   4.411   6.210   1.507  0.3736 -0.0608  0.1982
30188W        W47036  14.357   5.725  12.889 -0.0496  0.0056 -0.1529
30189W        W47037   1.922   9.596  14.464  0.0010 -0.1318  0.0620
30190W        W47038  16.605  10.175  14.812  0.1488  0.1418  0.1630
30191W        W47039   2.003  16.028  14.498 -0.0739 -0.2243  0.1612
30192W        W47040  14.918  12.537   2.605  0.1781  0.2765 -0.0926
30193W        W47041   8.148   0.085  13.993 -0.1528 -0.2817 -0.1545
30194W        W47042   7.103   3.134  15.488 -0.0742  0.0989 -0.2181
30195W        W47043   9.679   3.313  12.345 -0.0309  0.0446 -0.1344
30196W        W47044   5.331   4.590   2.947  0.2764 -0.2453  0.1083
30197W        W47045  16.519   1.788  13.712 -0.1352  0.2154 -0.0669
30198W        W47046  13.188   6.696   3.350  0.4735  0.0886  0.0075
30199W        W47047  13.085   6.599   4.911  0.0417 -0.2840 -0.0304
30200W        W47048   6.317   7.265  12.963 -0.1871  0.1404 -0.0052
30201W        W47049  16.994  15.471  17.717 -0.1296  0.1414 -0.0800
30202W        W47050   3.146   4.766  17.180 -0.0022  0.0690 -0.0934
30203W        W47051  14.483   2.708  17.846  0.1379  0.1092 -0.0818
30204W        W47052   8.387   4.942  13.622  0.0364  0.0106  0.1312
30205W        W47053   5.786  15.096   4.252 -0.0590  0.1180  0.2522
30206W        W47054  13.161   1.870  17.302  0.0826 -0.0310 -0.0819
30207W        W47055   7.133   6.981  15.840  0.2012 -0.0180  0.1108
30208W        W47056  10.543   9.053  12.805 -0.1052  0.2885 -0.1234
30209W        W47057   9.645   3.594  14.970  0.0838  0.1524 -0.1190
30210W        W47058   5.311  12.040   1.902 -0.2807  0.1152 -0.0445
30211W        W47059   6.121  14.229   3.840 -0.1413 -0.1297  0.0531
30212W        W47060   6.036   4.357  13.442 -0.1303 -0.0461  0.0058
30213W        W47061  14.943  14.242   4.826  0.0461 -0.1526  0.2300
30214W        W47062  12.812   4.385   1.291 -0.1199  0.0238 -0.0933
30215W        W47063   6.846   4.263   4.206 -0.1188  0.0325  0.1664
30216W        W47064   6.635  13.842  15.272  0.0795  0.0624 -0.0245
30217W        W47065  14.705   9.821   5.332  0.1169  0.3761  0.1796
30218W        W47066   6.487  11.181   5.694 -0.0719  0.1401 -0.2183
30219W        W47067   1.683  15.716  16.553 -0.3149  0.0440 -0.0756
30220W        W47068  15.466  12.546  11.520  0.0566  0.2110  0.2886
30221W        W47069   5.679   7.375   4.856  0.0051  0.3060  0.0381
30222W        W47070   6.177  15.752  17.061  0.0098 -0.0576 -0.0031
30223W        W47071  13.879   3.937  14.487 -0.1048 -0.1023  0.1340
30224W        W47072   4.801   4.119  13.435 -0.0989  0.2649 -0.0105
30225W        W47073   8.571  15.986   4.407 -0.0382  0.3320  0.0021
30226W        W47074   8.034  10.481   3.278 -0.1108 -0.1689  0.0180
30227W        W47075  14.171   0.130   4.179 -0.1463 -0.1315  0.0817
30228W        W47076  12.912   7.286  16.797  0.0199  0.2670 -0.0607
30229W        W47077   6.083  16.369  16.503  0.1272 -0.0581  0.2442
30230W        W47078  12.963  17.011   5.033 -0.0883 -0.1428 -0.0822
30231W        W47079   3.694   3.767   0.634 -0.1587 -0.2326 -0.0100
30232W        W47080  11.158  10.859  14.018  0.1727 -0.3258 -0.0190
30233W        W47081   4.110   1.245   1.005  0.1280 -0.2851  0.0160
30234W        W47082   9.466   9.141   0.923 -0.5722 -0.1958 -0.0909
30235W        W47083  14.766   2.708  17.420  0.0661  0.3733 -0.0573
30236W        W47084  11.950   1.603  16.959 -0.0240 -0.0897 -0.0288
30237W        W47085   5.454   3.064   1.655 -0.2115 -0.0158  0.1651
30238W        W47086   5.975   9.037   0.418  0.0573  0.0212  0.1978
30239W        W47087  11.564  12.087  12.427 -0.1409 -0.0002  0.2541
30240W        W47088  16.650   0.451   3.647 -0.0957  0.2866 -0.0557
30241W        W47089   2.917   3.728   2.585  0.0284 -0.3358  0.1362
30242W        W47090   5.574   9.865  13.596  0.0346  0.5460  0.0619
30243W        W47091  13.999  10.494   2.750  0.0674 -0.2974  0.0441
30244W        W47092   2.867  10.594  17.815 -0.0229 -0.4383 -0.2806
30245W        W47093   0.667   2.713  15.834  0.2752  0.0854  0.1845
30246W        W47094   5.189   4.960   1.309  0.1034  0.0886  0.1839
30247W        W47095   8.038  16.556  12.575  0.0010  0.0253  0.4478
30248W        W47096  10.246  13.044   1.758 -0.0494 -0.0428  0.3900
30249W        W47097   8.898   9.255  16.745 -0.0014  0.1960  0.2625
30250W        W47098  15.566  14.142   4.582 -0.1539  0.1926 -0.0845
30251W        W47099   6.572   2.470  12.542  0.4864  0.0583  0.0150
30252W        W47100  15.999   7.976   1.012 -0.2985 -0.0981  0.1824
30253W        W47101   3.777  12.581  12.943 -0.0757  0.0878 -0.0782
30254W        W47102   5.113  12.169  12.658  0.1259  0.2013 -0.1940
30255W        W47103   3.659  12.814  14.574  0.2196 -0.0101 -0.0979
30256W        W47104  14.966   8.325   0.532  0.0604 -0.1928  0.2947
30257W        W47105   9.455   7.143  17.627 -0.0460  0.1586  0.3094
30258W        W47106   0.901   2.152  14.497  0.0347 -0.1482 -0.2861
30259W        W47107   4.716  16.270  15.400  0.3334 -0.0762 -0.1959
30260W        W47108   3.465   6.494  12.641  0.0020  0.1740  0.2555
30261W        W47109   2.277   2.929  17.620  0.1129 -0.0627 -0.0292
30262W        W47110  11.646   6.091   2.796  0.0043  0.2017  0.4096
30263W        W47111  13.615  14.240   3.338 -0.1262 -0.2579 -0.0301
30264W        W47112   5.168   9.151  13.971  0.2758 -0.2911  0.1570
30265W        W47113  10.631   8.766   2.207 -0.1374  0.1896  0.1565
30266W        W47114  11.433   0.107   1.430 -0.0579 -0.1699  0.0638
30267W        W47115   6.475   5.446   1.026  0.0878  0.0872 -0.2549
30268W        W47116   1.495   4.214  16.665 -0.0808 -0.0830  0.0747
30269W        W47117  16.609   6.161  12.828 -0.5923  0.1898 -0.3305
30270W        W47118   5.379   4.983  13.055 -0.2433  0.0660  0.0736
30271W        W47119  15.396  10.674   2.373 -0.0996 -0.3053 -0.0490
30272W        W47120   5.154  14.362   2.447  0.1979  0.1322  0.1981
30273W        W47121  16.147   9.356   4.800  0.4652  0.1355 -0.1339
30274W        W47122  13.046  12.299  16.019 -0.1268 -0.2929 -0.1665
30275W        W47123   4.559  15.381  12.230 -0.1213 -0.1254 -0.3242
30276W        W47124  14.502   3.256  12.890 -0.2150 -0.0317 -0.0141
30277W        W47125  13.792   5.652   2.393  0.0144  0.0630  0.2578
30278W        W47126  11.818   4.871  13.288  0.1436 -0.4108  0.2540
30279W        W47127  16.965  15.773   1.084 -0.1571  0.1263 -0.1053
30280W        W47128  13.734   8.080  12.393 -0.1236 -0.2718 -0.2912
30281W        W47129   2.481   7.992   0.116  0.3203 -0.0166 -0.1471
30282W        W47130  10.424  16.770  17.231 -0.2351 -0.3099 -0.1235
30283W        W47131   8.386   6.042   4.743  0.1766  0.2112  0.0041
30284W        W47132  14.951  14.298   3.332 -0.1550 -0.0776 -0.0013
30285W        W47133  10.818   9.714  17.124  0.3534  0.0919  0.2237
30286W        W47134   1.418   3.754   1.832  0.0871 -0.0127 -0.0377
30287W        W47135   9.829   1.431  17.833 -0.1043 -0.1034 -0.1853
30288W        W47136  13.425  17.056   4.728  0.0403  0.0244  0.2778
30289W        W47137   5.954   6.098   3.518 -0.0818 -0.2775  0.2508
30290W        W47138  11.693   7.541  17.547 -0.0240 -0.0326  0.4374
30291W        W47139   5.579  16.795   0.574  0.1335  0.1227  0.1143
30292W        W47140  10.072   7.508   1.227  0.0833  0.0057  0.3395
30293W        W47141   4.879   5.934  14.377 -0.1090 -0.0220 -0.0761
30294W        W47142   9.405   9.098   0.139  0.0463 -0.1865 -0.0285
30295W        W47143   5.928   1.829  12.851  0.1241  0.2374  0.0307
30296W        W47144   8.595   7.872  14.370  0.2559 -0.0940  0.3079
30297W        W47145   3.807  16.108  13.281  0.0056  0.1408 -0.0133
30298W        W47146   9.142   1.755   1.184 -0.2026 -0.0141 -0.1484
30299W        W47147   2.209   3.138   3.511  0.0475 -0.3328 -0.1555
30300W        W47148   1.269   6.027  13.294 -0.0237  0.0568  0.1058
30301W        W47149  16.253   0.072  12.712 -0.0773  0.3708  0.1403
30302W        W47150  11.753  13.117   5.546  0.2579 -0.2405 -0.1782
30303W        W47151   8.476  14.797   4.999 -0.0067  0.2203  0.0337
30304W        W47152  10.613   6.643  14.935 -0.0496 -0.1644 -0.0009
30305W        W47153  16.126  12.371   3.134 -0.1107  0.2699  0.0430
30306W        W47154  14.479   0.247   3.575  0.0675  0.0817  0.0557
30307W        W47155   0.958   0.402   4.074  0.0625  0.0667  0.2532
30308W        W47156   7.732  10.424   4.581 -0.1228 -0.1261 -0.0356
30309W        W47157  14.309  12.380   0.948  0.1133 -0.4893  0.2007
30310W        W47158  10.418  14.868   0.242 -0.1069 -0.0745 -0.1997
30311W        W47159   9.075  15.665  15.168 -0.0845  0.1154 -0.0919
30312W        W47160  11.054   0.577  17.748  0.1107 -0.0915 -0.1038
30313W        W47161  12.045  14.144  13.806 -0.1882 -0.1049 -0.0426
30314W        W47162  11.971   8.535   4.498  0.1590  0.1799 -0.3586
30315W        W47163  12.112   8.603  17.262 -0.0118  0.1519 -0.2794
30316W        W47164   0.047   1.126  17.473  0.0805  0.0093  0.0118
30317W        W47165  16.586  14.800   0.316  0.3804  0.0925 -0.2622
30318W        W47166   5.508   5.167  16.883  0.3324 -0.0337  0.0081
30319W        W47167   8.271  13.587   3.054 -0.1651  0.0942 -0.0190
30320W        W47168   8.425   9.932  15.777 -0.0162 -0.2460 -0.0352
30321W        W47169  10.652  11.708   5.410  0.4109 -0.1238  0.3693
30322W        W47170   2.074  15.797   4.262 -0.0189 -0.0113  0.1879
30323W        W47171  13.164  12.546  12.443 -0.0411  0.3339 -0.1035
30324W        W47172   4.389   1.025   1.402 -0.1267 -0.0830 -0.0183
30325W        W47173   5.638   0.333   1.853  0.0120  0.1765  0.2114
30326W        W47174  10.640   4.559  14.717  0.1081 -0.0276 -0.2462
30327W        W47175  15.641  13.042  12.681  0.0816  0.0059 -0.2763
30328W        W47176   5.154   8.641  16.131 -0.1449  0.1055  0.0248
30329W        W47177   7.254  14.117   2.973 -0.2989 -0.2031  0.2708
30330W        W47178   9.893   2.542  12.868  0.1820 -0.1734  0.0842
30331W        W47179   4.238   2.456  14.372  0.0950 -0.2120  0.1946
30332W        W47180  11.201   5.383   3.128  0.1229  0.1127 -0.0911
30333W        W47181   2.330   8.234  16.044 -0.1218 -0.0243 -0.0328
30334W        W47182  13.602  12.513   0.204 -0.0936 -0.0447  0.0293
30335W        W47183   9.132   0.433   1.515  0.1820 -0.0726  0.0151
30336W        W47184   6.768  15.506  12.421  0.0517  0.0705 -0.0524
30337W        W47185   9.649   4.135  15.602 -0.1510 -0.1937 -0.3553
30338W        W47186   2.134   3.957  15.948 -0.4652 -0.3656  0.4296
30339W        W47187   7.907   5.745  15.082 -0.1627 -0.2807 -0.1290
30340W        W47188   5.209   3.825  12.272  0.0159  0.2457  0.1605
30341W        W47189   9.334   0.331   0.099  0.0622 -0.0694  0.0074
30342W        W47190   6.941  14.461  14.304 -0.0877  0.1467 -0.2996
30343W        W47191  13.023   3.824  16.512  0.0119 -0.0679  0.2215
30344W        W47192   9.314   2.349   4.707  0.0770 -0.0149 -0.2191
30345W        W47193  12.084   7.689  12.899  0.1316 -0.2303  0.0309
30346W        W47194   4.735   0.245  17.580  0.0268  0.0307 -0.1061
30347W        W47195  15.225   3.169   2.601  0.0303 -0.0424  0.0236
30348W        W47196   3.147  10.348  15.622  0.1051  0.0285 -0.0314
30349W        W47197   7.003   9.068   3.561 -0.1252  0.4035  0.2028
30350W        W47198  10.942   3.544   1.145 -0.0220 -0.0185 -0.1357
30351W        W47199  15.319  15.875  17.377  0.2849  0.1724 -0.0657
30352W        W47200   5.468  16.984  13.972 -0.0930 -0.1680 -0.1102
30353W        W47201  12.544  11.688   0.996  0.0804  0.2027  0.1228
30354W        W47202   1.012  10.380   1.717 -0.0918 -0.0020  0.2274
30355W        W47203   9.118   2.793   2.570 -0.0253 -0.0494  0.0114
30356W        W47204   3.947   0.477   4.770  0.1055  0.0704  0.0331
30357W        W47205   4.182   1.929   4.951  0.0187 -0.1612  0.0907
30358W        W47206  11.244  15.050   5.152 -0.0118 -0.2956  0.2193
30359W        W47207   3.686   2.837   2.935  0.1005 -0.1812  0.0372
30360W        W47208  16.452  13.941   0.621 -0.1337  0.0490  0.0100
30361W        W47209   0.653  16.526  14.944  0.1723  0.0946 -0.0500
30362W        W47210  13.807   9.369   1.989  0.0736  0.3906  0.1194
30363W        W47211   2.172   3.548   5.483 -0.1766 -0.3592  0.0363
30364W        W47212  16.477   7.895  16.840 -0.0106  0.0064 -0.1347
30365W        W47213  11.733   4.783  13.874 -0.2055 -0.0918  0.0497
30366W        W47214   9.688   1.245  14.281  0.0063  0.0705  0.1552
30367W        W47215  12.202  12.273   3.015 -0.2232 -0.0634 -0.1799
30368W        W47216   6.253  16.683   2.050 -0.1271 -0.1001 -0.0804
30369W        W47217   1.457   6.005   5.569 -0.2720 -0.0566 -0.1150
30370W        W47218  15.845  14.054  12.875  0.1057  0.0052  0.2587
30371W        W47219  10.652  14.773   6.332 -0.0638 -0.1833  0.0985
30372W        W47220   1.679   5.058  16.843 -0.3190 -0.1756  0.0367
30373W        W47221   3.047  16.398   1.350 -0.0911  0.0633 -0.0880
30374W        W47222   4.324  12.334  13.901 -0.0092 -0.2907 -0.0340
30375W        W47223  12.676   1.890   3.895  0.2737 -0.2335  0.2451
30376W        W47224   9.760  10.061   0.666  0.0545 -0.1950 -0.1351
30377W        W47225  14.589   2.377  15.044 -0.4089 -0.0793 -0.1095
30378W        W47226   5.090   0.961   6.227  0.0671  0.1194 -0.3482
30379W        W47227   1.177  11.292   1.874 -0.0853 -0.2352  0.3195
30380W        W47228  16.236  13.670  12.745  0.1367  0.1487  0.1690
30381W        W47229   3.771   4.299   4.140  0.0574 -0.0758 -0.2387
30382W        W47230  11.138  15.958   1.324  0.0724 -0.2984  0.3459
30383W        W47231  12.934   5.934  12.947  0.0829  0.0535 -0.1474
30384W        W47232   9.697  15.217  17.719  0.0599  0.2227 -0.0201
30385W        W47233  11.370   0.825  17.411  0.0063  0.0998  0.0115
30386W        W47234   2.656   3.607   4.333 -0.0489  0.2411  0.1671
30387W        W47235   7.118  16.161   1.086 -0.1740 -0.3272 -0.2715
30388W        W47236   4.874   4.950  13.079  0.0728  0.0903  0.0472
30389W        W47237  12.294   7.970   5.313  0.0984 -0.1525 -0.0197
30390W        W47238   3.572   0.070   0.259  0.2869  0.1993  0.0478
30391W        W47239   4.378   6.323  14.921 -0.1793 -0.1333 -0.0409
30392W        W47240  14.456  14.740  17.717 -0.2069  0.1084 -0.1018
30393W        W47241  16.170   4.597   4.969  0.1113  0.0696  0.0197
30394W        W47242   7.519   2.396   1.465  0.1612 -0.4600  0.0703
30395W        W47243   7.476   8.010  16.676 -0.0675 -0.1964  0.1807
30396W        W47244   0.532  10.341  17.757  0.0771  0.2224 -0.0389
30397W        W47245   6.015   5.772   5.702 -0.0999  0.0415  0.3443
30398W        W47246  16.869  12.458   3.522  0.0692 -0.0961  0.1475
30399W        W47247  11.808  11.331  13.369 -0.0877  0.0754 -0.2839
30400W        W47248   5.122   9.656  15.092  0.1522  0.1182  0.5722
30401W        W47249  14.831   8.480   5.836  0.0735  0.2735 -0.1377
30402W        W47250  12.154   6.384   3.665 -0.2292  0.4424  0.2693
30403W        W47251   8.816  12.594   2.813 -0.0836  0.1597  0.0337
30404W        W47252  13.603  13.725   2.609 -0.0804 -0.0263  0.2576
30405W        W47253   8.907  14.718   0.113  0.2464 -0.1205  0.2950
30406W        W47254  16.311  15.893  13.341 -0.0493  0.2313  0.0170
30407W        W47255  14.383  13.709  15.065  0.1797  0.0902 -0.0069
30408W        W47256   1.998   6.729  12.358 -0.1207  0.5051 -0.0302
30409W        W47257  12.512  11.219  16.671 -0.1926 -0.0859 -0.0044
30410W        W47258   1.432  16.747   1.169 -0.0091  0.2096  0.0479
30411W        W47259   7.339   2.717   0.267 -0.1656 -0.2223  0.0467
30412W        W47260  10.854  16.896  16.693 -0.1435 -0.3433 -0.2526
30413W        W47261  12.497   5.002  13.937 -0.0163 -0.0265 -0.0237
30414W        W47262   9.660   3.234   0.786 -0.1728  0.0897  0.2908
30415W        W47263   6.777   5.807   0.707  0.0535 -0.0608  0.0075
30416W        W47264   7.599  13.243   5.969 -0.0360 -0.2678 -0.1127
30417W        W47265   6.808   8.166  13.414 -0.2329  0.0852  0.2821
30418W        W47266  11.707   2.329  14.619 -0.1164  0.0946  0.2883
30419W        W47267  15.750  13.622   1.881 -0.0651 -0.3092 -0.0897
30420W        W47268   1.954  16.075   0.148 -0.3617  0.3221  0.1122
30421W        W47269  16.007   6.254   0.742  0.0077 -0.2625 -0.0213
30422W        W47270   5.665  10.604  12.253 -0.0572  0.3536 -0.2177
30423W        W47271  10.100   0.198  14.958 -0.2333 -0.2496 -0.0900
30424W        W47272  16.109  10.109   2.538  0.0177 -0.0902 -0.2010
30425W        W47273  13.098   8.613  15.459  0.0444 -0.0911  0.0302
30426W        W47274   0.566  14.868  13.246  0.2437 -0.0994 -0.3493
30427W        W47275  12.542   7.493  12.928 -0.3267 -0.0283 -0.2201
30428W        W47276  16.072  12.974  15.189 -0.2631  0.1981 -0.0153
30429W        W47277  11.414   1.827   3.372  0.1290 -0.1323 -0.1317
30430W        W47278   6.802  12.017   1.723  0.0331 -0.1823  0.0773
30431W        W47279  14.017  11.814  15.442  0.1087  0.3780  0.0154
30432W        W47280  15.682  13.597  12.902 -0.2863 -0.3192 -0.0052
30433W        W47281  13.693   4.052   3.524  0.0425 -0.1469  0.1902
30434W        W47282  13.243  13.368  12.205 -0.1564  0.1516 -0.1282
30435W        W47283   1.748   3.724  17.456 -0.0700 -0.0928  0.2283
30436W        W47284   0.096   2.331   4.910 -0.0741 -0.2335 -0.1295
30437W        W47285  12.506  14.810  13.290 -0.2273 -0.2752 -0.1891
30438W        W47286  15.178  11.550   4.558 -0.2810  0.0958  0.2788
30439W        W47287   0.029  14.805  15.143  0.0116  0.2871  0.1321
30440W        W47288   6.262   2.803  15.118 -0.0726 -0.1970  0.1247
30441W        W47289   4.531   4.625  16.149 -0.2022  0.2333 -0.3095
30442W        W47290   2.444   1.376  16.057 -0.0321  0.1694  0.2490
30443W        W47291  14.887   6.276   3.993  0.1653  0.0217 -0.0499
30444W        W47292  13.935  12.030  13.682  0.0122  0.2735  0.0706
30445W        W47293   3.252   9.222   3.673 -0.4116 -0.2480 -0.2893
30446W        W47294  13.186   6.820   6.405 -0.0038 -0.0117 -0.1604
30447W        W47295  14.727   2.470  11.694 -0.1985 -0.1321 -0.0630
30448W        W47296  13.916  12.722   2.198  0.0413  0.1395  0.2213
30449W        W47297  16.347  15.957   1.987 -0.0403 -0.0135 -0.0045
30450W        W47298  13.884   5.685  12.531 -0.3277 -0.0009  0.2373
30451W        W47299   4.237   5.328   1.535  0.2227  0.0183  0.0857
30452W        W47300  14.984   4.039   2.972  0.1186  0.2106 -0.1623
30453W        W47301   4.432   3.243   1.852  0.0386  0.3071 -0.3172
30454W        W47302  16.942  16.285   1.277  0.0278 -0.1345  0.2020
30455W        W47303   7.239  15.218  15.160  0.3541  0.1635 -0.0299
30456W        W47304   9.726   7.254  13.332 -0.0537 -0.0536  0.3073
30457W        W47305  13.552  16.583   4.246 -0.1853 -0.0362 -0.1646
30458W        W47306   5.652   8.522  14.470 -0.1550 -0.1950  0.2498
30459W        W47307   2.452   9.935  12.969 -0.2160 -0.1829 -0.1776
30460W        W47308  10.483   3.676  17.137  0.1621 -0.1340  0.0030
30461W        W47309   0.970  15.687   1.906  0.1242  0.4849 -0.2684
30462W        W47310   6.940  16.707   3.714  0.0230 -0.0776  0.0366
30463W        W47311  13.937   5.222  13.196 -0.0319  0.1955  0.0166
30464W        W47312   4.539  14.666  17.311  0.2356  0.3265 -0.2871
30465W        W47313  16.930   9.009   2.704  0.0968 -0.0362  0.0588
30466W        W47314   6.424   1.029   0.326  0.1424  0.4408 -0.0207
30467W        W47315  15.869  12.788  17.538 -0.3895 -0.0177  0.1245
30468W        W47316  10.378   4.480   1.254 -0.1322  0.0429  0.0447
30469W        W47317   0.101  12.827  15.842  0.2591 -0.0824  0.1235
30470W        W47318   5.215  11.410  13.231  0.1553  0.2706  0.3970
30471W        W47319   4.476  15.361  15.577 -0.0689 -0.0889 -0.2638
30472W        W47320   0.754   0.246   2.246  0.1604 -0.1238 -0.5032
30473W        W47321  15.544   3.262  17.076  0.3711  0.2403  0.1437
30474W        W47322   6.444   4.465   1.934  0.1060 -0.1516 -0.2241
30475W        W47323   2.798   5.222  15.886  0.0936  0.1468 -0.0478
30476W        W47324  16.122   6.334  13.595 -0.0333 -0.2167 -0.0159
30477W        W47325   4.323   4.881  12.866 -0.6289  0.1491  0.1350
30478W        W47326  16.906  15.096  10.972  0.2659 -0.1444  0.0127
30479W        W47327  14.408  17.026   2.772 -0.2686  0.1079 -0.0195
30480W        W47328  11.155   8.212   5.878  0.1444 -0.0433 -0.0089
30481W        W47329  15.190  13.468   1.916 -0.0648 -0.1930  0.2388
30482W        W47330  14.745   5.977   0.941  0.0240  0.0886 -0.3695
30483W        W47331   4.459  10.786   4.595  0.0135  0.0664 -0.0362
30484W        W47332  16.474   2.141   1.592  0.2014 -0.1914 -0.1541
30485W        W47333  12.740  11.012   2.070 -0.1469  0.2603 -0.0784
30486W        W47334   3.224   8.976  14.495 -0.0211 -0.4727  0.0441
30487W        W47335  16.174   5.760   0.957 -0.2535  0.0257  0.2319
30488W        W47336  10.698   9.730   3.632  0.2353  0.0929 -0.0008
30489W        W47337  15.693   5.762   4.182 -0.2153  0.0751 -0.2345
30490W        W47338   5.757  13.728   0.163 -0.1450 -0.0454  0.0651
30491W        W47339  10.636  11.396   1.652 -0.3732 -0.1581 -0.1711
30492W        W47340  10.389   1.240  12.408  0.0492 -0.1871  0.1395
30493W        W47341  16.944   7.572  13.699 -0.0066 -0.2357 -0.0098
30494W        W47342   3.201   7.256   5.296  0.3908 -0.0154  0.0428
30495W        W47343   1.198   0.909  14.895  0.0838 -0.3393  0.0289
30496W        W47344  17.049   1.580   1.032 -0.1039  0.1834  0.0278
30497W        W47345  12.831  10.292  13.857  0.0384 -0.1051  0.3003
30498W        W47346   2.585  13.430   1.567 -0.1034 -0.1150 -0.2271
30499W        W47347   1.671  13.869  16.781  0.0697 -0.3220 -0.0436
30500W        W47348   1.690   7.272  13.034 -0.0397  0.4172 -0.2760
30501W        W47349   5.244  10.143  15.947  0.1339 -0.0167  0.1935
30502W        W47350  10.746  13.895  14.346  0.0587  0.2363 -0.1419
30503W        W47351  10.259   9.887   5.205  0.1440  0.0206  0.1283
30504W        W47352  11.309   7.538  17.220 -0.0173  0.0832 -0.2207
30505W        W47353  13.946   5.885  14.691  0.0832  0.2466 -0.0438
30506W        W47354  15.188   2.506   6.009  0.1169  0.0211  0.2126
30507W        W47355   2.490   0.212   2.602  0.0675  0.0503  0.2589
30508W        W47356   3.721  11.819  16.612  0.0040 -0.1232  0.1261
30509W        W47357  14.752   9.848   2.675  0.1164 -0.1031 -0.5129
30510W        W47358  16.294   4.048   4.747  0.1337  0.0749 -0.0819
30511W        W47359  14.166   9.493  15.986 -0.0931 -0.1528 -0.0522
30512W        W47360  10.268   3.807   1.747  0.0455 -0.0153 -0.2008
30513W        W47361  15.480  16.310   3.177 -0.1736 -0.0324 -0.0103
30514W        W47362   9.775  13.615   3.511 -0.0919 -0.2812  0.0174
30515W        W47363   1.652  16.640   3.168 -0.2123  0.1916 -0.0431
30516W        W47364   3.512   7.716   5.428  0.1872 -0.0673 -0.1368
30517W        W47365   1.096  13.657  13.467 -0.1210 -0.1051  0.0339
30518W        W47366   3.340   3.213  16.964  0.3760  0.2897 -0.0062
30519W        W47367   4.881   6.817   4.658  0.2655  0.1251 -0.1796
30520W        W47368   1.061  15.201   6.099  0.0378 -0.1825  0.1194
30521W        W47369   3.877   6.971   2.385  0.0694  0.0194  0.2545
30522W        W47370   4.911   2.456  16.965 -0.0691 -0.3557 -0.1237
30523W        W47371  13.804   2.754   4.359 -0.0148  0.1078  0.0193
30524W        W47372   4.037   9.286  17.453  0.2489 -0.2129 -0.0523
30525W        W47373  10.946   8.799   1.813  0.3021 -0.1004 -0.3069
30526W        W47374  10.188   8.752  15.481  0.0154  0.1990  0.0627
30527W        W47375   7.382   1.864   3.567 -0.0260  0.1069  0.4160
30528W        W47376  15.941  13.271   3.836 -0.0944  0.0766 -0.0613
30529W        W47377  13.078  14.092   4.594 -0.0451  0.1418 -0.2153
30530W        W47378   8.167   9.977  12.559 -0.0247 -0.3024  0.0155
30531W        W47379  16.165  12.320   4.861 -0.0305 -0.1698 -0.0524
30532W        W47380  10.022   1.592   2.219 -0.1266  0.0257 -0.2938
30533W        W47381   7.115  15.694  14.260  0.1752  0.0547  0.0428
30534W        W47382  16.569   4.092  17.724 -0.0479  0.5374 -0.1855
30535W        W47383  16.439   7.401   2.606  0.0619  0.0044  0.2275
30536W        W47384   1.138  14.377  17.495  0.0730 -0.1554  0.1933
30537W        W47385  15.824  10.673  12.713 -0.2070 -0.2897  0.0804
30538W        W47386   5.485   3.787  14.576 -0.1660 -0.1824 -0.1379
30539W        W47387   8.424   9.158  13.183 -0.1071 -0.1337 -0.0123
30540W        W47388   6.848   8.097  15.834  0.2026 -0.0136 -0.1541
30541W        W47389   6.458  13.058   0.916  0.3451  0.1865  0.1017
30542W        W47390   5.299   6.718  17.228 -0.2086  0.0281 -0.0973
30543W        W47391  11.278  16.641  13.664  0.0257  0.2201 -0.2528
30544W        W47392   0.097   9.254   1.210 -0.1507 -0.1950 -0.2233
30545W        W47393   6.048   0.722   4.394  0.1039 -0.2456  0.1630
30546W        W47394   3.454   4.761   5.986 -0.0562 -0.3981  0.0442
30547W        W47395   3.901   4.600   3.753 -0.0941 -0.1072  0.2166
30548W        W47396   2.616  10.197   1.974 -0.1022  0.3235 -0.1300
30549W        W47397   3.440  10.617  17.210 -0.3572 -0.2907 -0.3173
30550W        W47398  13.088   2.195   5.274 -0.2670 -0.0394  0.1122
30551W        W47399   6.205  11.794   3.487 -0.2145  0.1849 -0.3360
30552W        W47400  12.722  16.409  16.640 -0.1741  0.1220 -0.0877
30553W        W47401  13.910  12.660  15.480  0.1446 -0.3017 -0.0442
30554W        W47402  13.973   8.095  13.435 -0.1527 -0.0197 -0.2497
30555W        W47403  10.066  14.166   4.812 -0.2367 -0.0776  0.1898
30556W        W47404   2.284   0.525   2.253 -0.1238 -0.2660 -0.1845
30557W        W47405   4.922  10.280   4.965  0.3066 -0.2291 -0.0465
30558W        W47406   2.739  16.872   0.788  0.1553  0.0786  0.1144
30559W        W47407  11.086  12.910  13.710 -0.0803  0.0260 -0.0799
30560W        W47408   3.131   9.319  15.423  0.1227 -0.0602  0.2560
30561W        W47409   9.928   5.347   3.036 -0.0383  0.1185  0.0372
30562W        W47410   4.620  14.092   4.215  0.2484  0.0595 -0.2341
30563W        W47411  11.876   3.463  13.268 -0.1009 -0.0991  0.1715
30564W        W47412   1.367   2.594  13.434 -0.2648  0.0925 -0.0403
30565W        W47413   5.120  12.748  15.050 -0.0063 -0.1256  0.2354
30566W        W47414   3.601   8.574   3.174 -0.0364  0.0992  0.3465
30567W        W47415   7.137   2.458  16.972  0.0657 -0.1168  0.0529
30568W        W47416  14.595  14.889   1.256 -0.1086  0.0834 -0.2612
30569W        W47417   4.663   3.149   3.217  0.2088  0.0374 -0.2653
30570W        W47418   6.464  13.629  17.740 -0.1682 -0.3538  0.2353
30571W        W47419  14.562   8.734   4.872  0.2699  0.2031 -0.0480
30572W        W47420   4.851   3.484  15.962 -0.0989 -0.3229  0.0842
30573W        W47421   5.745  11.504   4.400 -0.1140 -0.2849 -0.1059
30574W        W47422  15.378   2.514  14.499  0.1013 -0.1358  0.1300
30575W        W47423   5.836   8.860  15.689  0.1214 -0.2635 -0.0523
30576W        W47424  10.640  12.273  14.242 -0.1271 -0.0878  0.0306
30577W        W47425   6.286   3.093  16.605  0.1788  0.2989 -0.0730
30578W        W47426  13.896  15.707   3.028  0.1309  0.0703 -0.0295
30579W        W47427   5.134  15.732   0.983 -0.0294 -0.3743  0.0259
30580W        W47428  11.803  14.201   5.230 -0.0168  0.1768 -0.0799
30581W        W47429  16.813   8.743  17.070 -0.0011 -0.2680 -0.0879
30582W        W47430  11.977   4.354  15.870  0.1900 -0.2661 -0.0007
30583W        W47431   3.876   5.923  13.396 -0.1193  0.0471  0.3903
30584W        W47432   6.967   6.388  17.251 -0.2149 -0.2019 -0.4621
30585W        W47433  13.606   4.731  16.966  0.1013 -0.1514  0.0245
30586W        W47434  15.670   4.537   2.806  0.5370  0.4514 -0.0647
30587W        W47435   8.429  11.135  12.849  0.0207 -0.1475  0.0281
30588W        W47436  11.158   8.537   0.503  0.1336  0.1063 -0.1706
30589W        W47437   9.703   8.909   5.477  0.1085 -0.2101 -0.0657
30590W        W47438  14.382   4.365  13.758  0.1923  0.1488 -0.2114
30591W        W47439  15.026  15.336  16.337  0.0443 -0.1162 -0.0570
30592W        W47440   3.865  14.809  13.498  0.2515 -0.0141 -0.1228
30593W        W47441   5.050   1.281   2.793  0.0645  0.3376 -0.0564
30594W        W47442  13.654  14.869   0.271  0.0600  0.1901 -0.0209
30595W        W47443   0.335   1.916   1.843  0.2279  0.1886  0.0953
30596W        W47444  10.180   3.857  16.124 -0.0658 -0.1660 -0.1281
30597W        W47445   3.428  16.238  15.861 -0.2576  0.1683 -0.0781
30598W        W47446   9.084  15.507  15.695 -0.1568 -0.0430 -0.2890
30599W        W47447   6.897   0.902  14.192  0.0595 -0.1100 -0.0224
30600W        W47448   8.397  16.499  12.046  0.0796 -0.4489 -0.1119
30601W        W47449   1.605   6.547   4.533  0.3182 -0.0917  0.1261
30602W        W47450  14.311  11.757  15.830  0.1413  0.0263  0.1156
30603W        W47451   1.445  11.749  15.698 -0.0050  0.2660  0.2034
30604W        W47452   6.990  12.090   4.451  0.1159  0.3460  0.0205
30605W        W47453   7.439  16.519   5.986 -0.1185  0.1600 -0.0891
30606W        W47454   6.060   9.358  13.118 -0.1191  0.1548 -0.1902
30607W        W47455   8.753   5.992  16.232  0.1046  0.1102 -0.2730
30608W        W47456   9.150   8.606   3.586 -0.2255  0.0075  0.1558
30609W        W47457  16.546   1.047  12.437 -0.2056 -0.2759 -0.2595
30610W        W47458  12.717  13.496  13.654 -0.0625 -0.0160  0.0078
30611W        W47459   4.710   7.938   3.127 -0.0263  0.2538  0.0395
30612W        W47460   1.390  14.817   3.790 -0.1724 -0.1787 -0.0826
30613W        W47461  12.377   7.065   3.202 -0.1976  0.1275 -0.1584
30614W        W47462  15.934  16.792  12.489  0.0378 -0.1527 -0.0512
30615W        W47463  14.876   3.915   4.084  0.1043  0.3679  0.1554
30616W        W47464  16.244  13.625  12.158 -0.4520  0.2545 -0.0235
30617W        W47465   7.373   5.185   0.569 -0.1353 -0.2216 -0.1867
30618W        W47466   2.318  11.340   1.597 -0.1992 -0.0839  0.3612
30619W        W47467   7.865  12.865  11.375 -0.1286  0.2356 -0.0728
30620W        W47468   1.806  13.722  15.844  0.2508  0.1266  0.0538
30621W        W47469   5.977   3.818   1.126  0.2939 -0.2253 -0.1127
30622W        W47470  15.933  11.494  12.640  0.2494  0.0657 -0.1051
30623W        W47471   8.730  14.460   2.739 -0.1490 -0.0946 -0.3862
30624W        W47472  13.319   6.805   2.397 -0.2122 -0.0794 -0.0032
30625W        W47473  10.808   5.587   0.611 -0.0058 -0.3478  0.0117
30626W        W47474   0.222   3.680   0.433  0.4931  0.1176  0.1582
30627W        W47475   4.890   3.822  14.550 -0.1316 -0.1246  0.1754
30628W        W47476   3.585  10.505  14.686 -0.0363  0.0982  0.1431
30629W        W47477   8.476   2.031   0.130 -0.0353 -0.0740  0.1219
30630W        W47478   1.694  11.531  16.899  0.1029 -0.0471 -0.0671
30631W        W47479   8.885   5.571   0.796  0.2313 -0.3062 -0.0659
30632W        W47480   1.915   2.256   0.229 -0.2663  0.0558 -0.1731
30633W        W47481  13.816  14.584  16.272 -0.2109  0.2097  0.0329
30634W        W47482   0.567   7.626   2.120  0.0327  0.1340 -0.1727
30635W        W47483   8.011  15.515  15.165 -0.0800 -0.1452  0.0646
30636W        W47484  15.513  13.854  15.248 -0.0755 -0.2060  0.1878
30637W        W47485  14.261   4.364   3.050  0.1064 -0.0531  0.0131
30638W        W47486   1.458   0.384   0.728 -0.0500  0.1668  0.0559
30639W        W47487   1.632   0.880   4.628 -0.1542 -0.1349 -0.1438
30640W        W47488  15.507   0.084   4.249  0.3420  0.0189  0.0486
30641W        W47489   7.364   9.571  15.552 -0.2091 -0.1101  0.1748
30642W        W47490   6.921   5.617   4.493  0.1031  0.1499  0.0806
30643W        W47491   2.098   5.800  16.746 -0.0853  0.1884 -0.2065
30644W        W47492   7.060  12.175  16.967 -0.0024 -0.0934 -0.0189
30645W        W47493   2.802  11.946   3.066 -0.0644  0.0947  0.0730
30646W        W47494   7.726  12.722   1.802  0.1295 -0.0328 -0.2512
30647W        W47495   2.039  11.218   2.434  0.0984  0.0267 -0.2383
30648W        W47496   1.436  13.258   2.956  0.2596 -0.0169 -0.2528
30649W        W47497  15.991  12.701   1.817 -0.1235  0.0669 -0.0117
30650W        W47498   3.757   9.289   2.003 -0.2011  0.2450 -0.2090
30651W        W47499  15.008  16.048   6.415 -0.1262 -0.1349  0.0187
30652W        W47500   9.460   5.929   2.923 -0.0405 -0.1790  0.0750
30653W        W47501  13.737   3.201   3.684  0.0451 -0.2933 -0.0685
30654W        W47502  13.693   4.748   2.808  0.0744 -0.0406 -0.2094
30655W        W47503  12.608   1.777  16.025  0.0849 -0.1892 -0.0336
30656W        W47504  15.687   1.301   0.147 -0.1651 -0.0396  0.1322
30657W        W47505  13.669  11.496  13.326  0.0235 -0.4600  0.3955
30658W        W47506   1.201   7.196   3.236  0.1775 -0.0609  0.2020
30659W        W47507   0.141   4.673   1.357  0.1675 -0.1320 -0.1988
30660W        W47508  14.886  15.997   0.325  0.2743 -0.1603  0.0539
30661W        W47509  10.951   3.932   0.265 -0.0768  0.1264 -0.0112
30662W        W47510   3.677  12.351   6.620 -0.0381  0.1721 -0.2230
30663W        W47511   4.207  13.847   2.124  0.1233 -0.0015  0.1681
30664W        W47512  14.848   5.634  13.253  0.1321 -0.4579  0.0257
30665W        W47513  13.204   5.641   1.471 -0.3149 -0.1856 -0.0467
30666W        W47514   1.040   5.630   6.010 -0.0250  0.2573 -0.0124
30667W        W47515   7.553   2.540  14.940 -0.0581 -0.2963 -0.1630
30668W        W47516  11.579  16.415  15.160  0.2656 -0.1947  0.1541
30669W        W47517  13.172   1.368  15.168 -0.0454  0.0543 -0.1214
30670W        W47518   0.406  11.312  15.144  0.0393  0.2309 -0.1765
30671W        W47519   0.174   8.514  17.119 -0.2932  0.1277 -0.0307
30672W        W47520   3.591   6.516  17.773 -0.0271  0.1557  0.3106
30673W        W47521   9.681  16.635  14.248  0.0568 -0.2726  0.0900
30674W        W47522   6.760  10.362  16.488  0.0718 -0.1373  0.1586
30675W        W47523   3.672   0.943   3.100 -0.0184  0.2826  0.0771
30676W        W47524   9.572   0.147  12.611 -0.1383 -0.0742 -0.1779
30677W        W47525   4.165  12.200  12.223  0.0922  0.0456 -0.0083
30678W        W47526   2.431   1.412   2.886  0.0144  0.2314 -0.0668
30679W        W47527   5.778   4.975  13.839 -0.3253 -0.1416  0.0781
30680W        W47528  14.601  14.373   1.521  0.2010 -0.0955  0.1616
30681W        W47529  13.495   0.972  15.464  0.1094  0.1703  0.1829
30682W        W47530   5.771   5.418   5.455  0.0804  0.1117 -0.0239
30683W        W47531  16.537  15.216   1.234 -0.0217  0.1274 -0.1553
30684W        W47532   5.665  16.310   4.983  0.6769  0.0017 -0.0380
30685W        W47533  13.963   5.112  14.078  0.1606 -0.0446 -0.4353
30686W        W47534   1.732   2.870   4.970 -0.0447  0.2237 -0.0905
30687W        W47535  14.368  14.770   1.739 -0.0237 -0.1992 -0.1610
30688W        W47536  12.080   9.470   2.705 -0.0156  0.1919  0.0103
30689W        W47537   9.770   6.502   2.332  0.2480  0.2102 -0.0377
30690W        W47538   5.747  11.887   0.338 -0.2500  0.1202 -0.0335
30691W        W47539   7.695  14.620  13.673  0.2116  0.1273  0.0604
30692W        W47540   4.266  11.850   1.537 -0.0300  0.3746  0.3426
30693W        W47541   1.889  11.161  13.903  0.0728 -0.1015  0.0589
30694W        W47542   8.486  15.011   1.674 -0.0908 -0.0112  0.1094
30695W        W47543   5.915  11.124  15.554 -0.0833 -0.0438  0.0228
30696W        W47544   9.127   4.461  16.833  0.0742 -0.1236  0.4179
30697W        W47545   2.935  15.337   4.063  0.1052 -0.0770 -0.2049
30698W        W47546   5.408  11.446  16.878 -0.1155  0.0167  0.0325
30699W        W47547  11.031   0.545   3.122  0.0479  0.0949 -0.0302
30700W        W47548   1.040   7.185   0.995  0.1512 -0.0483  0.2389
30701W        W47549  11.897  10.848  17.182 -0.0827  0.3071  0.1294
30702W        W47550   7.303   5.280  14.517 -0.2568  0.2586 -0.3357
30703W        W47551   3.430   3.108  15.887 -0.2525 -0.0413  0.0647
30704W        W47552   8.152   3.960   1.694 -0.0552 -0.1745 -0.1122
30705W        W47553  11.661   3.012  13.813 -0.1426 -0.3078 -0.2385
30706W        W47554   2.383   5.389  16.493 -0.0114 -0.1005 -0.4188
30707W        W47555  12.548   8.338   0.736  0.1562 -0.3214  0.4674
30708W        W47556   7.461  17.051   5.982  0.0596  0.0423  0.3132
30709ION     NA47557  13.691   9.367   6.722  0.1518 -0.1469  0.4148
30710ION     NA47558   3.655  12.882  15.136 -0.0883  0.0274  0.0578
30711ION     NA47559   4.655   5.560  12.161  0.0546  0.2755 -0.2367
30712ION     NA47560   6.888   5.050  15.312  0.1328  0.2291 -0.2750
30713ION     NA47561  13.279  11.423   4.899 -0.0343  0.0591  0.1213
30714ION     NA47562   5.035   5.455   4.954  0.0164 -0.0620 -0.0359
30715ION     NA47563  12.892   6.797  11.503 -0.1672  0.0654 -0.1651
30716ION     NA47564   8.617  11.908   4.953  0.1355 -0.2587  0.5044
30717ION     NA47565   6.756  12.543   6.508 -0.1730 -0.2420 -0.3107
30718ION     NA47566  10.726   8.933  11.477  0.3360  0.1131 -0.2724
30719ION     NA47567   2.621   4.946  11.523  0.3862 -0.0053  0.1300
30720ION     NA47568  12.337  14.691   5.863  0.1169 -0.0095 -0.0580
30721ION     NA47569  15.625   2.879   0.940  0.2055  0.0103  0.1997
30722ION     NA47570   3.349  14.760  11.181  0.2215  0.3821  0.0547
30723ION     NA47571  14.302   7.033   0.335 -0.2944  0.1421  0.2150
30724ION     NA47572   5.041  11.633   6.614  0.0855  0.2042  0.1076
30725ION     NA47573   0.934  16.620   3.882 -0.0319 -0.1786 -0.0357
30726ION     NA47574   4.284  14.801  11.111 -0.1391 -0.0310 -0.1180
30727ION     NA47575  16.836  10.345  13.905 -0.2883 -0.0207  0.0604
30728ION     NA47576  16.058   2.329   6.356 -0.0293  0.3332  0.1003
30729ION     NA47577   7.629   8.040  11.400  0.0548  0.0263  0.2009
30730ION     NA47578   3.582   0.998  11.280  0.0138 -0.1459  0.1051
30731ION     NA47579  10.070   3.528   5.939  0.0089  0.0360 -0.1773
30732ION     NA47580  16.000  16.790  11.912 -0.1480 -0.2166 -0.4064
30733ION     NA47581   4.573   0.582  11.295 -0.1665 -0.0925  0.4019
30734ION     NA47582  14.672   4.500  11.273  0.1377 -0.0550 -0.1225
30735ION     NA47583   3.572   2.288  12.173  0.0930 -0.0726  0.2595
30736ION     NA47584   5.368   0.311  11.158  0.1438  0.0245  0.2064
30737ION     NA47585   7.938   4.316  11.433 -0.0148 -0.2181 -0.2179
30738ION     NA47586  13.897   1.663   1.312 -0.2763 -0.0210 -0.2730
30739ION     NA47587  12.154  14.787  12.384  0.0313 -0.1589  0.1128
30740ION     NA47588   6.036  14.796   6.452  0.2463 -0.2325  0.1466
30741ION     NA47589  10.541   3.793  11.185  0.0483  0.1264  0.0322
30742ION     NA47590  10.093   2.038   5.995 -0.1850  0.1586  0.0352
30743ION     NA47591  14.898   5.733   3.930 -0.1284 -0.1593 -0.0114
30744ION     NA47592  12.034   8.498  11.700 -0.3733 -0.1995  0.2021
30745ION     NA47593   7.491   6.406   6.543  0.0612  0.1659  0.0669
30746ION     NA47594   7.460   7.101   3.003 -0.1533  0.0668  0.0036
30747ION     NA47595   1.780  16.188  11.242  0.0831  0.0455 -0.0177
30748ION     NA47596   0.105   0.714  11.330 -0.1250 -0.1344 -0.0123
30749ION     NA47597  16.217  11.668   6.444 -0.1029  0.0768 -0.1132
30750ION     NA47598   2.318  12.169   6.348 -0.4511  0.0552 -0.4728
30751ION     NA47599   7.636   5.410  15.580  0.1792  0.2110 -0.3508
30752ION     NA47600   4.178   5.039   6.514 -0.0794 -0.2441 -0.1676
30753ION     NA47601   0.231   7.732  11.869  0.1001  0.1177 -0.0387
30754ION     NA47602   4.173  11.754  17.377 -0.3304 -0.2676 -0.1820
30755ION     NA47603   3.799   4.498  11.404  0.1092 -0.1365  0.1473
30756ION     NA47604   7.328   5.502  11.950 -0.0824 -0.0948 -0.1061
30757ION     NA47605  15.794   1.359  11.541 -0.1394 -0.3356  0.3956
30758ION     NA47606  12.035  16.068   6.316 -0.1165 -0.3247  0.1785
30759ION     NA47607  13.401   9.853  11.589  0.2358 -0.2136 -0.0140
30760ION     NA47608   9.722   4.406  12.957 -0.1172 -0.0500 -0.0870
30761ION     NA47609  13.620   4.672   6.159  0.0436  0.3728  0.1957
30762ION     NA47610   5.606   6.760   2.969 -0.2731  0.1484 -0.2368
30763ION     NA47611   8.137   7.430  14.839  0.2683 -0.1146  0.0126
30764ION     NA47612   4.521  14.512   0.487  0.2998  0.2853 -0.0147
30765ION     NA47613   8.831  16.629  11.230  0.2364 -0.2045  0.0528
30766ION     NA47614   9.128   5.428   6.267  0.0249  0.0854  0.0362
30767ION     NA47615   6.461   3.160  11.614  0.1834 -0.1100 -0.0175
30768ION     NA47616  13.988   2.973  11.036  0.0687 -0.1656 -0.0752
30769ION     NA47617   7.388   9.696   6.535 -0.1472 -0.0277  0.0358
30770ION     NA47618   0.574   1.746   2.244 -0.0405 -0.0105 -0.5790
30771ION     NA47619   2.853   9.168  11.563  0.0458  0.0500  0.0461
30772ION     NA47620  10.011   1.688  14.424  0.1640  0.1687 -0.0339
30773ION     NA47621  11.979   2.770   6.470 -0.1373  0.0318 -0.2400
30774ION     NA47622  13.646  15.238   6.100 -0.1406 -0.2311  0.0423
30775ION     NA47623  16.435   9.815   6.097  0.2783  0.4282  0.1719
30776ION     NA47624  16.688   7.053   6.467  0.0694 -0.3302  0.0021
30777ION     NA47625  12.465   7.588   6.664  0.0531 -0.0990  0.3544
30778ION     NA47626  16.607   8.664  15.239 -0.4234 -0.3258 -0.1163
30779ION     NA47627   7.101  13.758  11.111 -0.4320 -0.2403 -0.1806
30780ION     NA47628  15.897  12.655   6.206 -0.5627  0.3126 -0.1484
30781ION     NA47629  14.437  13.648  11.534  0.1719 -0.0459 -0.0624
30782ION     NA47630   5.251   5.961  11.720 -0.2281 -0.2209  0.3056
30783ION     NA47631  11.904   5.361   1.671 -0.0772 -0.1157  0.3500
30784ION     NA47632   3.254   2.815   6.574  0.0734 -0.0788 -0.2579
30785ION     NA47633  10.575  12.271   1.594 -0.0309 -0.0810 -0.1706
30786ION     NA47634   8.984   7.357   6.563 -0.1819 -0.1300  0.0488
30787ION     NA47635   3.565   6.211  16.028  0.0422 -0.0563 -0.1003
30788ION     NA47636   8.875  15.028  11.856 -0.1140 -0.1824  0.6125
30789ION     NA47637   5.648   8.309   6.259  0.0042 -0.0306 -0.0666
30790ION     NA47638   3.505   0.075  17.535  0.1544  0.0627 -0.0410
30791ION     NA47639   9.781   3.217  11.406 -0.0499  0.0818 -0.1483
30792ION     NA47640  16.453  13.208  11.212 -0.0973 -0.1909 -0.0879
30793ION     NA47641   5.596   8.368   6.802 -0.1899  0.1408  0.0270
30794ION     NA47642   1.451  11.384  12.058  0.0684 -0.1208  0.3895
30795ION     NA47643  13.406  16.708   6.252 -0.1272  0.1424  0.0205
30796ION     NA47644  15.018   0.108   4.111 -0.4146  0.1883  0.0343
30797ION     NA47645  15.446   8.196  11.499 -0.0230  0.0513 -0.5507
30798ION     NA47646   1.384   0.043   6.333 -0.1130  0.0236  0.1812
30799ION     NA47647   6.035   0.623   6.713  0.1856  0.1732  0.0002
30800ION     NA47648   4.966   7.215   0.230 -0.1814  0.0053  0.1078
30801ION     NA47649  16.853   4.520   6.598 -0.0011  0.0978  0.0425
30802ION     NA47650  16.288   0.559  11.447  0.0592 -0.1716 -0.0714
30803ION     NA47651  12.313   7.547  14.977  0.0739 -0.0992  0.1375
30804ION     NA47652   1.229  16.876   5.621 -0.1986 -0.0522 -0.0853
30805ION     NA47653   8.525   5.077  11.452  0.0276  0.0009 -0.1101
30806ION     NA47654  11.824  16.004  11.604  0.2800  0.0707 -0.1739
30807ION     NA47655   2.794   7.101  13.022  0.1606 -0.0494  0.0173
30808ION     NA47656   7.029  13.324   6.304 -0.1922  0.1208 -0.3033
30809ION     NA47657   8.461   1.641   6.077  0.0923 -0.1435 -0.0497
30810ION     NA47658  12.475  11.006  11.963 -0.0554 -0.1620 -0.0327
30811ION     NA47659   2.546  12.573  11.224  0.0580  0.0643  0.0809
30812ION     NA47660   8.365   1.337  11.334 -0.1382  0.0278 -0.1586
30813ION     NA47661   6.677  11.943   4.938 -0.0084  0.3697  0.1061
30814ION     NA47662   3.918   7.852   6.453  0.0914  0.2013  0.2559
30815ION     NA47663  12.722   5.059   3.999 -0.0444  0.1678  0.1811
30816ION     NA47664  12.309  10.566   5.789 -0.2162 -0.1922 -0.2905
30817ION     NA47665  13.312   7.337   6.491 -0.4114 -0.1919  0.0021
30818ION     NA47666   3.132  15.885   6.669 -0.1086  0.0363  0.3364
30819ION     NA47667   0.187   7.198   6.582  0.1338 -0.4006  0.0608
30820ION     NA47668   7.852   5.866  11.579 -0.1475  0.0164  0.2065
30821ION     NA47669   8.836   6.598   1.418 -0.0544 -0.0673  0.0771
30822ION     NA47670   2.227   8.655  11.441 -0.1330 -0.0327 -0.0605
30823ION     NA47671   9.822  13.698   6.181  0.2707 -0.1123  0.0675
30824ION     NA47672   9.964  11.651   6.447 -0.2084  0.1712  0.2100
30825ION     NA47673  14.543  11.842  11.396  0.1253 -0.0867 -0.2718
30826ION     NA47674   9.816   3.689  11.121  0.0421  0.0543 -0.4297
30827ION     NA47675   3.924   7.840  11.588 -0.2803  0.0136  0.0696
30828ION     NA47676  13.023   5.389   6.291  0.1835 -0.1918  0.1165
30829ION     NA47677  13.240   4.706  11.244 -0.0393 -0.0401  0.2473
30830ION     NA47678   5.825   9.433   6.674  0.1352  0.1427 -0.1527
30831ION     NA47679   4.177   2.536  11.400 -0.0036  0.1958 -0.0897
30832ION     NA47680   7.396  11.931  11.524 -0.3834  0.1319  0.2123
30833ION     NA47681   3.702   0.998  15.810  0.0067  0.1348  0.3096
30834ION     NA47682  13.188  15.630   2.618 -0.1014 -0.1911  0.2852
30835ION     NA47683   6.743   8.278   6.592  0.0100  0.1479 -0.5600
30836ION     NA47684   2.994   4.904   6.129 -0.0340 -0.0194 -0.2086
30837ION     NA47685   1.225  11.122   6.397  0.4603 -0.0213 -0.0052
30838ION     NA47686   3.638   2.541   3.417  0.0851 -0.0513  0.1068
30839ION     NA47687   2.461  15.504  11.235  0.3367 -0.0501  0.3033
30840ION     NA47688  13.398  10.775  11.570  0.0558 -0.0438 -0.0765
30841ION     NA47689   9.339  13.662  11.448 -0.2737 -0.0695  0.1610
30842ION     NA47690  14.504  16.173  11.329  0.0358  0.2183  0.0157
30843ION     NA47691  10.171  13.606  12.792  0.2232 -0.0423 -0.1018
30844ION     NA47692   6.030   8.049  11.307 -0.0598 -0.1899  0.1518
30845ION     NA47693   8.348  11.532   2.543  0.0469 -0.1333 -0.2268
30846ION     NA47694   7.226  14.968  11.098 -0.0096  0.0092 -0.0169
30847ION     NA47695  12.296   3.751  11.386 -0.0011  0.3181 -0.0351
30848ION     NA47696   0.531   5.979   4.592  0.0160  0.1172  0.0766
30849ION     NA47697   4.322  15.179   6.514  0.0025 -0.1360  0.0666
30850ION     NA47698  10.546   5.403   5.826 -0.0754 -0.1637  0.3477
30851ION     NA47699   4.466   4.183   6.657  0.1211 -0.0530 -0.1116
30852ION     NA47700   1.187   4.934  11.665  0.0975  0.1531  0.1695
30853ION     NA47701  16.803  16.783   6.377  0.3848  0.2620 -0.2239
30854ION     NA47702  11.793  11.165   5.104  0.3385  0.1659  0.1880
30855ION     NA47703   0.785  12.683  11.235  0.1176  0.2990  0.0529
30856ION     NA47704  10.534   7.149   6.449 -0.1758 -0.0212 -0.1016
30857ION     NA47705   6.044   7.065  14.572 -0.0509  0.0581  0.1653
30858ION     NA47706   6.170   7.646   6.534 -0.1660 -0.1115 -0.0338
30859ION     NA47707   8.515   4.106   6.355  0.1797 -0.0703  0.0326
30860ION     NA47708   3.048  13.785  11.422 -0.2697 -0.1524  0.0420
30861ION     NA47709  11.821   6.825  11.540  0.1993 -0.1600 -0.0777
30862ION     NA47710   9.522  16.677   2.354  0.1389  0.0858  0.1350
30863ION     NA47711   9.346  10.759  11.401  0.0984 -0.1647 -0.0903
30864ION     NA47712   0.615  13.425   6.213  0.1834  0.0171 -0.1100
30865ION     NA47713   5.778  10.928  11.844 -0.2045 -0.0251  0.0061
30866ION     NA47714  13.848   1.468   6.083 -0.0216 -0.3447  0.0172
30867ION     NA47715   1.259   6.725   4.970  0.0522 -0.0961  0.2877
30868ION     NA47716   0.602  14.102  11.185  0.3267  0.0445  0.0030
30869ION     NA47717  13.256  15.528  11.388  0.0058 -0.0848 -0.3091
30870ION     NA47718   6.337   0.517  11.271 -0.0959  0.4352 -0.1718
30871ION     NA47719  11.115   3.044  11.401  0.1036  0.0676  0.0104
30872ION     NA47720   0.596   5.508   6.731 -0.1831 -0.0013  0.0895
30873ION     NA47721   1.328   2.489  11.538  0.0032 -0.0826  0.1445
30874ION     NA47722  15.154   2.702   6.452 -0.3781 -0.2020 -0.0072
30875ION     NA47723   8.382  13.490  15.258  0.0718 -0.2002 -0.2054
30876ION     NA47724   0.526  15.311  12.002  0.0614  0.3177 -0.3184
30877ION     NA47725  10.281   9.663  17.231 -0.3063  0.2023  0.0689
30878ION     NA47726  16.507  13.943   6.268  0.2019  0.0171 -0.1062
30879ION     NA47727   9.649   6.427  11.296  0.1482  0.3062 -0.3513
30880ION     NA47728  10.888  16.032  11.679 -0.0269 -0.3864  0.1404
30881ION     NA47729  13.318  14.655  11.579  0.0792  0.0097  0.1919
30882ION     NA47730   1.255   5.374  12.543 -0.2326  0.1533  0.3581
30883ION     NA47731   0.838   4.578   6.828  0.1372  0.0475 -0.0252
30884ION     NA47732  14.427   8.262   3.778  0.1653  0.1315 -0.0064
30885ION     NA47733   4.367   9.911  11.322 -0.2820 -0.0890  0.1295
30886ION     NA47734  11.523   9.345  11.478  0.0478  0.0666  0.0491
30887ION     NA47735   1.723   5.717   6.728 -0.1265 -0.1467 -0.0064
30888ION     NA47736   4.978   5.092   0.309 -0.4149 -0.2632 -0.0024
30889ION     NA47737   0.905  11.646   2.100 -0.0211 -0.1229  0.0971
30890ION     NA47738   1.734   7.284  11.567 -0.2432  0.2053 -0.1518
30891ION     NA47739   0.388   1.531  15.627  0.0497 -0.1383  0.4215
30892ION     NA47740  12.170  12.256  11.391  0.0476 -0.1574  0.1110
30893ION     NA47741  15.180   7.224  11.558 -0.2078 -0.3149 -0.1520
30894ION     NA47742   3.207  14.550   4.102 -0.1367 -0.1376 -0.1136
30895ION     NA47743  15.988  14.084  11.267  0.2759  0.0919 -0.0884
30896ION     NA47744   6.540  16.524  16.819  0.1412  0.2438 -0.3897
30897ION     NA47745  14.327  14.503  11.389 -0.1113  0.0612 -0.1980
30898ION     NA47746   0.223  14.458   6.069  0.0157  0.0514  0.1092
30899ION     NA47747   2.358   0.269  11.405 -0.1311  0.1651  0.0314
30900ION     NA47748   5.918  12.618  11.157  0.1687 -0.0103  0.4629
30901ION     NA47749   9.712   6.940   6.336 -0.0562 -0.1730 -0.0331
30902ION     NA47750  13.642  12.369  12.320 -0.2168  0.1940 -0.0047
30903ION     NA47751   8.519   4.101  13.632  0.0574  0.0718 -0.0625
30904ION     NA47752   7.007   0.731   6.597 -0.2982 -0.0807 -0.4360
30905ION     NA47753   8.942  11.178  12.978  0.3408 -0.2894  0.2488
30906ION     NA47754   3.863   9.481   0.796 -0.1897 -0.1050  0.4141
30907ION     NA47755   8.041  11.700   6.455 -0.1006 -0.1115  0.3763
30908ION     NA47756   9.122  15.815  11.151 -0.1158 -0.1675  0.2457
30909ION     NA47757   5.127  14.923   6.502  0.0815  0.0159 -0.0981
30910ION     NA47758  13.672  16.512  11.385 -0.0786  0.2104 -0.0633
30911ION     NA47759  15.696  11.701   6.355 -0.1757 -0.0190 -0.0984
30912ION     NA47760   4.051   0.854   6.396 -0.1590 -0.0106  0.0779
30913ION     NA47761  11.334   5.896   6.311  0.2899 -0.0821  0.0381
30914ION     NA47762  12.854   9.444   6.479 -0.1871 -0.1209  0.1938
30915ION     NA47763   4.409  11.270   5.364  0.0368 -0.2023 -0.0024
30916ION     NA47764  16.865  16.471  13.437  0.2305  0.0384 -0.1891
30917ION     NA47765   7.128   7.166   6.165  0.1948 -0.4319  0.4158
30918ION     NA47766  16.984  15.961   4.466  0.0777 -0.0708 -0.0370
30919ION     NA47767   0.180   2.093   6.377 -0.0950  0.1387  0.2622
30920ION     NA47768  12.693   6.708   6.400 -0.1056 -0.0343  0.0486
30921ION     NA47769   7.918  11.997  13.905 -0.0425  0.1857 -0.2584
30922ION     NA47770   2.853   6.695   6.416 -0.2651 -0.0495 -0.0710
30923ION     NA47771   4.751   6.992  11.465  0.1314 -0.1701 -0.1541
30924ION     NA47772   7.291   0.682  11.467 -0.3055 -0.1423 -0.0320
30925ION     NA47773  10.004  12.166   6.510  0.0182  0.1094 -0.0007
30926ION     NA47774   0.225  13.252  11.306  0.0871 -0.1300  0.1740
30927ION     NA47775  14.213   0.026  11.231  0.0139  0.2429  0.0487
30928ION     NA47776   3.857  14.630   0.864 -0.3025 -0.0188  0.0766
30929ION     NA47777  12.971   8.692  11.638  0.0577 -0.2438  0.0504
30930ION     NA47778   0.732  11.433  11.431  0.2107  0.1146 -0.2554
30931ION     NA47779   1.082   7.445  11.915  0.1762  0.0956 -0.1649
30932ION     NA47780   8.051   2.619  15.120 -0.0622 -0.2373  0.3006
30933ION     NA47781   9.905   6.502   3.933  0.0195 -0.1421 -0.1569
30934ION     NA47782  12.304   1.313  10.919  0.1548 -0.1811 -0.1739
30935ION     NA47783  11.709  15.194   6.427 -0.1346 -0.0468  0.0691
30936ION     NA47784   8.025   7.163   6.516 -0.0364 -0.0944  0.0297
30937ION     NA47785   5.259   7.769   4.665 -0.1135 -0.0171 -0.0526
30938ION     NA47786  16.752   5.538   6.649  0.0235  0.0454 -0.0417
30939ION     NA47787   4.695  12.806  11.230  0.1040 -0.0308  0.0046
30940ION     NA47788   9.898   5.042  14.684 -0.0155 -0.3091  0.1079
30941ION     NA47789  11.300  14.233  12.748 -0.1174  0.0848 -0.1885
30942ION     NA47790   2.614  15.260   1.199  0.0944  0.0094  0.3055
30943ION     NA47791   8.643  16.065   6.522 -0.0438  0.0761  0.0364
30944ION     NA47792   6.401   5.326   6.588 -0.1101  0.1882 -0.0440
30945ION     NA47793  16.370  15.500  11.488  0.2098  0.1318 -0.1038
30946ION     NA47794   2.038  11.526   6.469  0.1575 -0.1708 -0.2287
30947ION     NA47795   9.934   7.855  15.147  0.0408 -0.2589 -0.2592
30948ION     NA47796   5.332   3.794   6.742  0.0593 -0.1018 -0.2175
30949ION     NA47797  16.811   4.056   0.433  0.3572  0.3067 -0.0299
30950ION     NA47798  15.877   7.764   6.488  0.4811  0.2203 -0.3301
30951ION     NA47799  12.307   2.613  10.943  0.1774 -0.3134  0.0371
30952ION     NA47800   0.822  14.950  11.295 -0.2382  0.2628 -0.2123
30953ION     NA47801  12.528  13.746   0.459  0.0739 -0.2483 -0.0349
30954ION     NA47802   4.676   4.554  11.742  0.2837  0.1601 -0.1168
30955ION     NA47803  15.393   6.396  11.510  0.0260 -0.0539 -0.0068
30956ION     NA47804  14.462   0.416  11.437 -0.2352  0.2196 -0.1076
30957ION     NA47805  13.911   5.411   6.595  0.2614  0.2113 -0.1278
30958ION     NA47806   7.513   9.231   3.793  0.0182 -0.3321 -0.4101
30959ION     NA47807   2.526   8.570  15.037 -0.2042 -0.2147  0.1793
30960ION     NA47808  13.782  13.725  15.765  0.2048  0.1892 -0.0832
30961ION     NA47809   1.908  16.651   6.307 -0.1620  0.4157  0.1318
30962ION     NA47810   0.112   0.235   4.446 -0.1463  0.1327 -0.0043
30963ION     NA47811  13.948   5.147  11.506  0.1253  0.1534 -0.2616
30964ION     NA47812  16.448  12.294  11.484  0.0587 -0.0540 -0.2448
30965ION     NA47813  12.055   0.480  11.250 -0.0042  0.1308  0.0335
30966ION     NA47814   0.166  12.141  11.199  0.2054  0.2617  0.0087
30967ION     NA47815   4.200   7.265  13.142  0.0342 -0.0380 -0.2018
30968ION     NA47816  15.394  13.023  14.519  0.2453 -0.0513  0.1457
30969ION     NA47817   6.524   5.586  11.553  0.1452  0.0256  0.0127
30970ION     NA47818  11.853   5.750  11.458  0.3020  0.0342  0.4317
30971ION     NA47819   9.618  13.388   4.279 -0.0669 -0.1069 -0.0042
30972ION     NA47820  12.538  14.422   6.255  0.4071 -0.0052  0.2158
30973ION     NA47821   3.992  11.125  11.409 -0.1510 -0.1914 -0.2897
30974ION     NA47822   1.882  14.825  11.272 -0.2078  0.0186  0.1396
30975ION     NA47823   9.757   8.745   6.340 -0.2771  0.1553  0.0623
30976ION     NA47824   5.536  10.752   6.427  0.3169 -0.1080 -0.1063
30977ION     NA47825   5.175  10.338  11.360  0.1693  0.1397 -0.1031
30978ION     NA47826  10.327   0.710   6.336 -0.0351 -0.0873 -0.0942
30979ION     NA47827  15.475  15.845   2.955  0.0279 -0.2313  0.3404
30980ION     NA47828  12.350   5.442   6.034 -0.0515  0.0031  0.1346
30981ION     NA47829   5.327  11.523  11.269 -0.3513  0.0794  0.1189
30982ION     NA47830  10.188  11.417  11.392 -0.0476 -0.0335 -0.0184
30983ION     NA47831   6.217  13.747  12.551  0.0736  0.4117  0.0945
30984ION     NA47832   8.222   9.663   6.480 -0.1288 -0.0957  0.1934
30985ION     NA47833   7.853   1.835   6.557 -0.0664 -0.1248  0.3380
30986ION     NA47834   8.252   8.674  11.609  0.4046  0.0259  0.1364
30987ION     NA47835  11.473   7.413   6.444  0.0435  0.2604 -0.1677
30988ION     NA47836  16.756   9.933  11.596 -0.0325 -0.3076 -0.1895
30989ION     NA47837   7.057  11.254   2.858  0.1270 -0.0606 -0.0277
30990ION     NA47838  11.359  12.948   6.418  0.1771 -0.2413  0.0275
30991ION     NA47839   1.050  16.211   6.416 -0.0664  0.0758  0.0480
30992ION     NA47840   2.425  14.754   6.611  0.1094 -0.0828 -0.0735
30993ION     NA47841  14.114   7.304   5.524 -0.0480  0.0630 -0.0820
30994ION     NA47842  15.387  16.251  11.753  0.3420  0.4671  0.0284
30995ION     NA47843   4.702   9.297  12.722 -0.0711 -0.2493 -0.1840
30996ION     NA47844  12.938   3.203   6.292 -0.0537  0.0634  0.2232
30997ION     NA47845  14.139  16.210   6.197 -0.0927 -0.1991  0.0529
30998ION     NA47846   9.549   9.887   6.354 -0.0878  0.1195 -0.1566
30999ION     NA47847   2.645   2.019   6.613  0.0080  0.0051  0.4188
31000ION     NA47848  15.516   6.963   6.540 -0.0124  0.0453  0.1497
31001ION     NA47849  11.745  10.124  11.746 -0.1932 -0.1744  0.0673
31002ION     NA47850   6.235   6.518  11.648 -0.2428 -0.0754 -0.2682
31003ION     NA47851   6.447   4.698  11.481  0.0753  0.0110  0.2572
31004ION     NA47852  10.577  14.029   0.045  0.0935  0.0997 -0.3402
31005ION     NA47853  13.640   0.509  11.033 -0.1175 -0.0294 -0.3869
31006ION     NA47854   5.643  13.125   6.592 -0.0031  0.0221 -0.0084
31007ION     NA47855   6.437   3.815  11.469  0.3546 -0.3124  0.1512
31008ION     NA47856   1.028   0.980  11.074  0.0841  0.1045 -0.1807
31009ION     NA47857   9.926  16.961   6.037  0.1713  0.0260  0.0922
31010ION     NA47858   3.217   9.719   6.441 -0.0349 -0.1867  0.2522
31011ION     NA47859  14.602   4.913   6.494  0.1152  0.4591 -0.2450
31012ION     NA47860   0.387  12.879  12.340  0.0511  0.0173  0.2970
31013ION     NA47861   7.923   8.058   6.476  0.0018  0.0362 -0.0220
31014ION     NA47862   5.157   4.793   6.701  0.0766  0.0497  0.0009
31015ION     NA47863  15.782   9.658   4.617  0.1337 -0.4454 -0.2281
31016ION     NA47864   4.477  17.026   6.489 -0.2310 -0.1857 -0.0063
31017ION     NA47865   9.003   3.227  11.356  0.0893  0.0533  0.1586
31018ION     NA47866  11.376   4.076  12.725 -0.3075 -0.0156  0.0467
31019ION     NA47867   3.174   2.278  12.455 -0.0885  0.0014  0.0143
31020ION     NA47868  10.981   7.048  11.766  0.0631  0.1781 -0.2221
31021ION     NA47869   3.743  13.602   2.111  0.1776  0.0120  0.0265
31022ION     NA47870   4.710   8.201   6.798  0.1182 -0.2769  0.0033
31023ION     NA47871   8.425  12.919  13.997  0.0474  0.2646  0.1785
31024ION     NA47872  10.151  16.231  11.489 -0.0338  0.2362  0.2500
31025ION     NA47873   7.904  13.589  14.319 -0.1333 -0.2194  0.0859
31026ION     NA47874   2.323   0.345   6.380 -0.1889 -0.1605 -0.1995
31027ION     NA47875   7.301   3.634  11.322  0.1753  0.3761  0.0595
31028ION     NA47876  13.093   0.616   1.697 -0.0808 -0.0725 -0.1882
31029ION     NA47877  14.723   2.432   6.283 -0.0020 -0.1723  0.1738
31030ION     NA47878  16.641   5.208  11.739  0.2615 -0.1652  0.2106
31031ION     NA47879  15.433   3.913  11.252  0.3750  0.1925 -0.0763
31032ION     NA47880   7.523   1.180  13.390 -0.0988 -0.1488  0.1383
31033ION     NA47881  15.804  12.892  11.293 -0.3281  0.1699 -0.0768
31034ION     NA47882  10.608   0.868  11.387  0.3142  0.0932  0.0826
31035ION     NA47883   5.621  14.748   2.388 -0.1355 -0.1958  0.0977
31036ION     NA47884   9.251   5.395  11.199  0.1322 -0.0200  0.1222
31037ION     NA47885  10.017   9.634   6.597  0.1398  0.2496 -0.0702
31038ION     NA47886  10.987  12.361  15.058  0.1106  0.0944  0.1282
31039ION     NA47887  14.688   3.460  11.234 -0.1524 -0.1574 -0.0191
31040ION     NA47888  11.795  13.789   6.425  0.1478  0.0383  0.2221
31041ION     NA47889   9.201  15.302   6.518 -0.0359 -0.1646 -0.0661
31042ION     NA47890  11.445   4.550  11.410 -0.1332  0.0558 -0.1866
31043ION     NA47891  10.412   0.046  11.380 -0.2026 -0.2117  0.0126
31044ION     NA47892  13.954  12.933   6.319  0.0261 -0.2311 -0.2232
31045ION     NA47893   6.808  12.788   3.862  0.0119  0.0742 -0.0126
31046ION     NA47894   9.779   0.349  12.212 -0.1339 -0.2715  0.1712
31047ION     NA47895  15.994  13.214  17.214 -0.2445 -0.4209  0.1313
31048ION     NA47896   3.248   8.576   6.323 -0.2796 -0.1599 -0.1261
31049ION     NA47897  15.238   0.088   6.328 -0.1499 -0.1047  0.1852
31050ION     NA47898   6.675  13.178  11.300 -0.2072 -0.0995 -0.2394
31051ION     NA47899  16.620  13.079   5.970 -0.1374  0.0141  0.0298
31052ION     NA47900  11.056   7.629  14.395  0.0840 -0.1716 -0.2600
31053ION     NA47901  11.218  11.728  11.394 -0.0646  0.2001  0.0083
31054ION     NA47902   7.686  15.432   5.968  0.0466 -0.1736  0.0936
31055ION     NA47903   4.305   6.210   2.041 -0.2401 -0.1705 -0.0519
31056ION     NA47904  10.726   8.003  11.655 -0.3752  0.0837  0.0667
31057ION     NA47905   9.015   0.791  15.340 -0.0542  0.0517  0.1516
31058ION     NA47906  10.545   4.259   6.259 -0.0204 -0.1427  0.0821
31059ION     NA47907   8.588  11.787  12.273  0.0717  0.0630 -0.2392
31060ION     NA47908   5.024   8.483  11.246 -0.0429 -0.0788  0.1976
31061ION     NA47909   5.224  13.027  13.006 -0.3091 -0.1411 -0.6663
31062ION     NA47910   3.555  14.019   6.399  0.0168 -0.1938  0.1101
31063ION     NA47911   9.100  14.326   6.567 -0.0907 -0.2397  0.0851
31064ION     NA47912  16.228   5.940  11.700 -0.2643 -0.0814  0.1901
31065ION     NA47913   8.682   6.133  11.372  0.1522 -0.0172 -0.3089
31066ION     NA47914  15.747   5.264   6.520  0.0252 -0.0079  0.0645
31067ION     NA47915   0.744   3.021   3.617  0.1086 -0.0644 -0.1886
31068ION     NA47916   7.695   4.633   6.525 -0.0479  0.0693 -0.1256
31069ION     NA47917  13.723  11.636   6.705 -0.1831  0.0120  0.2130
31070ION     NA47918   5.494   5.635   4.282 -0.0518  0.0463 -0.1514
31071ION     NA47919   4.770   6.006  11.747 -0.2368  0.1708 -0.2020
31072ION     NA47920   8.335  12.714   6.736 -0.0465 -0.1175  0.1717
31073ION     NA47921  10.870   2.447  13.964 -0.1929  0.0739  0.3340
31074ION     NA47922  13.338  13.167  11.590 -0.2787  0.0276 -0.1131
31075ION     NA47923   1.498  15.100   6.263 -0.2386 -0.1464  0.0443
31076ION     NA47924  13.578  11.657  11.561  0.1193  0.3650 -0.3176
31077ION     NA47925   0.387  15.247  14.734 -0.1657  0.0560  0.3706
31078ION     NA47926   8.786  12.898  11.257  0.1364  0.2485 -0.3953
31079ION     NA47927   9.316   4.546  11.172 -0.0693 -0.2786 -0.2973
31080ION     NA47928   9.888   4.868   0.179 -0.1408  0.1224  0.0827
31081ION     NA47929   0.676  10.312  11.557  0.1078  0.0038 -0.2033
31082ION     NA47930  12.375   7.582  16.019  0.0349  0.1442 -0.1994
31083ION     NA47931   2.493   9.156   6.388 -0.0709 -0.1763 -0.1184
31084ION     NA47932   1.241  13.471  11.471 -0.3021 -0.1914  0.3456
31085ION     NA47933  15.693  11.776  17.298  0.0690  0.0720  0.0083
31086ION     NA47934   5.930   2.423  11.593 -0.2467  0.0548 -0.1742
31087ION     NA47935   8.119  14.302   6.549 -0.0422 -0.3022 -0.1068
31088ION     NA47936   6.863  10.261   6.511  0.1891  0.1992 -0.2006
31089ION     NA47937  12.576   6.056   4.524  0.0549  0.1590 -0.0145
31090ION     NA47938  16.027  11.431  11.527  0.1334 -0.1522 -0.1755
31091ION     NA47939   6.971   4.164   6.354  0.1124  0.0554 -0.2965
31092ION     NA47940  13.460   5.977   1.193  0.1218 -0.3442  0.2388
31093ION     NA47941  15.956  14.643   6.198 -0.0486  0.0457  0.1492
31094ION     NA47942   2.210   1.333  11.712 -0.1792  0.1710  0.0172
31095ION     NA47943   6.964  15.263  14.068 -0.1200 -0.1081 -0.1939
31096ION     NA47944  13.445  15.947   5.509  0.0701  0.1579 -0.0927
31097ION     NA47945  16.073   5.732   5.194 -0.0878  0.0884  0.3488
31098ION     NA47946  12.899   3.009   1.366  0.1429 -0.0212 -0.0957
31099ION     NA47947   8.121   3.137  11.217  0.1401 -0.0833  0.0769
31100ION     NA47948  10.405  11.329   6.302 -0.1172 -0.0893  0.2274
31101ION     NA47949  16.820  11.085   6.512 -0.2390 -0.1520 -0.3478
31102ION     NA47950  12.537  15.542   4.346 -0.0995  0.0137  0.0527
31103ION     NA47951  10.497  16.375  14.842 -0.2556 -0.0064  0.1471
31104ION     NA47952  12.228   1.562   6.298  0.0171 -0.2617  0.1270
31105ION     NA47953  15.524  12.019  11.472  0.2513 -0.0933  0.0976
31106ION     NA47954   5.855  15.311  10.887  0.2108  0.0879 -0.3273
31107ION     NA47955  15.008  16.460   0.252  0.1351  0.2444 -0.0465
31108ION     NA47956   7.113  14.553   1.298  0.0649 -0.1805  0.0868
31109ION     NA47957  13.818   7.054  11.439 -0.1169  0.0156  0.1043
31110ION     NA47958   0.683   1.936  11.358 -0.1841 -0.0719 -0.0909
31111ION     NA47959   4.351   7.261   6.708 -0.1718 -0.1103 -0.2657
31112ION     NA47960   6.842  14.144  10.970  0.0055  0.1413  0.4629
31113ION     NA47961   6.904   2.256   6.649 -0.0036 -0.1960  0.1170
31114ION     NA47962  15.738   4.874  12.028 -0.0660  0.1063 -0.0997
31115ION     NA47963   1.207   3.747   6.633  0.2405  0.1127 -0.1581
31116ION     NA47964   9.605   4.682   6.316  0.2305 -0.0370 -0.0952
31117ION     NA47965   9.991  14.538   6.396  0.0540 -0.1699  0.1423
31118ION     NA47966  14.323   3.270   6.412  0.3130  0.0504  0.1073
31119ION     NA47967   4.911   1.312   6.588  0.2768  0.0964 -0.0341
31120ION     NA47968   1.629   1.265   3.575  0.0533 -0.2067  0.3140
31121ION     NA47969  15.367   3.445   6.020  0.2465  0.0678  0.2082
31122ION     NA47970   6.600  15.653  11.110  0.0584 -0.3555 -0.0614
31123ION     NA47971  16.283   6.263   6.759 -0.0167  0.0695 -0.3179
31124ION     NA47972  10.944   3.394   6.341  0.2195 -0.1925  0.2744
31125ION     NA47973  10.868  14.563  11.702  0.0524  0.0221 -0.0129
31126ION     NA47974  14.922   3.448   0.148 -0.0312 -0.0631 -0.3492
31127ION     NA47975   8.887  13.511   6.494 -0.1764 -0.3576  0.0500
31128ION     NA47976  13.028   3.010  13.285 -0.3955 -0.1515 -0.1641
31129ION     NA47977  13.802   4.161   5.008  0.0149  0.0914  0.1691
31130ION     NA47978   2.098  12.356  11.359  0.0318  0.0922  0.0321
31131ION     NA47979  11.555  12.537  11.524 -0.1095 -0.0546 -0.1510
31132ION     NA47980   1.490  12.527  11.850 -0.2300  0.2219 -0.0402
31133ION     NA47981   7.890  11.730   1.841  0.0380  0.1227  0.3396
31134ION     NA47982   3.703   4.219   6.547  0.1329 -0.0640  0.2086
31135ION     NA47983  15.384   8.756   6.578  0.1990  0.0643 -0.2708
31136ION     NA47984   9.925  14.222   2.237  0.0257  0.1252  0.1036
31137ION     NA47985  11.225  10.990   6.394 -0.0177 -0.2791 -0.0013
31138ION     NA47986  15.723  15.476   6.435 -0.2238 -0.1768  0.0705
31139ION     NA47987  14.697   1.661  15.467 -0.0914  0.0229  0.2793
31140ION     NA47988  10.834   8.509   2.929  0.1122  0.1569 -0.2155
31141ION     NA47989  10.068  15.465   6.251 -0.1692  0.1248  0.1847
31142ION     NA47990  17.038   3.185   6.394 -0.0058 -0.1337 -0.1637
31143ION     NA47991  16.294   8.097  17.445 -0.1532  0.5517 -0.1309
31144ION     NA47992  15.244   7.391  14.187  0.1114 -0.4400  0.0986
31145ION     NA47993   0.821   7.823   6.554  0.1232 -0.0337 -0.0817
31146ION     NA47994  11.449   8.483  11.761  0.0024  0.0055  0.0348
31147ION     NA47995   8.236  16.015  11.154  0.2240  0.2016  0.0220
31148ION     NA47996  13.927  10.725   4.534 -0.2195 -0.0604 -0.1666
31149ION     NA47997   8.681   8.792   6.295 -0.1002  0.0145  0.4047
31150ION     NA47998  14.770   2.546  11.164 -0.2883 -0.1251 -0.2903
31151ION     NA47999   2.108  12.774  13.121 -0.0257  0.1875  0.3909
31152ION     NA48000   5.911   9.758  11.444  0.0576 -0.2278 -0.0696
31153ION     NA48001  12.619   9.548  11.763 -0.4079 -0.0280 -0.1132
31154ION     NA48002   1.769   6.237  11.626 -0.1656  0.2294  0.0936
31155ION     NA48003  10.154   0.407  17.662  0.0962 -0.2591 -0.1427
31156ION     NA48004  16.297   2.563   5.855  0.1935  0.0046  0.1555
31157ION     NA48005  14.864  13.340  11.554 -0.1512  0.2746  0.1183
31158ION     NA48006  11.916   4.897  11.321 -0.1070  0.0287 -0.1545
31159ION     NA48007  11.928  11.572  11.460  0.0294 -0.0456  0.0387
31160ION     NA48008   3.363   1.653   3.234  0.1728 -0.0415  0.2117
31161ION     NA48009  13.853  16.698  17.522  0.3123  0.2117 -0.1069
31162ION     NA48010  15.017   0.344  13.605 -0.1412  0.2265  0.0050
31163ION     NA48011  12.180   0.777   6.352 -0.2085 -0.1946 -0.0449
31164ION     NA48012   5.162   2.379  11.350  0.1054  0.1454 -0.0832
31165ION     NA48013  14.835   0.947   2.785 -0.3159 -0.2619  0.3371
31166ION     NA48014   7.398  11.158  12.746 -0.0449  0.1073 -0.2979
31167ION     NA48015   5.571   1.001   0.474 -0.0010 -0.3880 -0.3978
31168ION     NA48016  13.666   9.830   6.829 -0.3094  0.0428 -0.0316
31169ION     NA48017  11.257   1.450   6.349 -0.0877  0.1010  0.2050
31170ION     NA48018   8.272  15.313  13.171  0.0497  0.0672 -0.1256
31171ION     NA48019   0.814   8.902  12.190  0.2478 -0.2210  0.1537
31172ION     NA48020   6.837   7.468  11.365  0.0092  0.1316 -0.0520
31173ION     NA48021   8.898   0.815   4.865  0.0617  0.1086 -0.2968
31174ION     NA48022  15.896  15.922   5.229 -0.0401  0.3922 -0.3379
31175ION     NA48023   1.545   3.004  11.480  0.2886  0.2405 -0.1760
31176ION     NA48024  16.109  16.948   6.027  0.3873  0.1025  0.1755
31177ION     NA48025  16.654  13.928  11.354 -0.1238 -0.2513 -0.1113
31178ION     NA48026   9.082   9.274  17.484 -0.0769 -0.0234  0.0536
31179ION     NA48027   0.735   5.395   0.200 -0.1167  0.2159  0.0716
31180ION     NA48028  11.389   7.444   2.107 -0.0072 -0.1250  0.1619
31181ION     NA48029   4.964  15.800   6.582  0.1354 -0.1867  0.0162
31182ION     NA48030   0.711   2.874   6.517  0.2590 -0.0561 -0.2450
31183ION     NA48031   1.361   1.589  11.689  0.0220  0.0296 -0.0828
31184ION     NA48032  14.496  16.531   6.078  0.0899  0.1458  0.3147
31185ION     NA48033   5.439  15.927  14.148  0.4166  0.1696  0.0870
31186ION     NA48034   8.959  11.838   6.637  0.2385 -0.1743 -0.2311
31187ION     NA48035   9.888   4.673  15.637  0.1329  0.1297  0.2522
31188ION     NA48036   1.800   3.927   6.626  0.1161 -0.0370  0.2710
31189ION     NA48037   2.844  12.796   0.722  0.0881 -0.1579  0.2665
31190ION     NA48038   6.809   3.331   6.608 -0.3592  0.2468  0.0346
31191ION     NA48039  11.721   1.932  11.165  0.0894 -0.2682  0.0861
31192ION     NA48040   5.404  15.354   5.294  0.0091 -0.1033 -0.0043
31193ION     NA48041   3.330  11.440   0.191 -0.0468 -0.1217  0.0576
31194ION     NA48042  13.933   5.422  14.979  0.1130 -0.2866 -0.2748
31195ION     NA48043   7.722   2.376  11.396 -0.1701  0.2279 -0.1435
31196ION     NA48044   7.936  10.434   6.475  0.3241  0.1488  0.0134
31197ION     NA48045   9.046  15.105  11.401 -0.1532  0.3046 -0.0526
31198ION     NA48046  15.189  15.596  11.560  0.0199  0.0053 -0.1592
31199ION     NA48047  14.040   7.586   6.669  0.0421  0.0104  0.1573
31200ION     NA48048  16.452   1.459   6.372  0.3881  0.2547  0.0271
31201ION     NA48049   1.368   4.796   6.870  0.1105 -0.0623  0.1052
31202ION     NA48050  14.257   3.016   2.765  0.2684  0.1226  0.2365
31203ION     NA48051  10.531  12.918   6.428  0.0172  0.0573 -0.0783
31204ION     NA48052  14.268  10.942  11.515  0.0482 -0.2086 -0.1262
31205ION     NA48053   3.203   3.271  11.523  0.0415 -0.1030  0.0901
31206ION     NA48054  13.465   6.479  12.582 -0.1300  0.1888  0.1420
31207ION     NA48055   1.996   1.399  17.433  0.1540  0.1905 -0.0461
31208ION     NA48056   1.724  15.129   1.256  0.2563 -0.0082 -0.2914
31209ION     NA48057  14.244   4.107  11.412  0.1353  0.1212  0.1404
31210ION     NA48058   7.707   4.338  13.017 -0.1383 -0.0485  0.4982
31211ION     NA48059   9.240  16.868   6.500  0.3102 -0.1401 -0.1777
31212ION     NA48060   8.530  10.968   6.408  0.0797 -0.4123 -0.0794
31213ION     NA48061  14.637   7.018  11.584 -0.3295  0.1458  0.0949
31214ION     NA48062   6.921  16.616  14.155  0.3620 -0.0780 -0.0583
31215ION     NA48063   9.866   9.880  13.901 -0.2046  0.0747  0.1691
31216ION     NA48064   2.882   9.681  11.645  0.0127  0.1903  0.0072
31217ION     NA48065   5.239   5.171  11.448  0.0934 -0.0654  0.1212
31218ION     NA48066  15.017  12.920  13.209  0.0539  0.1045  0.1386
31219ION     NA48067   3.905  12.692   5.548 -0.2152 -0.0642  0.2721
31220ION     NA48068   3.459  11.847   0.690  0.3597 -0.0918 -0.2711
31221ION     NA48069   0.568  12.161   3.836  0.0252  0.4640  0.1191
31222ION     NA48070   7.979   0.830   6.407 -0.0337  0.2323 -0.0325
31223ION     NA48071  15.307  14.105   5.837  0.1192 -0.0015 -0.0697
31224ION     NA48072   2.401   5.588   6.464 -0.2196  0.0076 -0.0075
31225ION     NA48073  10.681   2.530   4.309 -0.0068  0.1533  0.1618
31226ION     NA48074   1.275  13.469   3.955 -0.1106 -0.1729  0.0138
31227ION     NA48075   4.387   7.636   4.709 -0.0376  0.2181 -0.1155
31228ION     NA48076  16.249   3.788  11.489 -0.0375 -0.2516 -0.0986
31229ION     NA48077   5.880  10.345   6.619  0.0071  0.0231 -0.1067
31230ION     NA48078   3.847  16.976   4.506 -0.0270  0.0518 -0.2678
31231ION     NA48079  14.483   9.742   1.372 -0.3547  0.0214 -0.1808
31232ION     NA48080   8.756  10.852  11.617 -0.2210  0.1396 -0.1581
31233ION     NA48081  13.660   8.885   6.495 -0.1469  0.0755  0.3449
31234ION     NA48082  12.388  13.115  11.240 -0.1630 -0.2270 -0.1840
31235ION     NA48083  12.607  16.176  11.656 -0.2747  0.2177 -0.1106
31236ION     NA48084  10.798   1.465   6.400 -0.3424 -0.0137 -0.2022
31237ION     NA48085  12.631  13.352  14.875  0.1391 -0.0060 -0.0579
31238ION     NA48086   3.070  16.784   6.459 -0.0487 -0.0870 -0.0028
31239ION     NA48087  13.083   1.200  11.896 -0.0149 -0.3658  0.0574
31240ION     NA48088   9.309   9.976  11.569 -0.1570 -0.0240 -0.1951
31241ION     NA48089  11.618   8.540  17.186  0.1354  0.1349  0.1211
31242ION     NA48090  11.726  14.064  11.874 -0.0821 -0.0830  0.0259
31243ION     NA48091   4.085   6.337  11.518 -0.0029  0.0485  0.2122
31244ION     NA48092  15.266   9.758  11.645 -0.0438  0.1341 -0.3078
31245ION     NA48093   9.829  17.041   4.785 -0.2703  0.3460 -0.2253
31246ION     NA48094   9.030   8.269   6.481 -0.0468  0.0203 -0.0657
31247ION     NA48095   7.525  12.582   6.612  0.3122 -0.1674 -0.4755
31248ION     NA48096   4.173   6.437  14.430  0.1825 -0.2167  0.1857
31249ION     NA48097   2.634  13.791   6.371  0.0035 -0.0346 -0.0466
31250ION     NA48098  10.208   3.288  15.483 -0.3700  0.2157  0.0990
31251ION     NA48099   1.812   9.168  11.667  0.0863 -0.0617 -0.0606
31252ION     NA48100  13.589   6.154  11.361 -0.0193 -0.1025  0.1440
31253ION     NA48101   3.311  12.166   6.252 -0.2228  0.0109  0.0717
31254ION     NA48102  14.335  14.262   0.965 -0.1944 -0.2957 -0.1552
31255ION     NA48103   5.292   0.115   6.896 -0.0091  0.2556  0.1194
31256ION     NA48104   4.931  14.319  13.354  0.2263  0.1458  0.1773
31257ION     NA48105  12.145  12.930   6.432 -0.1448  0.1388 -0.1129
31258ION     NA48106  16.924  15.310   6.118 -0.1297  0.1389 -0.0292
31259ION     NA48107   1.978   9.437   2.964  0.5215 -0.0386 -0.0226
31260ION     NA48108   9.581   7.490  11.608  0.2742 -0.3249 -0.1406
31261ION     NA48109  14.228   1.120  11.085  0.1930  0.1539  0.0544
31262ION     NA48110   8.325  14.986   0.081  0.0809 -0.0427 -0.0492
31263ION     NA48111  16.715   0.775  14.204 -0.0300 -0.1356 -0.0860
31264ION     NA48112   3.021   7.599   6.213  0.0741  0.0747  0.0614
31265ION     NA48113   8.115   5.779   6.392  0.1583 -0.0241  0.1022
31266ION     NA48114   2.116  13.932  11.145 -0.0437  0.3204 -0.0849
31267ION     NA48115   9.505  16.112   6.393  0.1148 -0.1086 -0.0298
31268ION     NA48116   4.597  13.978  11.114 -0.0861  0.0875  0.0122
31269ION     NA48117  14.965   1.198  11.785 -0.1484  0.3062  0.3611
31270ION     NA48118  15.331  11.090   6.749 -0.1098 -0.1765 -0.1707
31271ION     NA48119   6.143   3.892   3.800  0.2199  0.0226  0.1151
31272ION     NA48120  16.558  14.724  11.409 -0.0547 -0.1198 -0.2084
31273ION     NA48121  15.680   0.838   6.259  0.1178 -0.1459  0.0840
31274ION     NA48122   5.250   7.444  11.455  0.0972 -0.0882 -0.2717
31275ION     NA48123   5.760  15.575   6.438 -0.1471 -0.0735 -0.3651
31276ION     NA48124   3.131   6.095   6.460 -0.0057 -0.1808 -0.0548
31277ION     NA48125   0.575   5.364  11.549  0.0083 -0.1007  0.1239
31278ION     NA48126  10.396   5.280   0.623  0.1090  0.0933 -0.1008
31279ION     NA48127   0.075   3.681  11.890 -0.0437 -0.0109 -0.0666
31280ION     NA48128   5.923   5.194   2.211 -0.1336  0.2165 -0.1731
31281ION     NA48129   1.576  16.826  16.742  0.1471 -0.2035 -0.0908
31282ION     NA48130  11.275  13.536   6.627  0.1199 -0.0673  0.0668
31283ION     NA48131  12.752  11.379  11.696  0.0039  0.0448 -0.1031
31284ION     NA48132  12.839   8.725   6.632  0.2255  0.3479 -0.2351
31285ION     NA48133   3.333   5.500  11.559 -0.2550  0.1453 -0.1105
31286ION     NA48134  16.390  13.097   0.385  0.2035  0.2166  0.0986
31287ION     NA48135   0.412  11.375  16.440 -0.1009  0.0752 -0.0508
31288ION     NA48136   9.593  16.027  11.418 -0.1915 -0.0120  0.1485
31289ION     NA48137   9.703   6.079   6.448 -0.1141  0.2628 -0.1517
31290ION     NA48138  15.737  14.944  11.367  0.0036 -0.2223 -0.0579
31291ION     NA48139   3.237  10.772  11.583 -0.2423  0.1578  0.3504
31292ION     NA48140   7.852  11.008  11.922 -0.1229  0.0017 -0.1064
31293ION     NA48141  11.277   0.305  11.413 -0.0226  0.2040 -0.2093
31294ION     NA48142  13.883  10.656   6.820 -0.2411  0.2405  0.4558
31295ION     NA48143   3.354  12.676  11.408  0.0878 -0.1000 -0.0529
31296ION     NA48144   8.639   7.428  11.439 -0.0024  0.0637 -0.0854
31297ION     NA48145   1.276   6.936   0.514  0.2793 -0.1473  0.2180
31298ION     NA48146   7.124  10.594  14.913  0.0068 -0.0699 -0.2653
31299ION     NA48147  12.797   4.979  11.246 -0.1195  0.1523  0.1465
31300ION     NA48148  12.760   2.650  11.521 -0.0031 -0.1142  0.0974
31301ION     NA48149  16.581  10.249   6.422  0.1292 -0.1584 -0.3085
31302ION     NA48150  13.180  10.892   6.653 -0.2829  0.0505 -0.2451
31303ION     NA48151   0.092   6.615  11.673  0.0119 -0.0460  0.0416
31304ION     NA48152   7.581   8.756   6.495 -0.1622  0.0030 -0.1616
31305ION     NA48153  14.363  12.707  11.576 -0.1369 -0.2702 -0.0080
31306ION     NA48154   6.935   1.691   6.576  0.0709 -0.0751 -0.0819
31307ION     NA48155   3.518   7.188  11.895  0.0011  0.0239  0.0845
31308ION     NA48156  15.687   8.900  11.516 -0.1560 -0.0783  0.1118
31309ION     NA48157   6.295  12.490   6.677 -0.0110  0.1428 -0.4458
31310ION     NA48158   8.357   2.512   6.561 -0.4472  0.1419  0.2232
31311ION     NA48159  10.683   6.291  11.382 -0.2209  0.3444 -0.2031
31312ION     NA48160  13.602   6.320   6.406 -0.2143  0.0449 -0.1516
31313ION     NA48161  10.300  10.531  11.478 -0.1265  0.0030  0.1385
31314ION     NA48162  12.813   0.613   6.086  0.1507  0.1494 -0.2237
31315ION     NA48163   0.107   6.249   6.682 -0.1446  0.2667  0.0251
31316ION     NA48164   0.997   8.925   2.184  0.0530 -0.1000 -0.1629
31317ION     NA48165  11.532  14.488   6.415 -0.0766 -0.0540 -0.2860
31318ION     NA48166   3.447   9.145  16.202 -0.3897  0.1109 -0.1461
31319ION     NA48167   2.596   5.847  11.385 -0.0467 -0.1965  0.2035
31320ION     NA48168   5.251  16.647   4.708  0.0294 -0.1253  0.2899
31321ION     NA48169  16.329   4.319  11.492  0.2120  0.1847  0.0351
31322ION     NA48170   1.848   4.352  12.141 -0.3809 -0.1282  0.0252
31323ION     NA48171  10.645  12.199  11.475 -0.4854 -0.0635  0.1255
31324ION     NA48172  12.069   2.662   2.217 -0.0844 -0.2653 -0.0205
31325ION     NA48173   2.719  16.472  11.252 -0.1678  0.1444 -0.3771
31326ION     NA48174  14.497   8.893   6.611 -0.0579  0.0722  0.0280
31327ION     NA48175   7.654   9.124  11.735  0.1246  0.0362  0.1051
31328ION     NA48176   6.701   0.626   2.606 -0.0478 -0.0589  0.2011
31329ION     NA48177  14.456  12.028  13.784  0.3083  0.0409  0.0245
31330ION     NA48178  13.607   2.460  11.079  0.3295  0.1734 -0.1237
31331ION     NA48179  15.603  14.047   6.336 -0.2713 -0.1637  0.1704
31332ION     NA48180   3.185   0.892   6.528 -0.0128  0.0084  0.2076
31333ION     NA48181   1.739   3.564  11.918  0.0690  0.1142  0.1295
31334ION     NA48182   0.563  11.702   6.353 -0.1273  0.0138  0.1805
31335ION     NA48183   5.890  11.596   6.567  0.5372  0.0507  0.0573
31336ION     NA48184   0.609   1.370   6.135  0.1776 -0.0236 -0.0172
31337ION     NA48185   9.852   2.308  11.356  0.1378 -0.1802 -0.3232
31338ION     NA48186  10.899   9.830  11.557  0.1018  0.2485 -0.2274
31339ION     NA48187   8.249  15.058  11.235  0.1537 -0.0914  0.2284
31340ION     NA48188   9.743  12.173  11.792 -0.0769 -0.0326  0.0425
31341ION     NA48189   1.235  11.721  14.741 -0.1176 -0.0040  0.4745
31342ION     NA48190  15.517   1.682   6.338  0.4073  0.4225 -0.1558
31343ION     NA48191   8.194  13.357   6.675  0.1656  0.0527  0.1152
31344ION     NA48192   1.146   8.687  16.949  0.1908  0.0118 -0.1969
31345ION     NA48193  16.339   8.838   5.041 -0.0610 -0.0754 -0.0060
31346ION     NA48194   4.892   9.096   6.655 -0.1770  0.0006  0.0669
31347ION     NA48195   7.829  16.541   6.556 -0.0770 -0.0120  0.2429
31348ION     NA48196   4.104   8.736   6.517 -0.0073  0.1084  0.0469
31349ION     NA48197   6.851   5.048   6.356 -0.0479  0.1497 -0.1856
31350ION     NA48198   5.880  15.176  13.913  0.0665  0.2940  0.4041
31351ION     NA48199   3.954   2.947  11.619 -0.1395 -0.0376  0.0545
31352ION     NA48200   6.017   4.066   1.877 -0.1317 -0.1915  0.0439
31353ION     NA48201   4.628  12.735   6.412 -0.2293  0.0798 -0.3592
31354ION     NA48202  10.341  11.641   4.153  0.0607 -0.0207 -0.0455
31355ION     NA48203  15.289   5.525  11.437  0.2659 -0.0437 -0.1872
31356ION     NA48204  13.530  10.209  15.069  0.2693 -0.1286  0.3013
31357ION     NA48205   8.017   3.308   6.111  0.3858 -0.0919  0.2159
31358ION     NA48206   2.119   8.938   1.283 -0.1810 -0.2407  0.1302
31359ION     NA48207  16.677  14.637  15.942  0.0439 -0.3654  0.2143
31360ION     NA48208   5.586   3.584  11.594  0.0032  0.2094 -0.2629
31361ION     NA48209  15.656   9.718   6.529  0.2454  0.3423  0.1841
31362ION     NA48210   1.298  14.046  11.431 -0.1144  0.0384 -0.1280
31363ION     NA48211   4.979  13.536  11.071  0.1287  0.2227 -0.3619
31364ION     NA48212  11.567   7.695  11.757  0.0855  0.0610 -0.0123
31365ION     NA48213  15.359  12.448  15.254 -0.1189  0.0993  0.0646
31366ION     NA48214  14.538  12.257   6.625  0.2029 -0.1357 -0.1626
31367ION     NA48215   7.665   3.753   6.420  0.1271  0.0376 -0.1309
31368ION     NA48216   8.441  14.930   6.478 -0.1371  0.0683 -0.0437
31369ION     NA48217  14.883   7.261   6.627  0.0172  0.1088  0.2977
31370ION     NA48218  12.278   7.127   6.480  0.1027  0.1554 -0.0954
31371ION     NA48219   4.972   1.164  11.958 -0.6263  0.2191 -0.0082
31372ION     NA48220  10.275  13.781  11.685  0.0011 -0.1857 -0.0600
31373ION     NA48221   1.811   4.715  14.498  0.1420 -0.0218  0.3974
31374ION     NA48222  13.663   0.575   6.053  0.1267 -0.3397 -0.0034
31375ION     NA48223  15.409  12.081   6.455 -0.1998  0.1977  0.1741
31376ION     NA48224   2.047   6.477   6.412 -0.1036  0.0490 -0.0118
31377ION     NA48225   4.241   2.011   6.311  0.0530 -0.1579  0.0780
31378ION     NA48226   8.241  12.122  11.471 -0.0346 -0.1950  0.0263
31379ION     NA48227   4.566  10.817   6.199 -0.0424  0.1626 -0.0397
31380ION     NA48228  16.488  16.462   2.875 -0.2043  0.1962 -0.1808
31381ION     NA48229  11.197   6.443  13.044  0.1959  0.0666  0.0911
31382ION     NA48230  13.872   8.453  11.609  0.1446  0.1501  0.0508
31383ION     NA48231   1.931  10.494   6.390 -0.0379 -0.0289 -0.0680
31384ION     NA48232  11.996   9.010   6.610  0.0090 -0.1041 -0.1088
31385ION     NA48233  11.514   4.035  11.334 -0.1577  0.0890  0.0997
31386ION     NA48234  15.094  11.226  11.372  0.2878 -0.1343  0.0293
31387ION     NA48235   0.013   7.975   6.316 -0.1686 -0.2253  0.3133
31388ION     NA48236   9.379  16.819  11.252  0.3539 -0.0695 -0.1725
31389ION     NA48237   5.999   6.744   6.678  0.0020  0.2598  0.3583
31390ION     NA48238  11.235   4.941   5.512  0.1910 -0.0066  0.0694
31391ION     NA48239  14.537   7.910  11.702  0.0020 -0.2985 -0.1088
31392ION     NA48240   1.229  10.287   6.386 -0.1124 -0.1407  0.1074
31393ION     NA48241   6.300  13.702   6.316 -0.0849  0.2325  0.2946
31394ION     NA48242   1.207  14.104   6.231  0.1985 -0.2523  0.1320
31395ION     NA48243   5.867   8.763  11.427 -0.0184  0.2499 -0.1223
31396ION     NA48244   9.955  14.872   1.701 -0.0512  0.0872 -0.0279
31397ION     NA48245   9.615   2.766   6.314  0.2171  0.0747  0.0347
31398ION     NA48246  14.802   8.955  11.518 -0.2261 -0.1122  0.0075
31399ION     NA48247  10.231  12.385   5.846 -0.0233  0.1655  0.2670
31400ION     NA48248   3.364  11.451   6.439 -0.0327  0.2446 -0.3412
31401ION     NA48249   7.330  15.955  16.137 -0.2880  0.3223  0.1859
31402ION     NA48250  10.202   6.966  11.512 -0.2172 -0.3031  0.0244
31403ION     NA48251  10.171   5.848  16.848  0.0883  0.2564 -0.0973
31404ION     NA48252   3.669   0.154   6.236 -0.2438 -0.2073 -0.1977
31405ION     NA48253  13.918  11.324   1.926 -0.2944 -0.1367 -0.3230
31406ION     NA48254   3.834  16.495  11.178 -0.1085  0.0334 -0.0550
31407ION     NA48255   5.833   1.562   6.569  0.1658 -0.1121  0.0120
31408ION     NA48256   3.853   9.236   6.596  0.1718 -0.0401 -0.0618
31409ION     NA48257  12.878  11.749   6.681  0.0889  0.1748  0.0723
31410ION     NA48258   6.527  10.382  11.559  0.1336 -0.0058 -0.1526
31411ION     NA48259   8.255  13.555  12.153  0.0671  0.0764  0.1979
31412ION     NA48260  16.668   8.811  11.369 -0.1816 -0.0148  0.2648
31413ION     NA48261  12.165   3.540   6.403 -0.0403 -0.0819 -0.4945
31414ION     NA48262   4.801   3.465  11.461  0.1057 -0.0351 -0.5463
31415ION     NA48263   0.416   2.749  11.566 -0.0047  0.3469  0.0030
31416ION     NA48264   3.250  15.362  11.685 -0.0941  0.0074 -0.1951
31417ION     NA48265  14.726  16.561  11.457 -0.0379 -0.2151 -0.0879
31418ION     NA48266   7.717   9.368  15.941  0.1526  0.1301 -0.0475
31419ION     NA48267  14.768  13.751   6.397  0.0614  0.2119  0.0503
31420ION     NA48268   2.312  15.810   6.262 -0.1955  0.3003  0.0706
31421ION     NA48269   7.323  10.304  11.736 -0.1064 -0.0580  0.0115
31422ION     NA48270  13.052   1.310   6.257 -0.0784  0.0219  0.0843
31423ION     NA48271   6.091  13.730  10.861 -0.0691 -0.1771 -0.2847
31424ION     NA48272   5.824   6.720  11.358  0.0534 -0.1838 -0.1967
31425ION     NA48273   8.032   0.830   2.208  0.2242  0.1805  0.0919
31426ION     NA48274   5.316   7.272   6.635 -0.3296  0.0170 -0.0521
31427ION     NA48275  12.152   8.695   1.126  0.2384  0.2228 -0.1578
31428ION     NA48276  14.180   8.630  12.076  0.2943  0.0560 -0.1965
31429ION     NA48277  15.303  13.057   6.456  0.0534 -0.0751  0.2840
31430ION     NA48278   1.719   1.190   1.919 -0.1093 -0.0279 -0.4596
31431ION     NA48279   8.078   5.753  14.585  0.0906 -0.0211  0.1520
31432ION     NA48280  15.903  10.468  11.440 -0.0731 -0.1720  0.1345
31433ION     NA48281   6.088   4.373   6.721 -0.3535 -0.3106  0.0805
31434ION     NA48282   1.686   8.071   6.300 -0.0212  0.0731  0.3005
31435ION     NA48283   5.882   2.453   6.676 -0.0876  0.1815 -0.2056
31436ION     NA48284   4.592   4.005   4.001  0.1406  0.2533 -0.1831
31437ION     NA48285   4.238  11.912   6.370  0.2067  0.0952 -0.0019
31438ION     NA48286   6.586  16.461   5.938 -0.3870 -0.2770 -0.2587
31439ION     NA48287  16.451  16.036   6.223  0.0077 -0.2636 -0.2079
31440ION     NA48288   5.414   5.914   6.616  0.3359  0.1486 -0.1278
31441ION     NA48289  13.620   3.594   6.181  0.2788  0.1510  0.1266
31442ION     NA48290   8.820   6.502   6.355  0.1227 -0.0475  0.0212
31443ION     NA48291   0.871   0.611   6.412  0.1922 -0.0131 -0.1963
31444ION     NA48292   4.059   3.815  11.529 -0.0010  0.0644  0.1404
31445ION     NA48293  14.284   9.529  11.773  0.1815 -0.2680  0.1049
31446ION     NA48294  16.021   7.827   3.869  0.0241 -0.1729 -0.0025
31447ION     NA48295   4.641   0.934   2.606  0.0005  0.0254 -0.3205
31448ION     NA48296   6.079  16.768   6.660 -0.0881  0.1443  0.2125
31449ION     NA48297   2.597  14.601  11.141  0.0774  0.1042 -0.1402
31450ION     NA48298   6.584  12.765  14.262  0.0558  0.0474  0.2095
31451ION     NA48299   6.117   9.105  14.311  0.1565  0.2906  0.0647
31452ION     NA48300  15.067   5.067  11.413  0.0462  0.0965 -0.0669
31453ION     NA48301  16.751   8.878   6.335 -0.0510  0.4103  0.0834
31454ION     NA48302  11.757   5.566  13.592 -0.1607 -0.1337 -0.0755
31455ION     NA48303  16.999   9.115   4.412 -0.1388  0.0743  0.2202
31456ION     NA48304  12.989   2.253   6.208 -0.0977  0.0135 -0.1438
31457ION     NA48305  11.903  14.536  11.767 -0.1266 -0.1892  0.1140
31458ION     NA48306   1.063   2.116   6.474  0.0610  0.0735  0.0416
31459ION     NA48307  11.318  10.143   6.614  0.0974 -0.0908  0.0823
31460ION     NA48308  14.994   3.686  13.732  0.1618 -0.1747  0.0611
31461ION     NA48309   8.792  12.119  11.535  0.0584  0.4057  0.0332
31462ION     NA48310   2.606   3.904  11.920  0.0742  0.0486 -0.2142
31463ION     NA48311   7.367  14.075   6.288  0.1605 -0.1471 -0.0003
31464ION     NA48312  14.552   6.301   6.696  0.1653  0.2232 -0.1178
31465ION     NA48313   5.470   4.349  11.552  0.1457 -0.0208  0.1862
31466ION     NA48314   7.074  16.217   6.332  0.3239 -0.1682 -0.1041
31467ION     NA48315   6.511  12.237  11.268 -0.0008  0.2813  0.0100
31468ION     NA48316   1.445  12.109   5.996 -0.0237 -0.1301  0.1823
31469ION     NA48317   3.225  13.005   6.104 -0.0030 -0.2355 -0.0519
31470ION     NA48318   9.141   9.129  11.620 -0.2548 -0.0894  0.2721
31471ION     NA48319  10.325  15.356  11.583 -0.1001  0.1144  0.0403
31472ION     NA48320  16.769   2.175  11.436 -0.1437  0.0900 -0.0264
31473ION     NA48321  15.437   6.079   6.501  0.1114 -0.1536 -0.1985
31474ION     NA48322   2.707   3.635   6.669 -0.2880  0.0306  0.0907
31475ION     NA48323  10.506   8.264   6.493  0.1955 -0.0286 -0.0206
31476ION     NA48324  16.940  12.199   6.215 -0.2344 -0.2100 -0.3373
31477ION     NA48325   1.005   6.348   6.637 -0.2845  0.1391 -0.0201
31478ION     NA48326  16.194   0.522   6.359 -0.2575 -0.1595 -0.1304
31479ION     NA48327   8.634  14.293  11.442  0.3036 -0.2270  0.0345
31480ION     NA48328   9.761  13.046  11.565 -0.0754 -0.1036 -0.2898
31481ION     NA48329   3.937  13.272  11.397  0.3253  0.1711 -0.0051
31482ION     NA48330   4.894   9.473  11.202 -0.2151  0.0966  0.0872
31483ION     NA48331  15.372   2.142  11.755  0.0858 -0.2720  0.1498
31484ION     NA48332   5.430  12.292   6.434 -0.2229  0.0202  0.0231
31485ION     NA48333   0.108  13.907   4.154 -0.1584  0.0320 -0.1301
31486ION     NA48334  16.580   1.276  11.489  0.0294 -0.1004 -0.1325
31487ION     NA48335   7.198   5.541   6.377 -0.3127 -0.1277  0.1038
31488ION     NA48336  12.970  14.930  14.233 -0.2232 -0.2587  0.0145
31489ION     NA48337   9.046   8.203  11.793 -0.3807 -0.1404 -0.1788
31490ION     NA48338   0.555   2.601  15.234  0.1390  0.1219 -0.2035
31491ION     NA48339  13.837   2.672   6.173 -0.1983 -0.1279  0.0440
31492ION     NA48340   3.602   8.625   4.097 -0.1900 -0.0890  0.0900
31493ION     NA48341  16.269   9.180  12.518 -0.2902  0.2437 -0.1338
31494ION     NA48342  16.221   3.792   6.461  0.0423 -0.2535 -0.2292
31495ION     NA48343  12.022  15.115   3.189  0.0885  0.0115  0.1808
31496ION     NA48344   3.561   3.723   6.508  0.0892 -0.1552  0.0485
31497ION     NA48345   9.546   3.584   3.382  0.0157  0.0696  0.0666
31498ION     NA48346   5.945  16.263  11.027 -0.2750  0.2931 -0.1681
31499ION     NA48347   4.823   6.398   6.633  0.2282  0.1783  0.1619
31500ION     NA48348  10.735  11.435  15.848  0.1746  0.0898 -0.0479
31501ION     NA48349  12.584   6.402  11.414  0.3521 -0.1300  0.0745
31502ION     NA48350   2.100  10.043  11.547  0.1708  0.2054  0.1398
31503ION     NA48351   3.255  16.084   5.696  0.0973 -0.0941  0.0171
31504ION     NA48352   2.352   2.626   6.519 -0.1192  0.0981  0.2222
31505ION     NA48353  15.402   0.258  11.472  0.0246 -0.2096  0.1469
31506ION     NA48354   9.986  10.634   6.274 -0.1548  0.0819  0.3866
31507ION     NA48355  11.919  16.750  11.226 -0.1135  0.0881  0.0334
31508ION     NA48356  10.613   4.316  11.326  0.0841  0.2607  0.0209
31509ION     NA48357  15.494  14.645  14.701  0.0570 -0.1348 -0.0231
31510ION     NA48358   0.668   5.558  16.256 -0.2707  0.0613 -0.4337
31511ION     NA48359   9.823   7.695   6.551  0.2502 -0.0503  0.0618
31512ION     NA48360   2.475  11.647  11.634  0.0643  0.0132 -0.1830
31513ION     NA48361  11.250   0.538   6.344  0.2494  0.0967  0.0981
31514ION     NA48362   3.834   9.212  11.399 -0.3126  0.2980  0.0097
31515ION     NA48363   2.568  13.063  11.938  0.3123 -0.3792 -0.2713
31516ION     NA48364   7.114  11.101   6.497 -0.0912 -0.0585  0.0612
31517ION     NA48365   1.838   3.968   2.066  0.2051  0.1064 -0.1319
31518ION     NA48366  11.983   3.711   5.310  0.1468  0.0530  0.1259
31519ION     NA48367   5.952   5.700  11.464 -0.0585  0.0049 -0.3022
31520ION     NA48368  10.721   2.354   6.376 -0.0139  0.0467 -0.0301
31521ION     NA48369  12.047   9.518   5.351  0.0232  0.0323  0.0348
31522ION     NA48370  10.649  16.058   6.323  0.1055 -0.1794  0.1775
31523ION     NA48371  12.509  13.653  11.769 -0.0665 -0.0687 -0.5204
31524ION     NA48372   7.233  14.148  11.758 -0.1748  0.0591 -0.0914
31525ION     NA48373  10.428   6.218  11.842 -0.0769  0.0913 -0.2333
31526ION     NA48374   5.050   9.842   6.613  0.1152 -0.2089  0.3792
31527ION     NA48375  14.837  10.763  15.452 -0.0749 -0.1190 -0.1957
31528ION     NA48376  12.415  16.354   6.112 -0.0337  0.3934 -0.0242
31529ION     NA48377  13.140  12.390  11.308  0.0750  0.2461  0.0774
31530ION     NA48378   8.112   8.015   5.989 -0.0399  0.3741  0.1040
31531ION     NA48379   8.449  10.658   2.976  0.0588 -0.1223  0.1064
31532ION     NA48380  16.646   5.965  16.806  0.3362 -0.0221 -0.1707
31533ION     NA48381  16.624  12.576   5.090  0.0846  0.1667  0.1661
31534ION     NA48382   4.742  16.232  11.049 -0.1468 -0.1927  0.0040
31535ION     NA48383  13.388  14.805   6.176 -0.1204  0.0764  0.1918
31536ION     NA48384   4.181   0.285  11.281  0.0493  0.1668 -0.0124
31537ION     NA48385   9.165   1.002  11.296 -0.0147  0.0452 -0.3620
31538ION     NA48386  12.575  15.338  11.518  0.1469  0.1154 -0.2356
31539ION     NA48387   8.551   0.395  11.297  0.1704 -0.0874  0.1361
31540ION     NA48388   6.735  15.358   6.176  0.2450 -0.0086  0.0342
31541ION     NA48389   7.297   9.674   5.731  0.1171 -0.1512  0.1665
31542ION     NA48390  10.685   5.285   2.253 -0.1135  0.0488 -0.0304
31543ION     NA48391   8.537  15.309   1.232  0.1131  0.4557  0.1219
31544ION     NA48392  10.154  12.339   2.594 -0.0247  0.1335  0.2655
31545ION     NA48393   6.827  16.553  11.149 -0.2191 -0.1931  0.3740
31546ION     NA48394   3.789  14.109  11.321  0.2579  0.1293 -0.2548
31547ION     NA48395  10.356   6.317   6.128  0.3230 -0.0524 -0.0817
31548ION     NA48396  14.605  11.155   6.665  0.2077  0.0771  0.0883
31549ION     NA48397   8.009   7.108  17.265  0.1319  0.2261 -0.2315
31550ION     NA48398  11.147  15.215  11.976 -0.3907  0.0176 -0.2561
31551ION     NA48399  17.058  16.355  11.586 -0.3567  0.0317  0.2184
31552ION     NA48400   2.399   2.714  11.606 -0.1374 -0.2333 -0.0742
31553ION     NA48401   1.406   7.236   6.546  0.1952  0.1033 -0.0800
31554ION     NA48402   7.994  16.831  11.232  0.0623 -0.0462  0.1257
31555ION     NA48403   6.814  11.644   6.450 -0.0716 -0.0894  0.0084
31556ION     NA48404   3.872   6.512   6.337  0.1343  0.1374  0.0249
31557ION     NA48405   1.113   8.912   6.516 -0.1521 -0.1590  0.0411
31558ION     NA48406   0.634  16.744   1.717  0.2149  0.1949 -0.1442
31559ION     NA48407   4.989  15.489  11.071  0.0913 -0.1325 -0.0481
31560ION     NA48408   4.155   6.410   5.469 -0.1284 -0.1518  0.2180
31561ION     NA48409   6.493  12.401   1.365 -0.0048  0.1692  0.0503
31562ION     NA48410  10.816  12.874  11.820 -0.2489  0.2190  0.2550
31563ION     NA48411  17.048   0.314   6.057 -0.1729  0.0719  0.2833
31564ION     NA48412   3.803  10.002  14.635 -0.1860 -0.1320  0.0468
31565ION     NA48413   7.247   7.272  11.545 -0.1403  0.0450  0.2095
31566ION     NA48414   1.004  16.299  11.101 -0.0425  0.0575 -0.1522
31567ION     NA48415   9.862   1.455  11.460 -0.5086 -0.0773 -0.3520
31568ION     NA48416   4.964   1.347   0.671 -0.0638  0.2103  0.0543
31569ION     NA48417   1.358   5.302   6.766  0.2245  0.4057 -0.1095
31570ION     NA48418   6.843   9.573  11.413  0.2499  0.0766  0.2037
31571ION     NA48419   3.343  15.042   6.781  0.1487 -0.1315  0.0518
31572ION     NA48420  10.053   5.202  11.132  0.2843  0.1104 -0.1778
31573ION     NA48421   2.809  10.542  11.404  0.3470 -0.0827  0.0130
31574ION     NA48422  11.013   2.266  11.253  0.0623  0.2052 -0.1628
31575ION     NA48423   0.423  16.888  11.342 -0.3414  0.4647 -0.2408
31576ION     NA48424   8.949  11.218   6.542 -0.0578 -0.0787  0.0006
31577ION     NA48425   0.311   9.200  11.563 -0.2158 -0.3351  0.4647
31578ION     NA48426   7.280   3.823  17.403  0.2541 -0.4844 -0.1918
31579ION     NA48427   2.245   9.606   6.502  0.0940  0.0325  0.1106
31580ION     NA48428   0.525   2.013  11.867 -0.0705  0.0441 -0.2472
31581ION     NA48429   4.009  15.791  11.142  0.2934  0.0264  0.0970
31582ION     NA48430   6.754   8.410  11.456 -0.1986  0.4606 -0.2466
31583ION     NA48431  14.070  15.325  11.404 -0.0657  0.1499  0.2317
31584ION     NA48432  12.845   0.049  11.311 -0.1348  0.0619  0.1146
31585ION     NA48433   6.956   8.879  11.524 -0.2011  0.1745  0.2092
31586ION     NA48434   7.086  16.031   2.958 -0.0527 -0.1880  0.1484
31587ION     NA48435  14.075  14.339   6.388  0.0080  0.2067  0.2058
31588ION     NA48436  13.125  12.752   6.395  0.0025 -0.0239  0.2126
31589ION     NA48437   6.321   0.186   6.548  0.0065 -0.0044 -0.0120
31590ION     NA48438  13.259   1.446  11.003 -0.2648 -0.0153 -0.0419
31591ION     NA48439  14.049   2.019  11.211  0.1246 -0.1389 -0.1950
31592ION     NA48440   2.661  10.326   6.429  0.3453 -0.1086  0.3529
31593ION     NA48441   7.538   4.485  13.706 -0.1259 -0.2351  0.0238
31594ION     NA48442   3.560   1.937  11.382 -0.0367  0.2452 -0.0822
31595ION     NA48443   1.551  16.980  11.258  0.0323 -0.2006 -0.2350
31596ION     NA48444   1.085   7.888  16.469 -0.2676 -0.1166 -0.0345
31597ION     NA48445   1.900  13.421   6.371  0.0058  0.3406  0.4170
31598ION     NA48446  11.448  16.732   6.430  0.3241  0.2902  0.1317
31599ION     NA48447  16.421   8.013  11.641 -0.3078 -0.0895  0.1382
31600ION     NA48448   4.825   9.356   4.570  0.1741 -0.2012  0.2182
31601ION     NA48449  16.470  11.263  11.542 -0.1435  0.4839  0.2157
31602ION     NA48450   5.767  14.207  17.079 -0.1293 -0.2456  0.0687
31603ION     NA48451  11.642   3.052  11.501 -0.2695 -0.0754 -0.2178
31604ION     NA48452  16.436   7.734  12.442  0.0452  0.1437 -0.0407
31605ION     NA48453   6.874  14.970   0.533  0.2012 -0.1227  0.0902
31606ION     NA48454   7.938  16.934   3.960 -0.0711  0.0567  0.0001
31607ION     NA48455   8.210  11.495  15.755 -0.3058  0.0690  0.1391
31608ION     NA48456   7.012   4.745  11.442 -0.2366  0.3891 -0.4498
31609ION     NA48457  11.108   9.439   6.566 -0.1684 -0.2001 -0.1295
31610ION     NA48458   8.083   6.768  11.410  0.0917  0.1113  0.2970
31611ION     NA48459  12.433  16.246   1.546  0.0567  0.4589 -0.0405
31612ION     NA48460   3.002   7.712  11.805 -0.1581  0.5773 -0.3662
31613ION     NA48461  12.899   3.281  10.906  0.2110 -0.2653 -0.2431
31614ION     NA48462   7.347   2.655  11.610  0.0090 -0.0141 -0.1033
31615ION     NA48463   9.162   2.512   6.402 -0.1634  0.1612  0.1121
31616ION     NA48464   6.972   7.092   6.617 -0.2686  0.1333 -0.1815
31617ION     NA48465  15.726  16.855   3.459 -0.0352 -0.1865 -0.2443
31618ION     NA48466   0.647  16.746   6.215  0.2496  0.1929 -0.0598
31619ION     NA48467  15.781   2.992  11.332  0.1430  0.0329  0.0878
31620ION     NA48468  16.696   9.290  15.912  0.0083 -0.0083  0.1302
31621ION     NA48469  12.615   7.784  11.578  0.1470  0.1944 -0.0298
31622ION     NA48470   5.938   9.160  15.273  0.0033  0.0063 -0.0454
31623ION     NA48471  11.020  14.394   6.367 -0.2586 -0.0794 -0.4662
31624ION     NA48472  16.784   3.031  11.469  0.0512  0.1294 -0.2984
31625ION     NA48473  12.940   4.118   6.171 -0.1869  0.2278  0.1447
31626ION     NA48474  10.683  16.936   6.226  0.0443 -0.1270  0.2683
31627ION     NA48475   3.800  16.435   6.557 -0.1755  0.0111 -0.0660
31628ION     NA48476  11.757   2.658   5.957  0.1701 -0.4297 -0.1767
31629ION     NA48477   1.584  16.638   0.616  0.2774 -0.0433 -0.0444
31630ION     NA48478  13.222   8.112   6.705 -0.1974 -0.1327  0.0446
31631ION     NA48479   9.223   3.495   6.250 -0.0682 -0.3086  0.5257
31632ION     NA48480   4.286   7.878  17.201  0.1024  0.2583  0.1024
31633ION     NA48481   4.316  11.870  11.180 -0.0222  0.0144  0.2143
31634ION     NA48482   8.394  13.827  11.699 -0.0786  0.0435  0.0409
31635ION     NA48483   1.447   8.305  11.757 -0.1899 -0.0396  0.0919
31636ION     NA48484  10.923   7.947   6.284 -0.1021  0.0964  0.1825
31637ION     NA48485   3.177   1.897   6.522 -0.1174  0.1378  0.2293
31638ION     NA48486   1.612   0.845   6.553 -0.1984 -0.2632 -0.0058
31639ION     NA48487   1.419  10.856  11.417 -0.2633  0.3544 -0.0101
31640ION     NA48488   5.268   5.773  15.742 -0.0513 -0.0885  0.3625
31641ION     NA48489   0.714  14.826   6.239  0.0427  0.0309 -0.0192
31642ION     NA48490   9.051  10.202   6.470 -0.2033  0.1378 -0.0054
31643ION     NA48491  10.016   8.602  11.699  0.2640 -0.4036 -0.0268
31644ION     NA48492  11.888  17.058   6.417  0.0311  0.3366 -0.0558
31645ION     NA48493   0.480   3.546  11.683 -0.0991 -0.3609  0.0413
31646ION     NA48494   1.725  16.357  12.949  0.1669 -0.1515 -0.1718
31647ION     NA48495   0.370  14.582  12.903  0.2352  0.1050 -0.1559
31648ION     NA48496  17.030   0.072   3.980 -0.0584 -0.0354  0.0948
31649ION     NA48497  15.271  10.469   6.779  0.0683 -0.1147 -0.0373
31650ION     NA48498   0.322   9.582   6.386  0.0282 -0.0531  0.1790
31651ION     NA48499   1.435   2.985   6.639 -0.2932 -0.1807  0.2273
31652ION     NA48500   1.728   4.308  13.374  0.0979  0.0634  0.1474
31653ION     NA48501   1.703   0.836   0.956 -0.0436 -0.2126  0.0333
31654ION     NA48502  14.026   1.199  11.526  0.1633  0.1412 -0.0831
31655ION     NA48503   8.813   0.677   6.241  0.0500  0.0186  0.0990
31656ION     NA48504  14.898  15.169  11.523  0.2404 -0.0288 -0.1813
31657ION     NA48505   7.122   1.713   4.501 -0.0852 -0.3900 -0.0129
31658ION     NA48506   0.513   9.858   1.201 -0.0600 -0.1217  0.1060
31659ION     NA48507  15.493  16.341   6.378  0.1634  0.0200  0.4124
31660ION     NA48508   0.563   4.363  11.580  0.2630  0.0580 -0.0454
31661ION     NA48509   9.631  14.526  11.716  0.0424 -0.0373 -0.0940
31662ION     NA48510  10.035   9.446  11.706 -0.2415 -0.4063 -0.1161
31663ION     NA48511  10.847   5.148   6.230 -0.0293  0.0143  0.1204
31664ION     NA48512   5.191  13.953   6.445  0.0234  0.1171 -0.1638
31665ION     NA48513  15.447   7.446   0.489 -0.2771 -0.1885  0.1783
31666ION     NA48514  11.104   7.493   3.323  0.1502 -0.0314 -0.0741
31667ION     NA48515   8.653  14.379   5.397  0.0180  0.1542 -0.2553
31668ION     NA48516   9.671   4.388   1.922 -0.0298  0.1008  0.1109
31669ION     NA48517  13.914  12.693   3.513  0.1670  0.0608  0.1571
31670ION     NA48518  12.737  10.397  11.725  0.0401  0.1156  0.0932
31671ION     NA48519   2.778   1.187   1.015  0.0535  0.0041 -0.1465
31672ION     NA48520  14.556   9.403   6.635 -0.1225 -0.2937  0.0676
31673ION     NA48521  15.444   8.472   3.570  0.1384  0.2064  0.0474
31674ION     NA48522   2.515   8.249   6.242  0.3103 -0.0136 -0.1301
31675ION     NA48523  12.574  15.352   6.312 -0.2983  0.3843  0.1200
31676ION     NA48524  16.562   7.754   6.338 -0.0298 -0.0581 -0.0376
31677ION     NA48525   3.835  10.203  11.362  0.2219  0.4453 -0.2878
31678ION     NA48526  14.017   0.568  17.777 -0.2145 -0.1187 -0.0364
31679ION     NA48527  11.783  11.839   0.028 -0.1007 -0.2136 -0.1014
31680ION     NA48528   9.549  10.842   6.496 -0.3750  0.1209 -0.0906
31681ION     NA48529   8.697   2.219  11.635  0.0265  0.1105  0.1292
31682ION     NA48530   5.563   5.004   6.324 -0.0772  0.0366 -0.2165
31683ION     NA48531   6.518  10.468  15.015 -0.3420 -0.0497  0.0440
31684ION     NA48532   1.595   8.903   6.628  0.2109 -0.0257 -0.1068
31685ION     NA48533   0.288  12.677   0.197 -0.2326  0.0173  0.1720
31686ION     NA48534  11.146  11.814   6.369  0.0695 -0.1395 -0.1361
31687ION     NA48535   3.326   0.146  11.353  0.0896  0.0163 -0.1298
31688ION     NA48536   0.612   6.775   1.775 -0.0303 -0.0308 -0.0832
31689ION     NA48537   0.482   8.728   6.484 -0.1897  0.1510  0.0005
31690ION     NA48538   9.255   0.815   6.467 -0.0260 -0.1217 -0.0007
31691ION     NA48539   9.916   0.417  11.538  0.0856  0.1068 -0.0986
31692ION     NA48540   1.660   9.841  15.734  0.0928 -0.0045 -0.0084
31693ION     NA48541   0.933   5.766  11.657 -0.0147  0.1866 -0.3919
31694ION     NA48542   6.863   2.352  11.630  0.2969  0.2742  0.0652
31695ION     NA48543  15.012  14.719   6.208  0.0169  0.0130  0.0704
31696ION     NA48544  16.268   8.571   6.321 -0.0942  0.1763  0.1845
31697ION     NA48545   3.497   8.276  11.585 -0.0646 -0.1009 -0.4289
31698ION     NA48546  11.187  16.067   6.275 -0.2474 -0.0814  0.2383
31699ION     NA48547   5.457  14.240  10.894  0.0707 -0.0855 -0.0201
31700ION     NA48548  15.998   9.196   0.238  0.0999 -0.1258  0.4299
31701ION     NA48549   6.333  10.881   6.549 -0.0723  0.0473 -0.2262
31702ION     NA48550   0.848  12.592   6.250  0.2456 -0.2124  0.0212
31703ION     NA48551   8.853  12.681   6.500 -0.0665  0.0372 -0.3244
31704ION     NA48552   6.804   9.215   6.522 -0.0015  0.2362 -0.0548
31705ION     NA48553   3.355  11.585  11.344 -0.1085  0.1935  0.1569
31706ION     NA48554   0.190  16.070   6.272  0.1629 -0.1591 -0.1951
31707ION     NA48555   1.552   1.611   5.986 -0.3645 -0.2469  0.0969
31708ION     NA48556   0.171   5.627  11.802  0.0195  0.3427 -0.0445
31709ION     NA48557   9.121   6.829  11.503 -0.1783  0.1336  0.1433
31710ION     NA48558  13.807  13.910   6.499  0.0482 -0.1986  0.1423
31711ION     NA48559  11.948   2.354   4.685  0.0688  0.1697  0.3945
31712ION     NA48560   2.349   6.771  11.525 -0.2640 -0.3025 -0.1872
31713ION     NA48561   2.873   3.952  11.492 -0.1911  0.2571 -0.0338
31714ION     NA48562   3.999  13.441   6.098 -0.2844  0.0977 -0.1777
31715ION     NA48563   3.695  11.053   6.326 -0.0511 -0.5659  0.1858
31716ION     NA48564   5.051  12.334  11.252  0.0545  0.1563  0.2022
31717ION     NA48565  14.718  10.465  12.123  0.0400  0.0910  0.0800
31718ION     NA48566   4.059   5.462  11.508 -0.2392 -0.3263  0.0832
  17.06700  17.06700  17.85225
